      -----------------------------------------------------------      
     |                   =====================                   |     
     |                           x T B                           |     
     |                   =====================                   |     
     |                         S. Grimme                         |     
     |          Mulliken Center for Theoretical Chemistry        |     
     |                    University of Bonn                     |     
      -----------------------------------------------------------      

   * xtb version 6.5.1 (b24c23e) compiled by 'conda@728c89f4b128' on 2022-07-12

   xtb is free software: you can redistribute it and/or modify it under
   the terms of the GNU Lesser General Public License as published by
   the Free Software Foundation, either version 3 of the License, or
   (at your option) any later version.
   
   xtb is distributed in the hope that it will be useful,
   but WITHOUT ANY WARRANTY; without even the implied warranty of
   MERCHANTABILITY or FITNESS FOR A PARTICULAR PURPOSE.  See the
   GNU Lesser General Public License for more details.
   
   Cite this work as:
   * C. Bannwarth, E. Caldeweyher, S. Ehlert, A. Hansen, P. Pracht,
     J. Seibert, S. Spicher, S. Grimme, WIREs Comput. Mol. Sci., 2020, 11,
     e01493. DOI: 10.1002/wcms.1493
   
   for GFN2-xTB:
   * C. Bannwarth, S. Ehlert and S. Grimme., J. Chem. Theory Comput., 2019,
     15, 1652-1671. DOI: 10.1021/acs.jctc.8b01176
   for GFN1-xTB:
   * S. Grimme, C. Bannwarth, P. Shushkov, J. Chem. Theory Comput., 2017,
     13, 1989-2009. DOI: 10.1021/acs.jctc.7b00118
   for GFN0-xTB:
   * P. Pracht, E. Caldeweyher, S. Ehlert, S. Grimme, ChemRxiv, 2019, preprint.
     DOI: 10.26434/chemrxiv.8326202.v1
   for GFN-FF:
   * S. Spicher and S. Grimme, Angew. Chem. Int. Ed., 2020, 59, 15665-15673.
     DOI: 10.1002/anie.202004239
   
   for ALPB and GBSA implicit solvation:
   * S. Ehlert, M. Stahn, S. Spicher, S. Grimme, J. Chem. Theory Comput.,
     2021, 17, 4250-4261. DOI: 10.1021/acs.jctc.1c00471
   
   for DFT-D4:
   * E. Caldeweyher, C. Bannwarth and S. Grimme, J. Chem. Phys., 2017,
     147, 034112. DOI: 10.1063/1.4993215
   * E. Caldeweyher, S. Ehlert, A. Hansen, H. Neugebauer, S. Spicher,
     C. Bannwarth and S. Grimme, J. Chem. Phys., 2019, 150, 154122.
     DOI: 10.1063/1.5090222
   * E. Caldeweyher, J.-M. Mewes, S. Ehlert and S. Grimme, Phys. Chem. Chem. Phys.
     2020, 22, 8499-8512. DOI: 10.1039/D0CP00502A
   
   for sTDA-xTB:
   * S. Grimme and C. Bannwarth, J. Chem. Phys., 2016, 145, 054103.
     DOI: 10.1063/1.4959605
   
   in the mass-spec context:
   * V. Asgeirsson, C. Bauer and S. Grimme, Chem. Sci., 2017, 8, 4879.
     DOI: 10.1039/c7sc00601b
   * J. Koopman and S. Grimme, ACS Omega 2019, 4, 12, 15120-15133.
     DOI: 10.1021/acsomega.9b02011
   
   for metadynamics refer to:
   * S. Grimme, J. Chem. Theory Comput., 2019, 155, 2847-2862
     DOI: 10.1021/acs.jctc.9b00143
   
   for SPH calculations refer to:
   * S. Spicher and S. Grimme, J. Chem. Theory Comput., 2021, 17, 1701-1714
     DOI: 10.1021/acs.jctc.0c01306
   
   with help from (in alphabetical order)
   P. Atkinson, C. Bannwarth, F. Bohle, G. Brandenburg, E. Caldeweyher
   M. Checinski, S. Dohm, S. Ehlert, S. Ehrlich, I. Gerasimov, C. Hölzer
   A. Katbashev, J. Koopman, C. Lavigne, S. Lehtola, F. März, M. Müller,
   F. Musil, H. Neugebauer, J. Pisarek, C. Plett, P. Pracht, F. Pultar,
   J. Seibert, P. Shushkov, S. Spicher, M. Stahn, M. Steiner, T. Strunk,
   J. Stückrath, T. Rose, and J. Unsleber
   
 * started run on 2022/07/30 at 03:34:06.154     

           -------------------------------------------------
          |                Calculation Setup                |
           -------------------------------------------------

          program call               : xtb Co_Ph3Me_C6_4.xyz --gfn 1 --opt -T 48
          hostname                   : cx3-15-15.cx3.hpc.ic.ac.uk
          coordinate file            : Co_Ph3Me_C6_4.xyz
          omp threads                :                     1

   ID    Z sym.   atoms
    1   27 Co     1, 75, 167, 240
    2    6 C      2-6, 8-20, 22-27, 29-42, 76-80, 82-94, 96-101, 103-116,
                  149-166, 168-172, 174-186, 188-193, 195-208, 241-245,
                  247-259, 261-266, 268-281
    3    7 N      7, 21, 28, 43, 81, 95, 102, 117, 173, 187, 194, 209, 246,
                  260, 267, 282
    4    1 H      44-74, 118-148, 210-239, 283-312

molecular fragmentation (1/2 indicates fragments):
111111111111111111111111111111111111111111111111111111111111111111111111
112222222222222222222222222222222222222222222222222222222222222222222222
222222222222222222222222222222222222222222222222222222222222222222222222
222222222222222222222222222222222222222222222222222222222222222222222222
222222222222222222222222
# atoms in fragment 1/2:    74   238
 fragment masses (1/2) :      602.61     2022.02
CMA distance (Bohr)    :  62.501
constraining FC (au)   :  0.0500
########################################################################
[WARNING] Please study the warnings concerning your input carefully
-1- prog_main_parseArguments: Unknown option '-T' provided
########################################################################

           -------------------------------------------------
          |                 G F N 1 - x T B                 |
           -------------------------------------------------

        Reference                      10.1021/acs.jctc.7b00118
      * Hamiltonian:
        H0-scaling (s, p, d)           1.850000    2.250000    2.000000
        zeta-weighting                 0.000000
      * Dispersion:
        s8                             2.400000
        a1                             0.630000
        a2                             5.000000
        s9                             0.000000
      * Repulsion:
        kExp                           1.500000
        rExp                           1.000000
      * Coulomb:
        alpha                          2.000000
        third order                    atomic
        anisotropic                    false
      * Halogen bond correction:
        rad-scale                      1.300000
        damping                        0.440000


          ...................................................
          :                      SETUP                      :
          :.................................................:
          :  # basis functions                1028          :
          :  # atomic orbitals                1024          :
          :  # shells                          628          :
          :  # electrons                       918          :
          :  # halogen bonds                     0          :
          :  max. iterations                   250          :
          :  Hamiltonian                  GFN1-xTB          :
          :  restarted?                      false          :
          :  GBSA solvation                  false          :
          :  PC potential                    false          :
          :  electronic temp.          300.0000000     K    :
          :  accuracy                    1.0000000          :
          :  -> integral cutoff          0.2500000E+02      :
          :  -> integral neglect         0.1000000E-07      :
          :  -> SCF convergence          0.1000000E-05 Eh   :
          :  -> wf. convergence          0.2000000E-04 e    :
          :  Broyden damping             0.4000000          :
          ...................................................

 iter      E             dE          RMSdq      gap      omega  full diag
   1   -495.0264317 -0.495026E+03  0.105E+01    0.18       0.0  T
   2   -446.1923237  0.488341E+02  0.994E+00    0.05       1.0  T
   3   -327.7451819  0.118447E+03  0.848E+00    0.02       1.0  T
   4   4019.8382706  0.434758E+04  0.191E+01    0.06       1.0  T
   5   4998.3938129  0.978556E+03  0.204E+01    0.10       1.0  T
   6   1318.9713623 -0.367942E+04  0.140E+01    0.03       1.0  T
   7   1543.2837676  0.224312E+03  0.138E+01    0.03       1.0  T
   8   -364.1069191 -0.190739E+04  0.649E+00    0.03       1.0  T
   9   -236.1235802  0.127983E+03  0.778E+00    0.12       1.0  T
  10   -421.8837453 -0.185760E+03  0.512E+00    0.05       1.0  T
  11   -415.0094582  0.687429E+01  0.514E+00    0.01       1.0  T
  12   -417.5619599 -0.255250E+01  0.499E+00    0.01       1.0  T
  13   -471.1816697 -0.536197E+02  0.386E+00    0.18       1.0  T
  14   -486.4826851 -0.153010E+02  0.350E+00    0.21       1.0  T
  15   -490.1158364 -0.363315E+01  0.331E+00    0.04       1.0  T
  16   -493.6801655 -0.356433E+01  0.296E+00    0.20       1.0  T
  17   -494.9131801 -0.123301E+01  0.269E+00    0.16       1.0  T
  18   -495.3470388 -0.433859E+00  0.265E+00    0.17       1.0  T
  19   -495.1969374  0.150101E+00  0.262E+00    0.03       1.0  T
  20   -494.8478781  0.349059E+00  0.248E+00    0.11       1.0  T
  21   -495.1799980 -0.332120E+00  0.242E+00    0.02       1.0  T
  22   -494.7956237  0.384374E+00  0.241E+00    0.17       1.0  T
  23   -492.8556405  0.193998E+01  0.239E+00    0.01       1.0  T
  24   -493.3844589 -0.528818E+00  0.231E+00    0.01       1.0  T
  25   -492.6011172  0.783342E+00  0.233E+00    0.05       1.0  T
  26   -492.6668242 -0.657071E-01  0.231E+00    0.01       1.0  T
  27   -494.8850247 -0.221820E+01  0.198E+00    0.03       1.0  T
  28   -493.9580788  0.926946E+00  0.192E+00    0.04       1.0  T
  29   -492.9903857  0.967693E+00  0.192E+00    0.03       1.0  T
  30   -495.0059309 -0.201555E+01  0.166E+00    0.03       1.0  T
  31   -492.8546820  0.215125E+01  0.176E+00    0.01       1.0  T
  32   -492.5206505  0.334032E+00  0.180E+00    0.03       1.0  T
  33   -492.4330537  0.875968E-01  0.182E+00    0.01       1.0  T
  34   -491.8681114  0.564942E+00  0.186E+00    0.03       1.0  T
  35   -491.9840283 -0.115917E+00  0.185E+00    0.02       1.0  T
  36   -493.5351542 -0.155113E+01  0.164E+00    0.01       1.0  T
  37   -493.9262119 -0.391058E+00  0.153E+00    0.01       1.0  T
  38   -493.8828050  0.434069E-01  0.153E+00    0.01       1.0  T
  39   -493.6080829  0.274722E+00  0.148E+00    0.00       1.0  T
  40   -491.0913658  0.251672E+01  0.143E+00    0.03       1.0  T
  41   -491.2363589 -0.144993E+00  0.130E+00    0.02       1.0  T
  42   -491.1725585  0.638004E-01  0.129E+00    0.02       1.0  T
  43   -491.9120258 -0.739467E+00  0.127E+00    0.02       1.0  T
  44   -490.1473128  0.176471E+01  0.144E+00    0.01       1.0  T
  45   -490.4078800 -0.260567E+00  0.142E+00    0.00       1.0  T
  46   -492.6186350 -0.221076E+01  0.117E+00    0.01       1.0  T
  47   -493.7331644 -0.111453E+01  0.104E+00    0.03       1.0  T
  48   -494.3065108 -0.573346E+00  0.926E-01    0.03       1.0  T
  49   -495.8629867 -0.155648E+01  0.694E-01    0.02       1.0  T
  50   -495.3269109  0.536076E+00  0.757E-01    0.01       1.0  T
  51   -493.1523610  0.217455E+01  0.209E+00    0.04       1.0  T
  52   -493.1069842  0.453767E-01  0.209E+00    0.03       1.0  T
  53   -493.7092022 -0.602218E+00  0.202E+00    0.19       1.0  T
  54   -493.4346935  0.274509E+00  0.221E+00    0.02       1.0  T
  55   -493.8059031 -0.371210E+00  0.209E+00    0.01       1.0  T
  56   -494.7596787 -0.953776E+00  0.176E+00    0.02       1.0  T
  57   -496.0482826 -0.128860E+01  0.134E+00    0.09       1.0  T
  58   -495.4969041  0.551379E+00  0.160E+00    0.04       1.0  T
  59   -496.2254852 -0.728581E+00  0.128E+00    0.03       1.0  T
  60   -496.3742130 -0.148728E+00  0.119E+00    0.01       1.0  T
  61   -496.3948893 -0.206762E-01  0.114E+00    0.01       1.0  T
  62   -496.1461464  0.248743E+00  0.126E+00    0.04       1.0  T
  63   -495.9292724  0.216874E+00  0.135E+00    0.03       1.0  T
  64   -496.1237972 -0.194525E+00  0.119E+00    0.02       1.0  T
  65   -496.2105264 -0.867293E-01  0.114E+00    0.02       1.0  T
  66   -496.3507430 -0.140217E+00  0.113E+00    0.03       1.0  T
  67   -496.5752919 -0.224549E+00  0.898E-01    0.02       1.0  T
  68   -496.7001318 -0.124840E+00  0.854E-01    0.02       1.0  T
  69   -496.8817388 -0.181607E+00  0.613E-01    0.01       1.0  T
  70   -496.7624199  0.119319E+00  0.758E-01    0.00       1.0  T
  71   -496.9073209 -0.144901E+00  0.554E-01    0.01       1.0  T
  72   -496.8751308  0.321902E-01  0.623E-01    0.00       1.0  T
  73   -496.9708876 -0.957569E-01  0.471E-01    0.00       1.0  T
  74   -496.9313457  0.395420E-01  0.535E-01    0.02       1.0  T
  75   -496.9356042 -0.425859E-02  0.530E-01    0.01       1.0  T
  76   -497.0564552 -0.120851E+00  0.325E-01    0.00       1.0  T
  77   -497.1356578 -0.792026E-01  0.238E-01    0.01       1.0  T
  78   -497.1274795  0.817822E-02  0.246E-01    0.02       1.0  T
  79   -497.1267761  0.703414E-03  0.274E-01    0.01       1.0  T
  80   -497.1305266 -0.375046E-02  0.253E-01    0.02       1.0  T
  81   -497.1202520  0.102746E-01  0.241E-01    0.02       1.0  T
  82   -497.1274463 -0.719434E-02  0.199E-01    0.00       1.0  T
  83   -497.1574932 -0.300469E-01  0.107E-01    0.01       1.0  T
  84   -497.1621830 -0.468973E-02  0.106E-01    0.00       1.0  T
  85   -497.1324894  0.296935E-01  0.206E-01    0.02       1.0  T
  86   -497.1660822 -0.335928E-01  0.976E-02    0.01       1.0  T
  87   -497.1627963  0.328591E-02  0.114E-01    0.01       1.0  T
  88   -497.1635560 -0.759694E-03  0.117E-01    0.01       1.0  T
  89   -497.1672496 -0.369365E-02  0.979E-02    0.00       1.0  T
  90   -497.1683758 -0.112620E-02  0.779E-02    0.01       1.0  T
  91   -497.1711829 -0.280713E-02  0.529E-02    0.00       1.0  T
  92   -497.1717777 -0.594768E-03  0.460E-02    0.00       1.0  T
  93   -497.1715104  0.267317E-03  0.460E-02    0.00       1.0  T
  94   -497.1707482  0.762167E-03  0.598E-02    0.00       1.0  T
  95   -497.1713048 -0.556573E-03  0.520E-02    0.00       1.0  T
  96   -497.1711845  0.120253E-03  0.523E-02    0.00       1.0  T
  97   -497.1717389 -0.554384E-03  0.443E-02    0.00       1.0  T
  98   -497.1719915 -0.252605E-03  0.410E-02    0.00       1.0  T
  99   -497.1720530 -0.614942E-04  0.390E-02    0.00       1.0  T
 100   -497.1721760 -0.122979E-03  0.363E-02    0.00       1.0  T
 101   -497.1721143  0.617226E-04  0.367E-02    0.00       1.0  T
 102   -497.1720092  0.105091E-03  0.381E-02    0.00       1.0  T
 103   -497.1725745 -0.565267E-03  0.280E-02    0.00       1.0  T
 104   -497.1728739 -0.299481E-03  0.208E-02    0.00       1.0  T
 105   -497.1729980 -0.124060E-03  0.163E-02    0.00       1.0  T
 106   -497.1730961 -0.981250E-04  0.116E-02    0.00       1.0  T
 107   -497.1730940  0.214580E-05  0.114E-02    0.00       1.0  T
 108   -497.1731166 -0.226166E-04  0.108E-02    0.00       1.0  T
 109   -497.1731345 -0.179184E-04  0.969E-03    0.00       1.0  T
 110   -497.1731638 -0.292686E-04  0.711E-03    0.00       1.0  T
 111   -497.1731701 -0.633533E-05  0.647E-03    0.00       1.0  T
 112   -497.1731740 -0.392403E-05  0.598E-03    0.00       1.0  T
 113   -497.1731813 -0.724038E-05  0.503E-03    0.00       1.1  T
 114   -497.1731859 -0.463474E-05  0.415E-03    0.00       1.4  T
 115   -497.1731871 -0.116408E-05  0.419E-03    0.00       1.4  T
 116   -497.1731908 -0.366917E-05  0.284E-03    0.00       2.0  T
 117   -497.1731930 -0.220609E-05  0.257E-03    0.00       2.2  T
 118   -497.1731928  0.196802E-06  0.297E-03    0.00       1.9  T
 119   -497.1731950 -0.225615E-05  0.227E-03    0.00       2.5  T
 120   -497.1731965 -0.144563E-05  0.185E-03    0.00       3.1  T
 121   -497.1731970 -0.541326E-06  0.168E-03    0.00       3.4  T
 122   -497.1731979 -0.877084E-06  0.129E-03    0.00       4.4  T
 123   -497.1731983 -0.407507E-06  0.116E-03    0.00       4.9  T
 124   -497.1731986 -0.351229E-06  0.101E-03    0.00       5.6  T
 125   -497.1731979  0.705554E-06  0.138E-03    0.00       4.1  T
 126   -497.1731985 -0.616301E-06  0.109E-03    0.00       5.2  T
 127   -497.1731992 -0.671796E-06  0.627E-04    0.00       9.0  T
 128   -497.1731993 -0.911647E-07  0.524E-04    0.00      10.8  T
 129   -497.1731994 -0.735959E-07  0.455E-04    0.00      12.4  T
 130   -497.1731995 -0.132207E-06  0.287E-04    0.00      19.7  T
 131   -497.1731996 -0.374268E-07  0.212E-04    0.00      26.8  T
 132   -497.1731996 -0.101263E-07  0.176E-04    0.00      32.1  T
 133   -497.1731996 -0.159093E-07  0.124E-04    0.00      45.7  T

   *** convergence criteria satisfied after 133 iterations ***

         #    Occupation            Energy/Eh            Energy/eV
      -------------------------------------------------------------
         1        2.0000           -0.7746450             -21.0792
       ...           ...                  ...                  ...
       453        2.0000           -0.3895325             -10.5997
       454        1.8312           -0.3799788             -10.3397
       455        1.7499           -0.3795619             -10.3284
       456        1.7038           -0.3793756             -10.3233
       457        1.7003           -0.3793628             -10.3230
       458        1.4117           -0.3785452             -10.3007
       459        1.3937           -0.3785044             -10.2996 (HOMO)
       460        1.3876           -0.3784908             -10.2993 (LUMO)
       461        0.8218           -0.3773714             -10.2688
       462        0.0000           -0.3628840              -9.8746
       463        0.0000           -0.3624095              -9.8617
       464                         -0.3411212              -9.2824
       ...                                ...                  ...
      1024                          1.5311020              41.6634
      -------------------------------------------------------------
                  HL-Gap            0.0000136 Eh            0.0004 eV
             Fermi-level           -0.3777136 Eh          -10.2781 eV

 SCC (total)                   0 d,  0 h,  1 min,  7.358 sec
 SCC setup                      ...        0 min,  0.028 sec (  0.042%)
 Dispersion                     ...        0 min,  0.017 sec (  0.024%)
 classical contributions        ...        0 min,  0.005 sec (  0.008%)
 integral evaluation            ...        0 min,  0.436 sec (  0.647%)
 iterations                     ...        1 min,  5.824 sec ( 97.723%)
 molecular gradient             ...        0 min,  0.961 sec (  1.427%)
 printout                       ...        0 min,  0.087 sec (  0.129%)

         :::::::::::::::::::::::::::::::::::::::::::::::::::::
         ::                     SUMMARY                     ::
         :::::::::::::::::::::::::::::::::::::::::::::::::::::
         :: total energy            -489.411313768109 Eh    ::
         :: gradient norm              0.558735840556 Eh/a0 ::
         :: HOMO-LUMO gap              0.000370460205 eV    ::
         ::.................................................::
         :: SCC energy              -497.173199581949 Eh    ::
         :: -> electrostatic           0.226695653349 Eh    ::
         :: repulsion energy           8.037830543331 Eh    ::
         :: dispersion energy         -0.275944729491 Eh    ::
         :: halogen bond corr.         0.000000000000 Eh    ::
         :: add. restraining           0.000000000000 Eh    ::
         :: total charge              -0.000000000000 e     ::
         :::::::::::::::::::::::::::::::::::::::::::::::::::::

      ----------------------------------------------------------- 
     |                   =====================                   |
     |                        A N C O P T                        |
     |                   =====================                   |
     |               Approximate Normal Coordinate               |
     |                Rational Function Optimizer                |
      ----------------------------------------------------------- 

          ...................................................
          :                      SETUP                      :
          :.................................................:
          :   optimization level            normal          :
          :   max. optcycles                   936          :
          :   ANC micro-cycles                  20          :
          :   degrees of freedom               930          :
          :.................................................:
          :   RF solver                   davidson          :
          :   write xtbopt.log                true          :
          :   linear?                        false          :
          :   energy convergence         0.5000000E-05 Eh   :
          :   grad. convergence          0.1000000E-02 Eh/α :
          :   maximium RF displ.         1.0000000          :
          :   Hlow (freq-cutoff)         0.1000000E-01      :
          :   Hmax (freq-cutoff)         5.0000000          :
          :   S6 in model hess.         20.0000000          :
          ...................................................

generating ANC from model Hessian ...
Using Lindh-Hessian (1995)
 Shifting diagonal of input Hessian by    1.0036497138693416E-002
 Lowest  eigenvalues of input Hessian
    0.010000    0.010001    0.010011    0.010020    0.010021    0.010025
    0.010027    0.010028    0.010030    0.010031    0.010034    0.000000
    0.000000    0.000000    0.000000    0.000000    0.000000    0.010039
 Highest eigenvalues
    2.461226    2.501577    2.613496    2.807954    2.832064    2.857796


........................................................................
.............................. CYCLE    1 ..............................
........................................................................
   1   -497.1731995 -0.497173E+03  0.337E-04    0.00       0.0  T
   2   -497.1723639  0.835582E-03  0.299E-02    0.00       1.0  T
   3   -497.1731984 -0.834505E-03  0.116E-03    0.00       4.9  T
   4   -497.1731741  0.243040E-04  0.551E-03    0.00       1.0  T
   5   -497.1731944 -0.202587E-04  0.247E-03    0.00       2.3  T
   6   -497.1731975 -0.311779E-05  0.152E-03    0.00       3.7  T
   7   -497.1731991 -0.164155E-05  0.736E-04    0.00       7.7  T
   8   -497.1731987  0.460357E-06  0.101E-03    0.00       5.6  T
   9   -497.1731996 -0.924574E-06  0.840E-05    0.00      67.4  T
  10   -497.1731996  0.265612E-07  0.191E-04    0.00      29.6  T
     SCC iter.                  ...        0 min,  4.941 sec
     gradient                   ...        0 min,  0.965 sec
 * total energy  :  -489.4113138 Eh     change        0.1504094E-07 Eh
   gradient norm :     0.5587339 Eh/α   predicted     0.0000000E+00 (-100.00%)
   displ. norm   :     0.4674027 α      lambda       -0.1918348E+00
   maximum displ.:     0.1257219 α      in ANC's #521, #523, #346, ...

........................................................................
.............................. CYCLE    2 ..............................
........................................................................
   1   -497.2194222 -0.497219E+03  0.195E-01    0.00       0.0  T
   2   -496.6511453  0.568277E+00  0.903E-01    0.07       1.0  T
   3   -496.3801701  0.270975E+00  0.978E-01    0.04       1.0  T
   4   -496.7961243 -0.415954E+00  0.687E-01    0.02       1.0  T
   5   -495.5167242  0.127940E+01  0.133E+00    0.11       1.0  T
   6   -496.8785341 -0.136181E+01  0.625E-01    0.02       1.0  T
   7   -496.1768955  0.701639E+00  0.111E+00    0.05       1.0  T
   8   -496.3470401 -0.170145E+00  0.994E-01    0.06       1.0  T
   9   -496.7648471 -0.417807E+00  0.712E-01    0.01       1.0  T
  10   -496.9506623 -0.185815E+00  0.566E-01    0.02       1.0  T
  11   -497.1767041 -0.226042E+00  0.264E-01    0.01       1.0  T
  12   -497.0957369  0.809672E-01  0.397E-01    0.03       1.0  T
  13   -497.2216585 -0.125922E+00  0.152E-01    0.01       1.0  T
  14   -497.1913251  0.303334E-01  0.238E-01    0.01       1.0  T
  15   -497.2016539 -0.103288E-01  0.203E-01    0.01       1.0  T
  16   -497.2377365 -0.360826E-01  0.418E-02    0.00       1.0  T
  17   -497.2381054 -0.368926E-03  0.324E-02    0.00       1.0  T
  18   -497.2384789 -0.373465E-03  0.270E-02    0.00       1.0  T
  19   -497.2390134 -0.534505E-03  0.989E-03    0.00       1.0  T
  20   -497.2390262 -0.128229E-04  0.888E-03    0.00       1.0  T
  21   -497.2390902 -0.640158E-04  0.201E-03    0.00       2.8  T
  22   -497.2390920 -0.174854E-05  0.134E-03    0.00       4.2  T
  23   -497.2390918  0.147587E-06  0.138E-03    0.00       4.1  T
  24   -497.2390931 -0.128031E-05  0.593E-04    0.00       9.5  T
  25   -497.2390933 -0.204009E-06  0.347E-04    0.00      16.3  T
  26   -497.2390934 -0.980679E-07  0.488E-05    0.00     116.0  T
  27   -497.2390934  0.409102E-09  0.540E-05    0.00     104.8  T
     SCC iter.                  ...        0 min, 13.319 sec
     gradient                   ...        0 min,  0.962 sec
 * total energy  :  -489.5623869 Eh     change       -0.1510732E+00 Eh
   gradient norm :     0.3222258 Eh/α   predicted    -0.1169182E+00 ( -22.61%)
   displ. norm   :     0.5439370 α      lambda       -0.1339231E+00
   maximum displ.:     0.0953565 α      in ANC's #274, #521, #346, ...

........................................................................
.............................. CYCLE    3 ..............................
........................................................................
   1   -497.3312548 -0.497331E+03  0.151E-01    0.00       0.0  T
   2   -496.3867194  0.944535E+00  0.104E+00    0.12       1.0  T
   3   -496.2242821  0.162437E+00  0.112E+00    0.07       1.0  T
   4   -496.4692727 -0.244991E+00  0.102E+00    0.12       1.0  T
   5   -496.5995065 -0.130234E+00  0.925E-01    0.01       1.0  T
   6   -496.9745685 -0.375062E+00  0.657E-01    0.02       1.0  T
   7   -497.2753965 -0.300828E+00  0.287E-01    0.01       1.0  T
   8   -497.1807794  0.946171E-01  0.434E-01    0.02       1.0  T
   9   -497.2536043 -0.728249E-01  0.319E-01    0.02       1.0  T
  10   -497.0870647  0.166540E+00  0.562E-01    0.01       1.0  T
  11   -497.2427271 -0.155662E+00  0.354E-01    0.00       1.0  T
  12   -497.2884794 -0.457522E-01  0.274E-01    0.01       1.0  T
  13   -497.3244183 -0.359390E-01  0.159E-01    0.00       1.0  T
  14   -497.3338129 -0.939458E-02  0.114E-01    0.00       1.0  T
  15   -497.3375247 -0.371176E-02  0.947E-02    0.01       1.0  T
  16   -497.3445562 -0.703153E-02  0.217E-02    0.00       1.0  T
  17   -497.3447487 -0.192467E-03  0.143E-02    0.00       1.0  T
  18   -497.3449037 -0.155011E-03  0.342E-03    0.00       1.7  T
  19   -497.3448715  0.321745E-04  0.710E-03    0.00       1.0  T
  20   -497.3449104 -0.388524E-04  0.178E-03    0.00       3.2  T
  21   -497.3449102  0.135088E-06  0.184E-03    0.00       3.1  T
  22   -497.3449121 -0.186747E-05  0.997E-04    0.00       5.7  T
  23   -497.3449128 -0.701874E-06  0.364E-04    0.00      15.5  T
  24   -497.3449129 -0.102377E-06  0.748E-05    0.00      75.7  T
  25   -497.3449129 -0.472818E-08  0.149E-05    0.00     379.0  T
     SCC iter.                  ...        0 min, 12.317 sec
     gradient                   ...        0 min,  0.971 sec
 * total energy  :  -489.6528784 Eh     change       -0.9049148E-01 Eh
   gradient norm :     0.1109067 Eh/α   predicted    -0.8677328E-01 (  -4.11%)
   displ. norm   :     0.6740669 α      lambda       -0.4527624E-01
   maximum displ.:     0.2253866 α      in ANC's #68, #75, #180, ...

........................................................................
.............................. CYCLE    4 ..............................
........................................................................
   1   -497.4126608 -0.497413E+03  0.859E-02    0.00       0.0  T
   2   -496.7309825  0.681678E+00  0.899E-01    0.03       1.0  T
   3   -496.9486200 -0.217637E+00  0.741E-01    0.05       1.0  T
   4   -497.2357807 -0.287161E+00  0.500E-01    0.00       1.0  T
   5   -497.3967062 -0.160926E+00  0.162E-01    0.00       1.0  T
   6   -497.1052076  0.291499E+00  0.612E-01    0.03       1.0  T
   7   -497.3783021 -0.273094E+00  0.218E-01    0.01       1.0  T
   8   -497.3592869  0.190152E-01  0.264E-01    0.01       1.0  T
   9   -497.3341092  0.251777E-01  0.312E-01    0.00       1.0  T
  10   -497.3410072 -0.689801E-02  0.299E-01    0.02       1.0  T
  11   -497.3803474 -0.393402E-01  0.219E-01    0.00       1.0  T
  12   -497.3772779  0.306947E-02  0.222E-01    0.00       1.0  T
  13   -497.4177143 -0.404364E-01  0.124E-02    0.00       1.0  T
  14   -497.4156879  0.202647E-02  0.506E-02    0.00       1.0  T
  15   -497.4177006 -0.201276E-02  0.110E-02    0.00       1.0  T
  16   -497.4177782 -0.775636E-04  0.545E-03    0.00       1.0  T
  17   -497.4177958 -0.175839E-04  0.248E-03    0.00       2.3  T
  18   -497.4177996 -0.377116E-05  0.135E-03    0.00       4.2  T
  19   -497.4178011 -0.149580E-05  0.309E-04    0.00      18.3  T
  20   -497.4178011 -0.680715E-07  0.141E-04    0.00      40.1  T
  21   -497.4178011 -0.130437E-07  0.727E-05    0.00      77.8  T
     SCC iter.                  ...        0 min, 10.370 sec
     gradient                   ...        0 min,  0.966 sec
 * total energy  :  -489.6897303 Eh     change       -0.3685189E-01 Eh
   gradient norm :     0.0713659 Eh/α   predicted    -0.3292415E-01 ( -10.66%)
   displ. norm   :     0.8394429 α      lambda       -0.3854466E-01
   maximum displ.:     0.3178888 α      in ANC's #68, #75, #180, ...

........................................................................
.............................. CYCLE    5 ..............................
........................................................................
   1   -497.4410374 -0.497441E+03  0.987E-02    0.00       0.0  T
   2   -496.8726395  0.568398E+00  0.813E-01    0.04       1.0  T
   3   -497.2658139 -0.393174E+00  0.520E-01    0.00       1.0  T
   4   -497.2829226 -0.171087E-01  0.442E-01    0.03       1.0  T
   5   -497.3750312 -0.921086E-01  0.311E-01    0.01       1.0  T
   6   -497.1263708  0.248660E+00  0.643E-01    0.04       1.0  T
   7   -497.4333652 -0.306994E+00  0.131E-01    0.01       1.0  T
   8   -497.3334931  0.998722E-01  0.369E-01    0.01       1.0  T
   9   -497.3394167 -0.592362E-02  0.356E-01    0.00       1.0  T
  10   -497.3996199 -0.602032E-01  0.239E-01    0.00       1.0  T
  11   -497.4410334 -0.414135E-01  0.867E-02    0.00       1.0  T
  12   -497.4469163 -0.588294E-02  0.123E-02    0.00       1.0  T
  13   -497.4469447 -0.283899E-04  0.111E-02    0.00       1.0  T
  14   -497.4470322 -0.875602E-04  0.443E-03    0.00       1.3  T
  15   -497.4470348 -0.254589E-05  0.405E-03    0.00       1.4  T
  16   -497.4470443 -0.953140E-05  0.208E-03    0.00       2.7  T
  17   -497.4470476 -0.330805E-05  0.521E-04    0.00      10.9  T
  18   -497.4470478 -0.135675E-06  0.329E-04    0.00      17.2  T
  19   -497.4470478 -0.661570E-07  0.167E-04    0.00      34.0  T
  20   -497.4470478 -0.157691E-07  0.925E-05    0.00      61.2  T
     SCC iter.                  ...        0 min,  9.861 sec
     gradient                   ...        0 min,  0.968 sec
 * total energy  :  -489.7268877 Eh     change       -0.3715739E-01 Eh
   gradient norm :     0.0762727 Eh/α   predicted    -0.3285288E-01 ( -11.58%)
   displ. norm   :     0.9490224 α      lambda       -0.4500808E-01
   maximum displ.:     0.3540656 α      in ANC's #68, #75, #180, ...

........................................................................
.............................. CYCLE    6 ..............................
........................................................................
   1   -497.4469925 -0.497447E+03  0.996E-02    0.00       0.0  T
   2   -496.9214602  0.525532E+00  0.769E-01    0.02       1.0  T
   3   -496.8114139  0.110046E+00  0.895E-01    0.10       1.0  T
   4   -497.3066832 -0.495269E+00  0.426E-01    0.02       1.0  T
   5   -497.2801943  0.264889E-01  0.456E-01    0.03       1.0  T
   6   -497.0498932  0.230301E+00  0.709E-01    0.05       1.0  T
   7   -497.4356881 -0.385795E+00  0.149E-01    0.00       1.0  T
   8   -497.4439796 -0.829142E-02  0.101E-01    0.01       1.0  T
   9   -497.4433701  0.609414E-03  0.102E-01    0.00       1.0  T
  10   -497.4459914 -0.262121E-02  0.897E-02    0.00       1.0  T
  11   -497.4503261 -0.433477E-02  0.469E-02    0.00       1.0  T
  12   -497.4507786 -0.452477E-03  0.412E-02    0.00       1.0  T
  13   -497.4519768 -0.119821E-02  0.136E-02    0.00       1.0  T
  14   -497.4520175 -0.407271E-04  0.115E-02    0.00       1.0  T
  15   -497.4521059 -0.883438E-04  0.502E-03    0.00       1.1  T
  16   -497.4521245 -0.185771E-04  0.150E-03    0.00       3.8  T
  17   -497.4521261 -0.165811E-05  0.400E-04    0.00      14.2  T
  18   -497.4521261 -0.383503E-07  0.356E-04    0.00      15.9  T
  19   -497.4521262 -0.352119E-07  0.281E-04    0.00      20.2  T
  20   -497.4521262 -0.598204E-07  0.557E-05    0.00     101.7  T
  21   -497.4521262 -0.109048E-08  0.417E-05    0.00     135.7  T
     SCC iter.                  ...        0 min, 10.352 sec
     gradient                   ...        0 min,  0.964 sec
 * total energy  :  -489.7713922 Eh     change       -0.4450446E-01 Eh
   gradient norm :     0.0905898 Eh/α   predicted    -0.4277221E-01 (  -3.89%)
   displ. norm   :     0.9269350 α      lambda       -0.4932380E-01
   maximum displ.:     0.3178260 α      in ANC's #68, #75, #180, ...

........................................................................
.............................. CYCLE    7 ..............................
........................................................................
   1   -497.4267389 -0.497427E+03  0.994E-02    0.00       0.0  T
   2   -497.1601639  0.266575E+00  0.700E-01    0.04       1.0  T
   3   -496.8992655  0.260898E+00  0.814E-01    0.08       1.0  T
   4   -496.8289449  0.703206E-01  0.853E-01    0.05       1.0  T
   5   -497.3413687 -0.512424E+00  0.322E-01    0.02       1.0  T
   6   -496.9358584  0.405510E+00  0.771E-01    0.06       1.0  T
   7   -497.3358286 -0.399970E+00  0.343E-01    0.01       1.0  T
   8   -497.1963122  0.139516E+00  0.522E-01    0.02       1.0  T
   9   -497.3917388 -0.195427E+00  0.219E-01    0.01       1.0  T
  10   -497.3790622  0.126766E-01  0.253E-01    0.01       1.0  T
  11   -497.4197112 -0.406490E-01  0.111E-01    0.01       1.0  T
  12   -497.4228744 -0.316322E-02  0.927E-02    0.01       1.0  T
  13   -497.4279188 -0.504441E-02  0.533E-02    0.00       1.0  T
  14   -497.4300641 -0.214530E-02  0.176E-02    0.00       1.0  T
  15   -497.4302799 -0.215834E-03  0.632E-03    0.00       1.0  T
  16   -497.4303102 -0.302083E-04  0.196E-03    0.00       2.9  T
  17   -497.4303118 -0.169355E-05  0.129E-03    0.00       4.4  T
  18   -497.4303131 -0.128456E-05  0.318E-04    0.00      17.8  T
  19   -497.4303131 -0.618144E-08  0.275E-04    0.00      20.6  T
  20   -497.4303132 -0.356156E-07  0.186E-04    0.00      30.4  T
  21   -497.4303132 -0.200525E-07  0.997E-05    0.00      56.8  T
     SCC iter.                  ...        0 min, 10.365 sec
     gradient                   ...        0 min,  0.967 sec
 * total energy  :  -489.8142717 Eh     change       -0.4287958E-01 Eh
   gradient norm :     0.1103124 Eh/α   predicted    -0.4585164E-01 (   6.93%)
   displ. norm   :     0.9100810 α      lambda       -0.3806272E-01
   maximum displ.:     0.4077631 α      in ANC's #68, #75, #17, ...

........................................................................
.............................. CYCLE    8 ..............................
........................................................................
   1   -497.4474996 -0.497447E+03  0.482E-02    0.00       0.0  T
   2   -496.7207945  0.726705E+00  0.942E-01    0.11       1.0  T
   3   -497.3035780 -0.582783E+00  0.409E-01    0.02       1.0  T
   4   -497.2590852  0.444927E-01  0.475E-01    0.01       1.0  T
   5   -497.3928354 -0.133750E+00  0.267E-01    0.01       1.0  T
   6   -497.3397719  0.530635E-01  0.371E-01    0.01       1.0  T
   7   -497.4449698 -0.105198E+00  0.675E-02    0.00       1.0  T
   8   -497.4384194  0.655041E-02  0.111E-01    0.00       1.0  T
   9   -497.4474757 -0.905633E-02  0.371E-02    0.00       1.0  T
  10   -497.4485279 -0.105219E-02  0.804E-03    0.00       1.0  T
  11   -497.4485423 -0.143666E-04  0.721E-03    0.00       1.0  T
  12   -497.4485825 -0.402552E-04  0.184E-03    0.00       3.1  T
  13   -497.4485774  0.515262E-05  0.312E-03    0.00       1.8  T
  14   -497.4485851 -0.775196E-05  0.632E-04    0.00       9.0  T
  15   -497.4485852 -0.565911E-07  0.576E-04    0.00       9.8  T
  16   -497.4485854 -0.273975E-06  0.359E-05    0.00     157.8  T
  17   -497.4485854  0.358096E-08  0.748E-05    0.00      75.7  T
     SCC iter.                  ...        0 min,  8.406 sec
     gradient                   ...        0 min,  0.968 sec
 * total energy  :  -489.8434011 Eh     change       -0.2912939E-01 Eh
   gradient norm :     0.1129001 Eh/α   predicted    -0.3479405E-01 (  19.45%)
   displ. norm   :     0.6583283 α      lambda       -0.3352522E-01
   maximum displ.:     0.2827523 α      in ANC's #68, #75, #17, ...

........................................................................
.............................. CYCLE    9 ..............................
........................................................................
   1   -497.4603487 -0.497460E+03  0.846E-02    0.00       0.0  T
   2   -496.5990789  0.861270E+00  0.104E+00    0.22       1.0  T
   3   -497.0002953 -0.401216E+00  0.722E-01    0.05       1.0  T
   4   -497.1460988 -0.145804E+00  0.611E-01    0.00       1.0  T
   5   -497.3895338 -0.243435E+00  0.291E-01    0.00       1.0  T
   6   -497.2454205  0.144113E+00  0.505E-01    0.01       1.0  T
   7   -497.4501655 -0.204745E+00  0.135E-01    0.01       1.0  T
   8   -497.3187511  0.131414E+00  0.418E-01    0.04       1.0  T
   9   -497.3516197 -0.328686E-01  0.369E-01    0.04       1.0  T
  10   -497.4599271 -0.108307E+00  0.761E-02    0.00       1.0  T
  11   -497.4609537 -0.102658E-02  0.651E-02    0.00       1.0  T
  12   -497.4642603 -0.330658E-02  0.804E-03    0.00       1.0  T
  13   -497.4641959  0.644007E-04  0.117E-02    0.00       1.0  T
  14   -497.4642199 -0.239870E-04  0.104E-02    0.00       1.0  T
  15   -497.4642687 -0.488748E-04  0.682E-03    0.00       1.0  T
  16   -497.4643048 -0.360688E-04  0.170E-03    0.00       3.3  T
  17   -497.4643032  0.156957E-05  0.216E-03    0.00       2.6  T
  18   -497.4643064 -0.319531E-05  0.810E-04    0.00       7.0  T
  19   -497.4643070 -0.526619E-06  0.252E-05    0.00     224.3  T
  20   -497.4643069  0.100439E-07  0.114E-04    0.00      49.5  T
     SCC iter.                  ...        0 min,  9.863 sec
     gradient                   ...        0 min,  0.967 sec
 * total energy  :  -489.8673910 Eh     change       -0.2398985E-01 Eh
   gradient norm :     0.0791179 Eh/α   predicted    -0.2402747E-01 (   0.16%)
   displ. norm   :     0.7440239 α      lambda       -0.3383972E-01
   maximum displ.:     0.3430820 α      in ANC's #68, #75, #17, ...

........................................................................
.............................. CYCLE   10 ..............................
........................................................................
   1   -497.5187178 -0.497519E+03  0.533E-02    0.00       0.0  T
   2   -496.9549391  0.563779E+00  0.824E-01    0.08       1.0  T
   3   -497.2148631 -0.259924E+00  0.612E-01    0.04       1.0  T
   4   -497.1675457  0.473174E-01  0.649E-01    0.02       1.0  T
   5   -497.3035394 -0.135994E+00  0.504E-01    0.03       1.0  T
   6   -497.4095747 -0.106035E+00  0.372E-01    0.03       1.0  T
   7   -497.4983031 -0.887284E-01  0.157E-01    0.01       1.0  T
   8   -497.5074339 -0.913077E-02  0.122E-01    0.00       1.0  T
   9   -497.5170158 -0.958192E-02  0.579E-02    0.01       1.0  T
  10   -497.5152447  0.177109E-02  0.736E-02    0.01       1.0  T
  11   -497.5161928 -0.948108E-03  0.664E-02    0.00       1.0  T
  12   -497.5185488 -0.235595E-02  0.407E-02    0.00       1.0  T
  13   -497.5196303 -0.108150E-02  0.198E-02    0.00       1.0  T
  14   -497.5199282 -0.297885E-03  0.714E-03    0.00       1.0  T
  15   -497.5199715 -0.433262E-04  0.773E-04    0.00       7.3  T
  16   -497.5199719 -0.449788E-06  0.287E-04    0.00      19.7  T
  17   -497.5199720 -0.410076E-07  0.171E-04    0.00      33.2  T
  18   -497.5199720 -0.171162E-07  0.851E-05    0.00      66.5  T
     SCC iter.                  ...        0 min,  8.870 sec
     gradient                   ...        0 min,  0.972 sec
 * total energy  :  -489.8881482 Eh     change       -0.2075723E-01 Eh
   gradient norm :     0.0801892 Eh/α   predicted    -0.2628622E-01 (  26.64%)
   displ. norm   :     0.8083340 α      lambda       -0.2505130E-01
   maximum displ.:     0.3704607 α      in ANC's #68, #17, #75, ...

........................................................................
.............................. CYCLE   11 ..............................
........................................................................
   1   -497.5628130 -0.497563E+03  0.981E-02    0.01       0.0  T
   2   -496.5690779  0.993735E+00  0.116E+00    0.24       1.0  T
   3   -497.3810137 -0.811936E+00  0.477E-01    0.01       1.0  T
   4   -497.4807661 -0.997524E-01  0.330E-01    0.03       1.0  T
   5   -497.4519953  0.287708E-01  0.387E-01    0.02       1.0  T
   6   -497.1151073  0.336888E+00  0.735E-01    0.09       1.0  T
   7   -497.2756600 -0.160553E+00  0.596E-01    0.07       1.0  T
   8   -497.2680064  0.765364E-02  0.597E-01    0.06       1.0  T
   9   -497.5451510 -0.277145E+00  0.170E-01    0.01       1.0  T
  10   -497.4982805  0.468705E-01  0.291E-01    0.02       1.0  T
  11   -497.5678730 -0.695925E-01  0.497E-02    0.00       1.0  T
  12   -497.5694941 -0.162107E-02  0.231E-02    0.00       1.0  T
  13   -497.5695977 -0.103608E-03  0.204E-02    0.00       1.0  T
  14   -497.5699247 -0.326926E-03  0.502E-03    0.00       1.1  T
  15   -497.5699458 -0.211571E-04  0.537E-04    0.00      10.6  T
  16   -497.5699452  0.631145E-06  0.994E-04    0.00       5.7  T
  17   -497.5699459 -0.757959E-06  0.320E-04    0.00      17.7  T
  18   -497.5699460 -0.773575E-07  0.874E-05    0.00      64.8  T
  19   -497.5699459  0.131782E-06  0.405E-04    0.00      14.0  T
  20   -497.5699460 -0.999538E-07  0.213E-04    0.00      26.6  T
  21   -497.5699460 -0.381234E-07  0.144E-05    0.00     393.5  T
     SCC iter.                  ...        0 min, 10.342 sec
     gradient                   ...        0 min,  0.971 sec
 * total energy  :  -489.9065545 Eh     change       -0.1840627E-01 Eh
   gradient norm :     0.0660852 Eh/α   predicted    -0.2070995E-01 (  12.52%)
   displ. norm   :     0.7987042 α      lambda       -0.2843671E-01
   maximum displ.:     0.3778022 α      in ANC's #68, #17, #75, ...

........................................................................
.............................. CYCLE   12 ..............................
........................................................................
   1   -497.5701062 -0.497570E+03  0.606E-02    0.01       0.0  T
   2   -496.6856192  0.884487E+00  0.107E+00    0.15       1.0  T
   3   -497.2019446 -0.516325E+00  0.651E-01    0.03       1.0  T
   4   -497.3014361 -0.994915E-01  0.563E-01    0.05       1.0  T
   5   -497.4703238 -0.168888E+00  0.352E-01    0.03       1.0  T
   6   -497.2401204  0.230203E+00  0.624E-01    0.02       1.0  T
   7   -497.1512273  0.888931E-01  0.710E-01    0.09       1.0  T
   8   -497.2427664 -0.915391E-01  0.630E-01    0.07       1.0  T
   9   -497.5710742 -0.328308E+00  0.540E-02    0.00       1.0  T
  10   -497.5717171 -0.642903E-03  0.438E-02    0.00       1.0  T
  11   -497.5727601 -0.104296E-02  0.261E-02    0.00       1.0  T
  12   -497.5729853 -0.225224E-03  0.207E-02    0.00       1.0  T
  13   -497.5731969 -0.211537E-03  0.144E-02    0.00       1.0  T
  14   -497.5733591 -0.162255E-03  0.163E-03    0.00       3.5  T
  15   -497.5733307  0.284135E-04  0.600E-03    0.00       1.0  T
  16   -497.5733609 -0.302233E-04  0.666E-04    0.00       8.5  T
  17   -497.5733610 -0.348326E-07  0.682E-04    0.00       8.3  T
  18   -497.5733610 -0.479908E-07  0.571E-04    0.00       9.9  T
  19   -497.5733611 -0.123129E-06  0.439E-04    0.00      12.9  T
  20   -497.5733613 -0.159241E-06  0.112E-04    0.00      50.7  T
  21   -497.5733613  0.624993E-08  0.141E-04    0.00      40.1  T
     SCC iter.                  ...        0 min, 10.344 sec
     gradient                   ...        0 min,  0.973 sec
 * total energy  :  -489.9196021 Eh     change       -0.1304762E-01 Eh
   gradient norm :     0.0969876 Eh/α   predicted    -0.2328865E-01 (  78.49%)
   displ. norm   :     0.6474118 α      lambda       -0.2287322E-01
   maximum displ.:     0.2746834 α      in ANC's #17, #68, #75, ...

........................................................................
.............................. CYCLE   13 ..............................
........................................................................
   1   -497.6132976 -0.497613E+03  0.555E-02    0.01       0.0  T
   2   -496.7312027  0.882095E+00  0.107E+00    0.21       1.0  T
   3   -497.4590380 -0.727835E+00  0.428E-01    0.04       1.0  T
   4   -497.4069069  0.521312E-01  0.512E-01    0.05       1.0  T
   5   -497.5906480 -0.183741E+00  0.167E-01    0.00       1.0  T
   6   -497.3169066  0.273741E+00  0.590E-01    0.06       1.0  T
   7   -497.6128028 -0.295896E+00  0.539E-02    0.00       1.0  T
   8   -497.5805747  0.322282E-01  0.204E-01    0.02       1.0  T
   9   -497.6036810 -0.231064E-01  0.115E-01    0.01       1.0  T
  10   -497.6006793  0.300177E-02  0.131E-01    0.02       1.0  T
  11   -497.6070648 -0.638554E-02  0.974E-02    0.01       1.0  T
  12   -497.6132916 -0.622683E-02  0.458E-02    0.01       1.0  T
  13   -497.6149173 -0.162567E-02  0.123E-02    0.00       1.0  T
  14   -497.6150367 -0.119389E-03  0.298E-03    0.00       1.9  T
  15   -497.6150436 -0.688957E-05  0.838E-04    0.00       6.8  T
  16   -497.6150440 -0.386711E-06  0.513E-04    0.00      11.0  T
  17   -497.6150440  0.176299E-07  0.536E-04    0.00      10.6  T
  18   -497.6150441 -0.168824E-06  0.297E-04    0.00      19.0  T
  19   -497.6150442 -0.711254E-07  0.608E-05    0.00      93.2  T
  20   -497.6150442 -0.285922E-08  0.166E-05    0.00     341.5  T
     SCC iter.                  ...        0 min,  9.861 sec
     gradient                   ...        0 min,  0.974 sec
 * total energy  :  -489.9367234 Eh     change       -0.1712133E-01 Eh
   gradient norm :     0.0350089 Eh/α   predicted    -0.1623019E-01 (  -5.20%)
   displ. norm   :     0.8529670 α      lambda       -0.1619616E-01
   maximum displ.:     0.4106596 α      in ANC's #17, #68, #75, ...

........................................................................
.............................. CYCLE   14 ..............................
........................................................................
   1   -497.6449534 -0.497645E+03  0.583E-02    0.01       0.0  T
   2   -496.7428856  0.902068E+00  0.109E+00    0.23       1.0  T
   3   -497.4141835 -0.671298E+00  0.525E-01    0.00       1.0  T
   4   -497.6433330 -0.229150E+00  0.710E-02    0.00       1.0  T
   5   -497.5067634  0.136570E+00  0.407E-01    0.02       1.0  T
   6   -497.5940614 -0.872980E-01  0.249E-01    0.00       1.0  T
   7   -497.5872562  0.680529E-02  0.267E-01    0.02       1.0  T
   8   -497.5133150  0.739412E-01  0.401E-01    0.03       1.0  T
   9   -497.6172829 -0.103968E+00  0.191E-01    0.02       1.0  T
  10   -497.6372398 -0.199569E-01  0.110E-01    0.01       1.0  T
  11   -497.6468576 -0.961785E-02  0.248E-02    0.00       1.0  T
  12   -497.6471799 -0.322315E-03  0.152E-02    0.00       1.0  T
  13   -497.6473427 -0.162768E-03  0.605E-03    0.00       1.0  T
  14   -497.6473551 -0.124446E-04  0.470E-03    0.00       1.2  T
  15   -497.6473734 -0.182213E-04  0.107E-03    0.00       5.3  T
  16   -497.6473735 -0.983319E-07  0.102E-03    0.00       5.5  T
  17   -497.6473742 -0.791736E-06  0.322E-04    0.00      17.6  T
  18   -497.6473743 -0.810987E-07  0.928E-05    0.00      61.0  T
  19   -497.6473743 -0.203516E-08  0.787E-05    0.00      71.9  T
     SCC iter.                  ...        0 min,  9.366 sec
     gradient                   ...        0 min,  0.972 sec
 * total energy  :  -489.9505232 Eh     change       -0.1379971E-01 Eh
   gradient norm :     0.0329587 Eh/α   predicted    -0.1398988E-01 (   1.38%)
   displ. norm   :     0.9049332 α      lambda       -0.1564122E-01
   maximum displ.:     0.4394902 α      in ANC's #17, #68, #49, ...

........................................................................
.............................. CYCLE   15 ..............................
........................................................................
   1   -497.6746316 -0.497675E+03  0.769E-02    0.01       0.0  T
   2   -496.7291722  0.945459E+00  0.112E+00    0.21       1.0  T
   3   -497.3964742 -0.667302E+00  0.571E-01    0.04       1.0  T
   4   -497.6544855 -0.258011E+00  0.171E-01    0.00       1.0  T
   5   -497.5112621  0.143223E+00  0.460E-01    0.02       1.0  T
   6   -497.6706821 -0.159420E+00  0.112E-01    0.01       1.0  T
   7   -497.6218823  0.487998E-01  0.260E-01    0.02       1.0  T
   8   -497.5394998  0.823825E-01  0.409E-01    0.03       1.0  T
   9   -497.6545677 -0.115068E+00  0.171E-01    0.02       1.0  T
  10   -497.6714777 -0.169100E-01  0.942E-02    0.01       1.0  T
  11   -497.6784621 -0.698441E-02  0.225E-02    0.00       1.0  T
  12   -497.6788832 -0.421048E-03  0.494E-03    0.00       1.1  T
  13   -497.6788651  0.180538E-04  0.667E-03    0.00       1.0  T
  14   -497.6788703 -0.514626E-05  0.624E-03    0.00       1.0  T
  15   -497.6789025 -0.321751E-04  0.799E-04    0.00       7.1  T
  16   -497.6789027 -0.226875E-06  0.609E-04    0.00       9.3  T
  17   -497.6789028 -0.130037E-06  0.463E-04    0.00      12.2  T
  18   -497.6789029 -0.121230E-06  0.258E-04    0.00      21.9  T
  19   -497.6789030 -0.550452E-07  0.272E-05    0.00     208.2  T
  20   -497.6789030  0.134230E-08  0.488E-05    0.00     116.1  T
     SCC iter.                  ...        0 min,  9.863 sec
     gradient                   ...        0 min,  0.971 sec
 * total energy  :  -489.9634284 Eh     change       -0.1290524E-01 Eh
   gradient norm :     0.0299398 Eh/α   predicted    -0.1422495E-01 (  10.23%)
   displ. norm   :     0.8828408 α      lambda       -0.1367520E-01
   maximum displ.:     0.4553774 α      in ANC's #17, #49, #68, ...

........................................................................
.............................. CYCLE   16 ..............................
........................................................................
   1   -497.7052693 -0.497705E+03  0.431E-02    0.00       0.0  T
   2   -496.8821875  0.823082E+00  0.103E+00    0.15       1.0  T
   3   -497.3113764 -0.429189E+00  0.672E-01    0.04       1.0  T
   4   -497.6555927 -0.344216E+00  0.245E-01    0.00       1.0  T
   5   -497.5955837  0.600090E-01  0.371E-01    0.00       1.0  T
   6   -497.6637151 -0.681314E-01  0.220E-01    0.00       1.0  T
   7   -497.6826180 -0.189029E-01  0.164E-01    0.01       1.0  T
   8   -497.6759111  0.670693E-02  0.187E-01    0.01       1.0  T
   9   -497.7055889 -0.296778E-01  0.338E-02    0.00       1.0  T
  10   -497.7046973  0.891641E-03  0.471E-02    0.00       1.0  T
  11   -497.7045525  0.144747E-03  0.490E-02    0.00       1.0  T
  12   -497.7062656 -0.171310E-02  0.188E-02    0.00       1.0  T
  13   -497.7064394 -0.173741E-03  0.121E-02    0.00       1.0  T
  14   -497.7065500 -0.110610E-03  0.439E-03    0.00       1.3  T
  15   -497.7065657 -0.157533E-04  0.120E-03    0.00       4.7  T
  16   -497.7065666 -0.920710E-06  0.628E-04    0.00       9.0  T
  17   -497.7065669 -0.307101E-06  0.155E-04    0.00      36.6  T
  18   -497.7065670 -0.115036E-07  0.966E-05    0.00      58.6  T
     SCC iter.                  ...        0 min,  8.873 sec
     gradient                   ...        0 min,  0.973 sec
 * total energy  :  -489.9733015 Eh     change       -0.9873074E-02 Eh
   gradient norm :     0.0355097 Eh/α   predicted    -0.1216689E-01 (  23.23%)
   displ. norm   :     0.8133356 α      lambda       -0.1364076E-01
   maximum displ.:     0.4520000 α      in ANC's #17, #49, #68, ...

........................................................................
.............................. CYCLE   17 ..............................
........................................................................
   1   -497.7391390 -0.497739E+03  0.163E-02    0.00       0.0  T
   2   -497.5347899  0.204349E+00  0.506E-01    0.05       1.0  T
   3   -497.7207887 -0.185999E+00  0.152E-01    0.01       1.0  T
   4   -497.7077660  0.130227E-01  0.202E-01    0.01       1.0  T
   5   -497.7131282 -0.536215E-02  0.175E-01    0.01       1.0  T
   6   -497.7288862 -0.157580E-01  0.111E-01    0.00       1.0  T
   7   -497.7359639 -0.707773E-02  0.621E-02    0.00       1.0  T
   8   -497.7342037  0.176021E-02  0.766E-02    0.00       1.0  T
   9   -497.7386409 -0.443720E-02  0.277E-02    0.00       1.0  T
  10   -497.7391617 -0.520783E-03  0.117E-02    0.00       1.0  T
  11   -497.7392321 -0.704533E-04  0.714E-03    0.00       1.0  T
  12   -497.7392721 -0.399401E-04  0.154E-03    0.00       3.7  T
  13   -497.7392735 -0.148832E-05  0.808E-04    0.00       7.0  T
  14   -497.7392739 -0.343402E-06  0.493E-04    0.00      11.5  T
  15   -497.7392740 -0.995165E-07  0.328E-04    0.00      17.2  T
  16   -497.7392741 -0.821966E-07  0.108E-04    0.00      52.4  T
  17   -497.7392741 -0.769899E-08  0.451E-05    0.00     125.5  T
     SCC iter.                  ...        0 min,  8.384 sec
     gradient                   ...        0 min,  0.977 sec
 * total energy  :  -489.9828970 Eh     change       -0.9595570E-02 Eh
   gradient norm :     0.0230328 Eh/α   predicted    -0.1133217E-01 (  18.10%)
   displ. norm   :     0.8441220 α      lambda       -0.1020782E-01
   maximum displ.:     0.4695027 α      in ANC's #17, #49, #36, ...

........................................................................
.............................. CYCLE   18 ..............................
........................................................................
   1   -497.7720809 -0.497772E+03  0.127E-02    0.00       0.0  T
   2   -497.6078088  0.164272E+00  0.453E-01    0.04       1.0  T
   3   -497.7713016 -0.163493E+00  0.404E-02    0.00       1.0  T
   4   -497.7586839  0.126178E-01  0.124E-01    0.01       1.0  T
   5   -497.7698378 -0.111539E-01  0.553E-02    0.00       1.0  T
   6   -497.7633499  0.648783E-02  0.103E-01    0.01       1.0  T
   7   -497.7706233 -0.727336E-02  0.417E-02    0.00       1.0  T
   8   -497.7703532  0.270130E-03  0.453E-02    0.00       1.0  T
   9   -497.7719999 -0.164674E-02  0.138E-02    0.00       1.0  T
  10   -497.7721414 -0.141532E-03  0.468E-03    0.00       1.2  T
  11   -497.7721539 -0.124871E-04  0.279E-03    0.00       2.0  T
  12   -497.7721606 -0.666955E-05  0.230E-04    0.00      24.6  T
  13   -497.7721606  0.200938E-07  0.274E-04    0.00      20.7  T
  14   -497.7721606 -0.546005E-07  0.115E-04    0.00      49.4  T
  15   -497.7721606 -0.100761E-07  0.238E-05    0.00     237.7  T
     SCC iter.                  ...        0 min,  7.402 sec
     gradient                   ...        0 min,  0.979 sec
 * total energy  :  -489.9899105 Eh     change       -0.7013431E-02 Eh
   gradient norm :     0.0316446 Eh/α   predicted    -0.8740663E-02 (  24.63%)
   displ. norm   :     0.7993546 α      lambda       -0.1072558E-01
   maximum displ.:     0.4887926 α      in ANC's #17, #49, #36, ...

........................................................................
.............................. CYCLE   19 ..............................
........................................................................
   1   -497.8039943 -0.497804E+03  0.177E-02    0.00       0.0  T
   2   -497.4545699  0.349424E+00  0.635E-01    0.03       1.0  T
   3   -497.7705167 -0.315947E+00  0.202E-01    0.01       1.0  T
   4   -497.7177950  0.527217E-01  0.324E-01    0.01       1.0  T
   5   -497.7784697 -0.606747E-01  0.175E-01    0.01       1.0  T
   6   -497.7393110  0.391587E-01  0.276E-01    0.02       1.0  T
   7   -497.7936131 -0.543021E-01  0.109E-01    0.01       1.0  T
   8   -497.7601775  0.334356E-01  0.223E-01    0.01       1.0  T
   9   -497.7980745 -0.378970E-01  0.828E-02    0.01       1.0  T
  10   -497.8000430 -0.196852E-02  0.686E-02    0.00       1.0  T
  11   -497.8037849 -0.374183E-02  0.221E-02    0.00       1.0  T
  12   -497.8041677 -0.382856E-03  0.591E-03    0.00       1.0  T
  13   -497.8041945 -0.267961E-04  0.218E-03    0.00       2.6  T
  14   -497.8041960 -0.148241E-05  0.170E-03    0.00       3.3  T
  15   -497.8041983 -0.233541E-05  0.277E-04    0.00      20.4  T
  16   -497.8041983 -0.128528E-07  0.247E-04    0.00      23.0  T
  17   -497.8041984 -0.430528E-07  0.793E-05    0.00      71.4  T
  18   -497.8041984 -0.185963E-08  0.657E-05    0.00      86.2  T
     SCC iter.                  ...        0 min,  8.876 sec
     gradient                   ...        0 min,  0.978 sec
 * total energy  :  -489.9972978 Eh     change       -0.7387308E-02 Eh
   gradient norm :     0.0275651 Eh/α   predicted    -0.8789451E-02 (  18.98%)
   displ. norm   :     0.8150545 α      lambda       -0.7606766E-02
   maximum displ.:     0.5173289 α      in ANC's #17, #36, #31, ...

........................................................................
.............................. CYCLE   20 ..............................
........................................................................
   1   -497.8301631 -0.497830E+03  0.924E-03    0.00       0.0  T
   2   -497.6488323  0.181331E+00  0.468E-01    0.03       1.0  T
   3   -497.8300397 -0.181207E+00  0.152E-02    0.00       1.0  T
   4   -497.7586043  0.714354E-01  0.295E-01    0.01       1.0  T
   5   -497.8264687 -0.678645E-01  0.657E-02    0.00       1.0  T
   6   -497.8263766  0.921207E-04  0.691E-02    0.00       1.0  T
   7   -497.8296083 -0.323169E-02  0.258E-02    0.00       1.0  T
   8   -497.8284421  0.116625E-02  0.450E-02    0.00       1.0  T
   9   -497.8301462 -0.170416E-02  0.875E-03    0.00       1.0  T
  10   -497.8301782 -0.319681E-04  0.621E-03    0.00       1.0  T
  11   -497.8301914 -0.132226E-04  0.479E-03    0.00       1.2  T
  12   -497.8302102 -0.187917E-04  0.972E-04    0.00       5.8  T
  13   -497.8302109 -0.730400E-06  0.349E-04    0.00      16.2  T
  14   -497.8302110 -0.100945E-06  0.368E-05    0.00     153.9  T
  15   -497.8302110  0.343420E-08  0.738E-05    0.00      76.7  T
     SCC iter.                  ...        0 min,  7.368 sec
     gradient                   ...        0 min,  0.978 sec
 * total energy  :  -490.0038232 Eh     change       -0.6525468E-02 Eh
   gradient norm :     0.0173973 Eh/α   predicted    -0.6330029E-02 (  -3.00%)
   displ. norm   :     0.8592332 α      lambda       -0.7441335E-02
   maximum displ.:     0.5595202 α      in ANC's #17, #36, #31, ...
 * RMSD in coord.:     0.7025288 α      energy gain  -0.5925095E+00 Eh

generating ANC from model Hessian ...
Using Lindh-Hessian (1995)
 Shifting diagonal of input Hessian by    1.0032452951629876E-002
 Lowest  eigenvalues of input Hessian
    0.010000    0.010005    0.010012    0.010018    0.010023    0.010023
    0.010025    0.010025    0.010026    0.000000    0.000000    0.000000
    0.000000    0.000000    0.000000    0.010036    0.010040    0.010043
 Highest eigenvalues
    2.478000    2.479017    2.490017    2.781265    2.783763    2.790778


........................................................................
.............................. CYCLE   21 ..............................
........................................................................
   1   -497.8535538 -0.497854E+03  0.307E-02    0.00       0.0  T
   2   -497.1491893  0.704365E+00  0.921E-01    0.09       1.0  T
   3   -497.7779158 -0.628727E+00  0.294E-01    0.01       1.0  T
   4   -497.8377491 -0.598332E-01  0.136E-01    0.00       1.0  T
   5   -497.7699932  0.677559E-01  0.318E-01    0.02       1.0  T
   6   -497.8232283 -0.532352E-01  0.192E-01    0.01       1.0  T
   7   -497.8492668 -0.260384E-01  0.747E-02    0.00       1.0  T
   8   -497.8467237  0.254305E-02  0.941E-02    0.00       1.0  T
   9   -497.8532876 -0.656384E-02  0.334E-02    0.00       1.0  T
  10   -497.8490772  0.421032E-02  0.783E-02    0.00       1.0  T
  11   -497.8534834 -0.440618E-02  0.291E-02    0.00       1.0  T
  12   -497.8539573 -0.473909E-03  0.184E-02    0.00       1.0  T
  13   -497.8542223 -0.264965E-03  0.425E-03    0.00       1.3  T
  14   -497.8542327 -0.104325E-04  0.256E-03    0.00       2.2  T
  15   -497.8542383 -0.556528E-05  0.236E-04    0.00      24.0  T
  16   -497.8542382  0.799454E-07  0.395E-04    0.00      14.3  T
  17   -497.8542383 -0.105210E-06  0.169E-04    0.00      33.4  T
  18   -497.8542383 -0.136734E-07  0.112E-04    0.00      50.5  T
     SCC iter.                  ...        0 min,  8.889 sec
     gradient                   ...        0 min,  0.978 sec
 * total energy  :  -490.0091741 Eh     change       -0.5350891E-02 Eh
   gradient norm :     0.0291496 Eh/α   predicted     0.0000000E+00 (-100.00%)
   displ. norm   :     0.4771651 α      lambda       -0.4291380E-02
   maximum displ.:     0.2351030 α      in ANC's #38, #39, #20, ...

........................................................................
.............................. CYCLE   22 ..............................
........................................................................
   1   -497.8681824 -0.497868E+03  0.559E-03    0.00       0.0  T
   2   -497.8117724  0.564100E-01  0.258E-01    0.00       1.0  T
   3   -497.8655993 -0.538269E-01  0.564E-02    0.00       1.0  T
   4   -497.8509770  0.146223E-01  0.143E-01    0.00       1.0  T
   5   -497.8660334 -0.150564E-01  0.513E-02    0.00       1.0  T
   6   -497.8659555  0.779393E-04  0.519E-02    0.00       1.0  T
   7   -497.8679048 -0.194929E-02  0.193E-02    0.00       1.0  T
   8   -497.8674714  0.433414E-03  0.288E-02    0.00       1.0  T
   9   -497.8681282 -0.656814E-03  0.971E-03    0.00       1.0  T
  10   -497.8681672 -0.390409E-04  0.658E-03    0.00       1.0  T
  11   -497.8681939 -0.267120E-04  0.344E-03    0.00       1.6  T
  12   -497.8682024 -0.846740E-05  0.137E-03    0.00       4.1  T
  13   -497.8682040 -0.163276E-05  0.169E-04    0.00      33.5  T
  14   -497.8682041 -0.139163E-07  0.117E-04    0.00      48.5  T
  15   -497.8682041 -0.836422E-08  0.598E-05    0.00      94.7  T
     SCC iter.                  ...        0 min,  7.404 sec
     gradient                   ...        0 min,  0.979 sec
 * total energy  :  -490.0130796 Eh     change       -0.3905440E-02 Eh
   gradient norm :     0.0159475 Eh/α   predicted    -0.2635074E-02 ( -32.53%)
   displ. norm   :     0.8358287 α      lambda       -0.6450826E-02
   maximum displ.:     0.4174264 α      in ANC's #38, #20, #39, ...

........................................................................
.............................. CYCLE   23 ..............................
........................................................................
   1   -497.8886051 -0.497889E+03  0.925E-03    0.00       0.0  T
   2   -497.7588419  0.129763E+00  0.390E-01    0.01       1.0  T
   3   -497.8837109 -0.124869E+00  0.759E-02    0.00       1.0  T
   4   -497.8585121  0.251988E-01  0.190E-01    0.01       1.0  T
   5   -497.8867856 -0.282735E-01  0.509E-02    0.00       1.0  T
   6   -497.8529241  0.338616E-01  0.210E-01    0.00       1.0  T
   7   -497.8881509 -0.352268E-01  0.241E-02    0.00       1.0  T
   8   -497.8869502  0.120065E-02  0.445E-02    0.00       1.0  T
   9   -497.8884589 -0.150867E-02  0.161E-02    0.00       1.0  T
  10   -497.8886186 -0.159742E-03  0.737E-03    0.00       1.0  T
  11   -497.8886474 -0.288120E-04  0.436E-03    0.00       1.3  T
  12   -497.8886608 -0.133528E-04  0.164E-03    0.00       3.5  T
  13   -497.8886631 -0.228805E-05  0.334E-04    0.00      17.0  T
  14   -497.8886631 -0.123031E-07  0.319E-04    0.00      17.7  T
  15   -497.8886632 -0.811488E-07  0.651E-05    0.00      87.0  T
  16   -497.8886632 -0.119684E-08  0.514E-05    0.00     110.2  T
     SCC iter.                  ...        0 min,  7.904 sec
     gradient                   ...        0 min,  0.973 sec
 * total energy  :  -490.0183859 Eh     change       -0.5306346E-02 Eh
   gradient norm :     0.0168175 Eh/α   predicted    -0.5478720E-02 (   3.25%)
   displ. norm   :     0.8624161 α      lambda       -0.6351361E-02
   maximum displ.:     0.4201486 α      in ANC's #38, #20, #39, ...

........................................................................
.............................. CYCLE   24 ..............................
........................................................................
   1   -497.9052493 -0.497905E+03  0.107E-02    0.00       0.0  T
   2   -497.6036407  0.301609E+00  0.603E-01    0.07       1.0  T
   3   -497.9044734 -0.300833E+00  0.346E-02    0.00       1.0  T
   4   -497.8779310  0.265424E-01  0.187E-01    0.02       1.0  T
   5   -497.8964499 -0.185189E-01  0.105E-01    0.01       1.0  T
   6   -497.8532725  0.431773E-01  0.244E-01    0.02       1.0  T
   7   -497.9042881 -0.510155E-01  0.347E-02    0.00       1.0  T
   8   -497.9040526  0.235450E-03  0.389E-02    0.00       1.0  T
   9   -497.9051184 -0.106581E-02  0.164E-02    0.00       1.0  T
  10   -497.9052752 -0.156768E-03  0.848E-03    0.00       1.0  T
  11   -497.9053181 -0.428975E-04  0.459E-03    0.00       1.2  T
  12   -497.9053286 -0.104756E-04  0.284E-03    0.00       2.0  T
  13   -497.9053352 -0.660425E-05  0.756E-04    0.00       7.5  T
  14   -497.9053356 -0.488483E-06  0.157E-04    0.00      36.1  T
  15   -497.9053357 -0.177457E-07  0.659E-05    0.00      85.9  T
     SCC iter.                  ...        0 min,  7.416 sec
     gradient                   ...        0 min,  0.979 sec
 * total energy  :  -490.0229575 Eh     change       -0.4571625E-02 Eh
   gradient norm :     0.0294889 Eh/α   predicted    -0.5537632E-02 (  21.13%)
   displ. norm   :     0.7866330 α      lambda       -0.5985520E-02
   maximum displ.:     0.3835287 α      in ANC's #38, #20, #39, ...

........................................................................
.............................. CYCLE   25 ..............................
........................................................................
   1   -497.9208510 -0.497921E+03  0.959E-03    0.00       0.0  T
   2   -497.5996755  0.321176E+00  0.622E-01    0.06       1.0  T
   3   -497.9179856 -0.318310E+00  0.584E-02    0.00       1.0  T
   4   -497.9067381  0.112474E-01  0.130E-01    0.01       1.0  T
   5   -497.9128135 -0.607534E-02  0.986E-02    0.01       1.0  T
   6   -497.9026012  0.102123E-01  0.151E-01    0.01       1.0  T
   7   -497.9198864 -0.172852E-01  0.360E-02    0.00       1.0  T
   8   -497.9195001  0.386222E-03  0.408E-02    0.00       1.0  T
   9   -497.9207078 -0.120768E-02  0.161E-02    0.00       1.0  T
  10   -497.9208399 -0.132062E-03  0.101E-02    0.00       1.0  T
  11   -497.9209187 -0.788501E-04  0.357E-03    0.00       1.6  T
  12   -497.9209279 -0.913881E-05  0.165E-03    0.00       3.4  T
  13   -497.9209301 -0.222332E-05  0.201E-04    0.00      28.1  T
  14   -497.9209301  0.158258E-07  0.243E-04    0.00      23.3  T
  15   -497.9209301 -0.471730E-07  0.768E-05    0.00      73.7  T
  16   -497.9209301 -0.248019E-08  0.530E-05    0.00     106.7  T
     SCC iter.                  ...        0 min,  7.911 sec
     gradient                   ...        0 min,  0.989 sec
 * total energy  :  -490.0274293 Eh     change       -0.4471774E-02 Eh
   gradient norm :     0.0292804 Eh/α   predicted    -0.4844658E-02 (   8.34%)
   displ. norm   :     0.7698829 α      lambda       -0.5847359E-02
   maximum displ.:     0.3919770 α      in ANC's #38, #20, #39, ...

........................................................................
.............................. CYCLE   26 ..............................
........................................................................
   1   -497.9354023 -0.497935E+03  0.809E-03    0.00       0.0  T
   2   -497.7039401  0.231462E+00  0.526E-01    0.05       1.0  T
   3   -497.9267144 -0.222774E+00  0.101E-01    0.01       1.0  T
   4   -497.9149692  0.117451E-01  0.158E-01    0.00       1.0  T
   5   -497.9327339 -0.177647E-01  0.564E-02    0.00       1.0  T
   6   -497.9168510  0.158829E-01  0.150E-01    0.00       1.0  T
   7   -497.9321458 -0.152948E-01  0.625E-02    0.00       1.0  T
   8   -497.9322315 -0.857198E-04  0.609E-02    0.00       1.0  T
   9   -497.9353494 -0.311785E-02  0.118E-02    0.00       1.0  T
  10   -497.9353397  0.974329E-05  0.121E-02    0.00       1.0  T
  11   -497.9354566 -0.116969E-03  0.352E-03    0.00       1.6  T
  12   -497.9354569 -0.230977E-06  0.342E-03    0.00       1.7  T
  13   -497.9354662 -0.936868E-05  0.990E-04    0.00       5.7  T
  14   -497.9354670 -0.792281E-06  0.310E-04    0.00      18.2  T
  15   -497.9354671 -0.770029E-07  0.860E-05    0.00      65.8  T
  16   -497.9354671 -0.358290E-08  0.571E-05    0.00      99.1  T
     SCC iter.                  ...        0 min,  7.915 sec
     gradient                   ...        0 min,  0.983 sec
 * total energy  :  -490.0320534 Eh     change       -0.4624067E-02 Eh
   gradient norm :     0.0199685 Eh/α   predicted    -0.4656604E-02 (   0.70%)
   displ. norm   :     0.8240112 α      lambda       -0.5517864E-02
   maximum displ.:     0.4173372 α      in ANC's #38, #20, #39, ...

........................................................................
.............................. CYCLE   27 ..............................
........................................................................
   1   -497.9499782 -0.497950E+03  0.750E-03    0.00       0.0  T
   2   -497.8439056  0.106073E+00  0.357E-01    0.02       1.0  T
   3   -497.9477097 -0.103804E+00  0.561E-02    0.00       1.0  T
   4   -497.9261603  0.215494E-01  0.171E-01    0.00       1.0  T
   5   -497.9488687 -0.227084E-01  0.371E-02    0.00       1.0  T
   6   -497.9165554  0.323133E-01  0.200E-01    0.00       1.0  T
   7   -497.9480437 -0.314883E-01  0.481E-02    0.00       1.0  T
   8   -497.9479190  0.124643E-03  0.489E-02    0.00       1.0  T
   9   -497.9499734 -0.205437E-02  0.771E-03    0.00       1.0  T
  10   -497.9499426  0.307817E-04  0.966E-03    0.00       1.0  T
  11   -497.9500120 -0.694259E-04  0.338E-03    0.00       1.7  T
  12   -497.9500121 -0.808092E-07  0.325E-03    0.00       1.7  T
  13   -497.9500204 -0.825730E-05  0.111E-03    0.00       5.1  T
  14   -497.9500214 -0.107884E-05  0.193E-04    0.00      29.3  T
  15   -497.9500215 -0.298427E-07  0.522E-05    0.00     108.4  T
  16   -497.9500215 -0.976797E-09  0.417E-05    0.00     135.8  T
     SCC iter.                  ...        0 min,  7.918 sec
     gradient                   ...        0 min,  0.984 sec
 * total energy  :  -490.0365335 Eh     change       -0.4480091E-02 Eh
   gradient norm :     0.0144158 Eh/α   predicted    -0.4632244E-02 (   3.40%)
   displ. norm   :     0.8707264 α      lambda       -0.5044051E-02
   maximum displ.:     0.4415227 α      in ANC's #20, #39, #38, ...

........................................................................
.............................. CYCLE   28 ..............................
........................................................................
   1   -497.9630937 -0.497963E+03  0.890E-03    0.00       0.0  T
   2   -497.8471691  0.115925E+00  0.370E-01    0.02       1.0  T
   3   -497.9616165 -0.114447E+00  0.545E-02    0.00       1.0  T
   4   -497.9491749  0.124416E-01  0.132E-01    0.00       1.0  T
   5   -497.9624618 -0.132869E-01  0.288E-02    0.00       1.0  T
   6   -497.9201751  0.422867E-01  0.227E-01    0.00       1.0  T
   7   -497.9624323 -0.422572E-01  0.294E-02    0.00       1.0  T
   8   -497.9623751  0.572667E-04  0.296E-02    0.00       1.0  T
   9   -497.9630923 -0.717211E-03  0.812E-03    0.00       1.0  T
  10   -497.9630986 -0.629580E-05  0.748E-03    0.00       1.0  T
  11   -497.9631420 -0.434222E-04  0.243E-03    0.00       2.3  T
  12   -497.9631421 -0.673952E-07  0.240E-03    0.00       2.4  T
  13   -497.9631467 -0.462696E-05  0.710E-04    0.00       8.0  T
  14   -497.9631470 -0.360681E-06  0.311E-04    0.00      18.2  T
  15   -497.9631471 -0.838207E-07  0.148E-05    0.00     382.4  T
  16   -497.9631471  0.146827E-09  0.192E-05    0.00     295.1  T
     SCC iter.                  ...        0 min,  7.909 sec
     gradient                   ...        0 min,  0.990 sec
 * total energy  :  -490.0408263 Eh     change       -0.4292854E-02 Eh
   gradient norm :     0.0116110 Eh/α   predicted    -0.4434137E-02 (   3.29%)
   displ. norm   :     0.8880558 α      lambda       -0.5019653E-02
   maximum displ.:     0.4815208 α      in ANC's #38, #20, #39, ...

........................................................................
.............................. CYCLE   29 ..............................
........................................................................
   1   -497.9759914 -0.497976E+03  0.878E-03    0.00       0.0  T
   2   -497.8171005  0.158891E+00  0.433E-01    0.02       1.0  T
   3   -497.9745664 -0.157466E+00  0.485E-02    0.00       1.0  T
   4   -497.9676747  0.689164E-02  0.104E-01    0.00       1.0  T
   5   -497.9743409 -0.666613E-02  0.465E-02    0.00       1.0  T
   6   -497.9747417 -0.400848E-03  0.393E-02    0.00       1.0  T
   7   -497.9747694 -0.276851E-04  0.397E-02    0.00       1.0  T
   8   -497.9758021 -0.103268E-02  0.169E-02    0.00       1.0  T
   9   -497.9758868 -0.847318E-04  0.137E-02    0.00       1.0  T
  10   -497.9759969 -0.110074E-03  0.765E-03    0.00       1.0  T
  11   -497.9760285 -0.315968E-04  0.469E-03    0.00       1.2  T
  12   -497.9760438 -0.152991E-04  0.220E-03    0.00       2.6  T
  13   -497.9760479 -0.407672E-05  0.530E-04    0.00      10.7  T
  14   -497.9760481 -0.245444E-06  0.913E-05    0.00      62.0  T
  15   -497.9760481 -0.370397E-08  0.598E-05    0.00      94.7  T
     SCC iter.                  ...        0 min,  7.421 sec
     gradient                   ...        0 min,  0.991 sec
 * total energy  :  -490.0445516 Eh     change       -0.3725266E-02 Eh
   gradient norm :     0.0140590 Eh/α   predicted    -0.4489182E-02 (  20.51%)
   displ. norm   :     0.8373065 α      lambda       -0.4601978E-02
   maximum displ.:     0.4337507 α      in ANC's #20, #38, #39, ...

........................................................................
.............................. CYCLE   30 ..............................
........................................................................
   1   -497.9912412 -0.497991E+03  0.951E-03    0.00       0.0  T
   2   -497.7524507  0.238791E+00  0.535E-01    0.04       1.0  T
   3   -497.9821718 -0.229721E+00  0.107E-01    0.00       1.0  T
   4   -497.9636238  0.185479E-01  0.185E-01    0.00       1.0  T
   5   -497.9890310 -0.254071E-01  0.524E-02    0.00       1.0  T
   6   -497.9479663  0.410647E-01  0.226E-01    0.01       1.0  T
   7   -497.9875177 -0.395514E-01  0.675E-02    0.00       1.0  T
   8   -497.9866745  0.843182E-03  0.739E-02    0.00       1.0  T
   9   -497.9903507 -0.367620E-02  0.335E-02    0.00       1.0  T
  10   -497.9911962 -0.845495E-03  0.120E-02    0.00       1.0  T
  11   -497.9912950 -0.987678E-04  0.560E-03    0.00       1.0  T
  12   -497.9913123 -0.173440E-04  0.355E-03    0.00       1.6  T
  13   -497.9913214 -0.902579E-05  0.139E-03    0.00       4.1  T
  14   -497.9913227 -0.128495E-05  0.694E-04    0.00       8.2  T
  15   -497.9913230 -0.388641E-06  0.169E-04    0.00      33.6  T
  16   -497.9913231 -0.238359E-07  0.360E-05    0.00     157.2  T
     SCC iter.                  ...        0 min,  7.900 sec
     gradient                   ...        0 min,  0.987 sec
 * total energy  :  -490.0484466 Eh     change       -0.3895005E-02 Eh
   gradient norm :     0.0113292 Eh/α   predicted    -0.3914179E-02 (   0.49%)
   displ. norm   :     0.8716752 α      lambda       -0.4442873E-02
   maximum displ.:     0.4645554 α      in ANC's #39, #20, #38, ...

........................................................................
.............................. CYCLE   31 ..............................
........................................................................
   1   -498.0047893 -0.498005E+03  0.107E-02    0.00       0.0  T
   2   -497.7834469  0.221342E+00  0.516E-01    0.02       1.0  T
   3   -497.9950600 -0.211613E+00  0.114E-01    0.01       1.0  T
   4   -497.9801809  0.148791E-01  0.173E-01    0.00       1.0  T
   5   -498.0004374 -0.202566E-01  0.751E-02    0.01       1.0  T
   6   -497.9819473  0.184901E-01  0.163E-01    0.01       1.0  T
   7   -497.9996847 -0.177375E-01  0.784E-02    0.00       1.0  T
   8   -498.0007125 -0.102780E-02  0.699E-02    0.00       1.0  T
   9   -498.0038837 -0.317117E-02  0.338E-02    0.00       1.0  T
  10   -498.0047308 -0.847030E-03  0.133E-02    0.00       1.0  T
  11   -498.0048699 -0.139179E-03  0.486E-03    0.00       1.2  T
  12   -498.0048886 -0.187106E-04  0.820E-04    0.00       6.9  T
  13   -498.0048890 -0.313198E-06  0.502E-04    0.00      11.3  T
  14   -498.0048890 -0.102989E-07  0.476E-04    0.00      11.9  T
  15   -498.0048891 -0.169832E-06  0.113E-04    0.00      49.9  T
  16   -498.0048891 -0.955765E-08  0.334E-05    0.00     169.7  T
     SCC iter.                  ...        0 min,  7.900 sec
     gradient                   ...        0 min,  0.986 sec
 * total energy  :  -490.0514856 Eh     change       -0.3039004E-02 Eh
   gradient norm :     0.0135356 Eh/α   predicted    -0.3909328E-02 (  28.64%)
   displ. norm   :     0.8052235 α      lambda       -0.4190520E-02
   maximum displ.:     0.4411599 α      in ANC's #38, #20, #39, ...

........................................................................
.............................. CYCLE   32 ..............................
........................................................................
   1   -498.0201751 -0.498020E+03  0.102E-02    0.00       0.0  T
   2   -497.8094618  0.210713E+00  0.500E-01    0.00       1.0  T
   3   -498.0073321 -0.197870E+00  0.127E-01    0.00       1.0  T
   4   -497.9803634  0.269688E-01  0.217E-01    0.01       1.0  T
   5   -498.0132176 -0.328542E-01  0.928E-02    0.00       1.0  T
   6   -497.9999435  0.132741E-01  0.156E-01    0.00       1.0  T
   7   -498.0077247 -0.778124E-02  0.120E-01    0.01       1.0  T
   8   -498.0142961 -0.657139E-02  0.825E-02    0.01       1.0  T
   9   -498.0193161 -0.502000E-02  0.325E-02    0.00       1.0  T
  10   -498.0200425 -0.726349E-03  0.161E-02    0.00       1.0  T
  11   -498.0202332 -0.190704E-03  0.667E-03    0.00       1.0  T
  12   -498.0202673 -0.340856E-04  0.201E-03    0.00       2.8  T
  13   -498.0202700 -0.272917E-05  0.869E-04    0.00       6.5  T
  14   -498.0202698  0.144237E-06  0.951E-04    0.00       6.0  T
  15   -498.0202706 -0.751171E-06  0.125E-04    0.00      45.3  T
  16   -498.0202706 -0.118260E-07  0.282E-05    0.00     200.7  T
     SCC iter.                  ...        0 min,  7.890 sec
     gradient                   ...        0 min,  0.984 sec
 * total energy  :  -490.0550432 Eh     change       -0.3557566E-02 Eh
[...]
    11   6 C       49   1 H                                       1.0895810
    12   6 C       50   1 H                                       1.0851266
    14   6 C       51   1 H                                       1.0903199
    14   6 C       52   1 H                                       1.0925465
    14   6 C       53   1 H                                       1.0902029
    15   6 C       54   1 H                                       1.0851074
    17   6 C       55   1 H                                       1.0917720
    17   6 C       56   1 H                                       1.0895577
    17   6 C       57   1 H                                       1.0914613
    19   6 C       58   1 H                                       1.0780000
    20   6 C       59   1 H                                       1.0781037
    25   6 C       60   1 H                                       1.0781185
    26   6 C       61   1 H                                       1.0779970
    32   6 C       62   1 H                                       1.0914594
    32   6 C       63   1 H                                       1.0895665
    32   6 C       64   1 H                                       1.0917936
    33   6 C       65   1 H                                       1.0851095
    35   6 C       66   1 H                                       1.0904778
    35   6 C       67   1 H                                       1.0900889
    35   6 C       68   1 H                                       1.0924913
    36   6 C       69   1 H                                       1.0851231
    38   6 C       70   1 H                                       1.0919125
    38   6 C       71   1 H                                       1.0914314
    38   6 C       72   1 H                                       1.0896213
    40   6 C       73   1 H                                       1.0781858
    41   6 C       74   1 H                                       1.0784658
    76   6 C       77   6 C                                       1.3783979
    77   6 C       78   6 C                                       1.4318266
    78   6 C       79   6 C                                       1.3537643
    79   6 C       80   6 C                                       1.4335189 (max)
    77   6 C       81   7 N                                       1.3722563
    80   6 C       81   7 N                                       1.3720565
    80   6 C       82   6 C                                       1.3855048
    83   6 C       84   6 C                                       1.3976369
    84   6 C       86   6 C                                       1.3902029
    86   6 C       87   6 C                                       1.3907313
    87   6 C       89   6 C                                       1.3914732
    83   6 C       90   6 C                                       1.3980020
    89   6 C       90   6 C                                       1.3896096
    82   6 C       92   6 C                                       1.3842010
    92   6 C       93   6 C                                       1.4316196
    93   6 C       94   6 C                                       1.3546479
    92   6 C       95   7 N                                       1.3760697
    94   6 C       96   6 C                                       1.4294652
    95   7 N       96   6 C                                       1.3673217
    96   6 C       97   6 C                                       1.3964692
    97   6 C       98   6 C                                       1.3965912
    98   6 C       99   6 C                                       1.4292888
    99   6 C      100   6 C                                       1.3546545
   100   6 C      101   6 C                                       1.4318640
    98   6 C      102   7 N                                       1.3668349
   101   6 C      102   7 N                                       1.3766758
   101   6 C      103   6 C                                       1.3838325
   104   6 C      105   6 C                                       1.3980271
   105   6 C      107   6 C                                       1.3897155
   107   6 C      108   6 C                                       1.3913530
   108   6 C      110   6 C                                       1.3908232
   104   6 C      111   6 C                                       1.3975411
   110   6 C      111   6 C                                       1.3901607
   103   6 C      113   6 C                                       1.3858543
   113   6 C      114   6 C                                       1.4333181
   114   6 C      115   6 C                                       1.3537541
    76   6 C      116   6 C                                       1.3781491
   115   6 C      116   6 C                                       1.4319790
   113   6 C      117   7 N                                       1.3714883
   116   6 C      117   7 N                                       1.3727208
    76   6 C      118   1 H                                       1.0836117
    78   6 C      119   1 H                                       1.0784879
    79   6 C      120   1 H                                       1.0782073
    85   6 C      121   1 H                                       1.0916940
    85   6 C      122   1 H                                       1.0910532
    85   6 C      123   1 H                                       1.0894894
    86   6 C      124   1 H                                       1.0851230
    88   6 C      125   1 H                                       1.0904547
    88   6 C      126   1 H                                       1.0925288
    88   6 C      127   1 H                                       1.0901262
    89   6 C      128   1 H                                       1.0851097
    91   6 C      129   1 H                                       1.0917972
    91   6 C      130   1 H                                       1.0895679
    91   6 C      131   1 H                                       1.0914049
    93   6 C      132   1 H                                       1.0780504
    94   6 C      133   1 H                                       1.0781401
    99   6 C      134   1 H                                       1.0781557
   100   6 C      135   1 H                                       1.0780498
   106   6 C      136   1 H                                       1.0913795
   106   6 C      137   1 H                                       1.0895649
   106   6 C      138   1 H                                       1.0918202
   107   6 C      139   1 H                                       1.0850840
   109   6 C      140   1 H                                       1.0903829
   109   6 C      141   1 H                                       1.0901381
   109   6 C      142   1 H                                       1.0925181
   110   6 C      143   1 H                                       1.0851304
   112   6 C      144   1 H                                       1.0920494
   112   6 C      145   1 H                                       1.0915381
   112   6 C      146   1 H                                       1.0896397
   114   6 C      147   1 H                                       1.0782277
   115   6 C      148   1 H                                       1.0784883
   149   6 C      150   6 C                                       1.2286845
   151   6 C      152   6 C                                       1.2239479
   153   6 C      154   6 C                                       1.2244050
   155   6 C      156   6 C                                       1.2298813
   157   6 C      158   6 C                                       1.2254380
   159   6 C      160   6 C                                       1.2253295
   161   6 C      162   6 C                                       1.2286158
   163   6 C      164   6 C                                       1.2242156
   165   6 C      166   6 C                                       1.2238429
   168   6 C      169   6 C                                       1.3980176
   169   6 C      170   6 C                                       1.4289320
   170   6 C      171   6 C                                       1.3555421
   171   6 C      172   6 C                                       1.4309189
   169   6 C      173   7 N                                       1.3664010
   172   6 C      173   7 N                                       1.3747609
   172   6 C      174   6 C                                       1.3860092
   175   6 C      176   6 C                                       1.3978549
   176   6 C      178   6 C                                       1.3897333
   178   6 C      179   6 C                                       1.3912719
   179   6 C      181   6 C                                       1.3908898
   175   6 C      182   6 C                                       1.3976812
   181   6 C      182   6 C                                       1.3899762
   174   6 C      184   6 C                                       1.3844677
   184   6 C      185   6 C                                       1.4313729
   185   6 C      186   6 C                                       1.3551536
   184   6 C      187   7 N                                       1.3762966
   186   6 C      188   6 C                                       1.4290176
   187   7 N      188   6 C                                       1.3651692
   188   6 C      189   6 C                                       1.3988218
   189   6 C      190   6 C                                       1.3989865
   190   6 C      191   6 C                                       1.4289106
   191   6 C      192   6 C                                       1.3554219
   192   6 C      193   6 C                                       1.4312106
   190   6 C      194   7 N                                       1.3650637
   193   6 C      194   7 N                                       1.3757704
   193   6 C      195   6 C                                       1.3849173
   196   6 C      197   6 C                                       1.3977668
   197   6 C      199   6 C                                       1.3899990
   199   6 C      200   6 C                                       1.3908630
   200   6 C      202   6 C                                       1.3913013
   196   6 C      203   6 C                                       1.3978457
   202   6 C      203   6 C                                       1.3897140
   195   6 C      205   6 C                                       1.3856091
   205   6 C      206   6 C                                       1.4310658
   206   6 C      207   6 C                                       1.3553487
   168   6 C      208   6 C                                       1.3980219
   207   6 C      208   6 C                                       1.4289838
   205   6 C      209   7 N                                       1.3753341
   208   6 C      209   7 N                                       1.3663542
   170   6 C      210   1 H                                       1.0781221
   171   6 C      211   1 H                                       1.0780362
   177   6 C      212   1 H                                       1.0917521
   177   6 C      213   1 H                                       1.0895270
   177   6 C      214   1 H                                       1.0913967
   178   6 C      215   1 H                                       1.0850430
   180   6 C      216   1 H                                       1.0925299
   180   6 C      217   1 H                                       1.0901465
   180   6 C      218   1 H                                       1.0903175
   181   6 C      219   1 H                                       1.0850554
   183   6 C      220   1 H                                       1.0918059
   183   6 C      221   1 H                                       1.0914787
   183   6 C      222   1 H                                       1.0895454
   185   6 C      223   1 H                                       1.0779745
   186   6 C      224   1 H                                       1.0780868
   191   6 C      225   1 H                                       1.0781244
   192   6 C      226   1 H                                       1.0780278
   198   6 C      227   1 H                                       1.0918407
   198   6 C      228   1 H                                       1.0895509
   198   6 C      229   1 H                                       1.0914308
   199   6 C      230   1 H                                       1.0850669
   201   6 C      231   1 H                                       1.0903237
   201   6 C      232   1 H                                       1.0925345
   201   6 C      233   1 H                                       1.0901393
   202   6 C      234   1 H                                       1.0850639
   204   6 C      235   1 H                                       1.0895141
   204   6 C      236   1 H                                       1.0913813
   204   6 C      237   1 H                                       1.0917801
   206   6 C      238   1 H                                       1.0779850
   207   6 C      239   1 H                                       1.0780968
   241   6 C      242   6 C                                       1.3979708
   242   6 C      243   6 C                                       1.4290462
   243   6 C      244   6 C                                       1.3545251
   244   6 C      245   6 C                                       1.4312584
   242   6 C      246   7 N                                       1.3655006
   245   6 C      246   7 N                                       1.3762079
   245   6 C      247   6 C                                       1.3839652
   248   6 C      249   6 C                                       1.3978119
   249   6 C      251   6 C                                       1.3898257
   251   6 C      252   6 C                                       1.3912075
   252   6 C      254   6 C                                       1.3910020
   248   6 C      255   6 C                                       1.3977375
   254   6 C      255   6 C                                       1.3898929
   247   6 C      257   6 C                                       1.3850461
   257   6 C      258   6 C                                       1.4310039
   258   6 C      259   6 C                                       1.3547665
   257   6 C      260   7 N                                       1.3753476
   259   6 C      261   6 C                                       1.4287831
   260   7 N      261   6 C                                       1.3662685
   261   6 C      262   6 C                                       1.3971183
   262   6 C      263   6 C                                       1.3970115
   263   6 C      264   6 C                                       1.4289588
   264   6 C      265   6 C                                       1.3546561
   265   6 C      266   6 C                                       1.4309860
   263   6 C      267   7 N                                       1.3666794
   266   6 C      267   7 N                                       1.3752696
   266   6 C      268   6 C                                       1.3850803
   269   6 C      270   6 C                                       1.3977983
   270   6 C      272   6 C                                       1.3898764
   272   6 C      273   6 C                                       1.3910457
   273   6 C      275   6 C                                       1.3911742
   269   6 C      276   6 C                                       1.3977730
   275   6 C      276   6 C                                       1.3898248
   268   6 C      278   6 C                                       1.3839214
   278   6 C      279   6 C                                       1.4312527
   279   6 C      280   6 C                                       1.3546412
   241   6 C      281   6 C                                       1.3982317
   280   6 C      281   6 C                                       1.4288782
   278   6 C      282   7 N                                       1.3762679
   281   6 C      282   7 N                                       1.3650761
   243   6 C      283   1 H                                       1.0780613
   244   6 C      284   1 H                                       1.0779488
   250   6 C      285   1 H                                       1.0917524
   250   6 C      286   1 H                                       1.0895448
   250   6 C      287   1 H                                       1.0915475
   251   6 C      288   1 H                                       1.0850813
   253   6 C      289   1 H                                       1.0925133
   253   6 C      290   1 H                                       1.0902049
   253   6 C      291   1 H                                       1.0902931
   254   6 C      292   1 H                                       1.0850596
   256   6 C      293   1 H                                       1.0917183
   256   6 C      294   1 H                                       1.0915038
   256   6 C      295   1 H                                       1.0895114
   258   6 C      296   1 H                                       1.0779622
   259   6 C      297   1 H                                       1.0780515
   264   6 C      298   1 H                                       1.0780359
   265   6 C      299   1 H                                       1.0779406
   271   6 C      300   1 H                                       1.0917494
   271   6 C      301   1 H                                       1.0895125
   271   6 C      302   1 H                                       1.0914687
   272   6 C      303   1 H                                       1.0850684
   274   6 C      304   1 H                                       1.0902717
   274   6 C      305   1 H                                       1.0925165
   274   6 C      306   1 H                                       1.0902093
   275   6 C      307   1 H                                       1.0850775
   277   6 C      308   1 H                                       1.0895341
   277   6 C      309   1 H                                       1.0915315
   277   6 C      310   1 H                                       1.0917521
   279   6 C      311   1 H                                       1.0779326 (min)
   280   6 C      312   1 H                                       1.0780536

 * 3 distinct bonds (by element types)

   Z      Z             #   av. dist./Å        max./Å        min./Å
   1 H    6 C         122     1.0867000     1.0925465     1.0779326
   6 C    6 C         137     1.3853259     1.4335189     1.2238429
   6 C    7 N          32     1.3713449     1.3769592     1.3650637


optimized geometry written to: xtbopt.xyz


           -------------------------------------------------
          | TOTAL ENERGY             -490.089379273635 Eh   |
          | GRADIENT NORM               0.000747634005 Eh/α |
          | HOMO-LUMO GAP               0.000277817432 eV   |
           -------------------------------------------------

------------------------------------------------------------------------
 * finished run on 2022/07/30 at 03:51:20.922     
------------------------------------------------------------------------
 total:
 * wall-time:     0 d,  0 h, 17 min, 14.768 sec
 *  cpu-time:     0 d,  0 h, 17 min,  9.617 sec
 * ratio c/w:     0.995 speedup
 SCF:
 * wall-time:     0 d,  0 h,  1 min,  7.360 sec
 *  cpu-time:     0 d,  0 h,  1 min,  7.018 sec
 * ratio c/w:     0.995 speedup
 ANC optimizer:
 * wall-time:     0 d,  0 h, 16 min,  7.007 sec
 *  cpu-time:     0 d,  0 h, 16 min,  2.204 sec
 * ratio c/w:     0.995 speedup

