      -----------------------------------------------------------      
     |                   =====================                   |     
     |                           x T B                           |     
     |                   =====================                   |     
     |                         S. Grimme                         |     
     |          Mulliken Center for Theoretical Chemistry        |     
     |                    University of Bonn                     |     
      -----------------------------------------------------------      

   * xtb version 6.5.1 (b24c23e) compiled by 'conda@728c89f4b128' on 2022-07-12

   xtb is free software: you can redistribute it and/or modify it under
   the terms of the GNU Lesser General Public License as published by
   the Free Software Foundation, either version 3 of the License, or
   (at your option) any later version.
   
   xtb is distributed in the hope that it will be useful,
   but WITHOUT ANY WARRANTY; without even the implied warranty of
   MERCHANTABILITY or FITNESS FOR A PARTICULAR PURPOSE.  See the
   GNU Lesser General Public License for more details.
   
   Cite this work as:
   * C. Bannwarth, E. Caldeweyher, S. Ehlert, A. Hansen, P. Pracht,
     J. Seibert, S. Spicher, S. Grimme, WIREs Comput. Mol. Sci., 2020, 11,
     e01493. DOI: 10.1002/wcms.1493
   
   for GFN2-xTB:
   * C. Bannwarth, S. Ehlert and S. Grimme., J. Chem. Theory Comput., 2019,
     15, 1652-1671. DOI: 10.1021/acs.jctc.8b01176
   for GFN1-xTB:
   * S. Grimme, C. Bannwarth, P. Shushkov, J. Chem. Theory Comput., 2017,
     13, 1989-2009. DOI: 10.1021/acs.jctc.7b00118
   for GFN0-xTB:
   * P. Pracht, E. Caldeweyher, S. Ehlert, S. Grimme, ChemRxiv, 2019, preprint.
     DOI: 10.26434/chemrxiv.8326202.v1
   for GFN-FF:
   * S. Spicher and S. Grimme, Angew. Chem. Int. Ed., 2020, 59, 15665-15673.
     DOI: 10.1002/anie.202004239
   
   for ALPB and GBSA implicit solvation:
   * S. Ehlert, M. Stahn, S. Spicher, S. Grimme, J. Chem. Theory Comput.,
     2021, 17, 4250-4261. DOI: 10.1021/acs.jctc.1c00471
   
   for DFT-D4:
   * E. Caldeweyher, C. Bannwarth and S. Grimme, J. Chem. Phys., 2017,
     147, 034112. DOI: 10.1063/1.4993215
   * E. Caldeweyher, S. Ehlert, A. Hansen, H. Neugebauer, S. Spicher,
     C. Bannwarth and S. Grimme, J. Chem. Phys., 2019, 150, 154122.
     DOI: 10.1063/1.5090222
   * E. Caldeweyher, J.-M. Mewes, S. Ehlert and S. Grimme, Phys. Chem. Chem. Phys.
     2020, 22, 8499-8512. DOI: 10.1039/D0CP00502A
   
   for sTDA-xTB:
   * S. Grimme and C. Bannwarth, J. Chem. Phys., 2016, 145, 054103.
     DOI: 10.1063/1.4959605
   
   in the mass-spec context:
   * V. Asgeirsson, C. Bauer and S. Grimme, Chem. Sci., 2017, 8, 4879.
     DOI: 10.1039/c7sc00601b
   * J. Koopman and S. Grimme, ACS Omega 2019, 4, 12, 15120-15133.
     DOI: 10.1021/acsomega.9b02011
   
   for metadynamics refer to:
   * S. Grimme, J. Chem. Theory Comput., 2019, 155, 2847-2862
     DOI: 10.1021/acs.jctc.9b00143
   
   for SPH calculations refer to:
   * S. Spicher and S. Grimme, J. Chem. Theory Comput., 2021, 17, 1701-1714
     DOI: 10.1021/acs.jctc.0c01306
   
   with help from (in alphabetical order)
   P. Atkinson, C. Bannwarth, F. Bohle, G. Brandenburg, E. Caldeweyher
   M. Checinski, S. Dohm, S. Ehlert, S. Ehrlich, I. Gerasimov, C. Hölzer
   A. Katbashev, J. Koopman, C. Lavigne, S. Lehtola, F. März, M. Müller,
   F. Musil, H. Neugebauer, J. Pisarek, C. Plett, P. Pracht, F. Pultar,
   J. Seibert, P. Shushkov, S. Spicher, M. Stahn, M. Steiner, T. Strunk,
   J. Stückrath, T. Rose, and J. Unsleber
   
 * started run on 2022/07/30 at 03:19:49.465     

           -------------------------------------------------
          |                Calculation Setup                |
           -------------------------------------------------

          program call               : xtb Ni_DHP_C4_4.xyz --gfn 1 --opt -T 48
          hostname                   : cx3-14-19.cx3.hpc.ic.ac.uk
          coordinate file            : Ni_DHP_C4_4.xyz
          omp threads                :                     1

   ID    Z sym.   atoms
    1   28 Ni     1, 59, 129, 186
    2    6 C      2-6, 8-11, 13-17, 19-24, 26-29, 31-36, 60-64, 66-69, 71-75,
                  77-82, 84-87, 89-94, 117-128, 130-134, 136-139, 141-145,
                  147-152, 154-157, 159-164, 187-191, 193-196, 198-202,
                  204-209, 211-214, 216-221
    3    7 N      7, 12, 18, 25, 30, 37, 65, 70, 76, 83, 88, 95, 135, 140,
                  146, 153, 158, 165, 192, 197, 203, 210, 215, 222
    4    1 H      38-58, 96-116, 166-185, 223-242
########################################################################
[WARNING] Please study the warnings concerning your input carefully
-1- prog_main_parseArguments: Unknown option '-T' provided
########################################################################

           -------------------------------------------------
          |                 G F N 1 - x T B                 |
           -------------------------------------------------

        Reference                      10.1021/acs.jctc.7b00118
      * Hamiltonian:
        H0-scaling (s, p, d)           1.850000    2.250000    2.000000
        zeta-weighting                 0.000000
      * Dispersion:
        s8                             2.400000
        a1                             0.630000
        a2                             5.000000
        s9                             0.000000
      * Repulsion:
        kExp                           1.500000
        rExp                           1.000000
      * Coulomb:
        alpha                          2.000000
        third order                    atomic
        anisotropic                    false
      * Halogen bond correction:
        rad-scale                      1.300000
        damping                        0.440000


          ...................................................
          :                      SETUP                      :
          :.................................................:
          :  # basis functions                 828          :
          :  # atomic orbitals                 824          :
          :  # shells                          488          :
          :  # electrons                       770          :
          :  # halogen bonds                     0          :
          :  max. iterations                   250          :
          :  Hamiltonian                  GFN1-xTB          :
          :  restarted?                      false          :
          :  GBSA solvation                  false          :
          :  PC potential                    false          :
          :  electronic temp.          300.0000000     K    :
          :  accuracy                    1.0000000          :
          :  -> integral cutoff          0.2500000E+02      :
          :  -> integral neglect         0.1000000E-07      :
          :  -> SCF convergence          0.1000000E-05 Eh   :
          :  -> wf. convergence          0.2000000E-04 e    :
          :  Broyden damping             0.4000000          :
          ...................................................

 iter      E             dE          RMSdq      gap      omega  full diag
   1   -418.7643217 -0.418764E+03  0.106E+01    0.13       0.0  T
   2   -316.9751687  0.101789E+03  0.115E+01    0.03       1.0  T
   3   -289.5293847  0.274458E+02  0.924E+00    0.01       1.0  T
   4   1627.2554135  0.191678E+04  0.170E+01    0.08       1.0  T
   5   3095.9467333  0.146869E+04  0.205E+01    0.04       1.0  T
   6   1288.6812562 -0.180727E+04  0.161E+01    0.05       1.0  T
   7    306.6383189 -0.982043E+03  0.120E+01    0.03       1.0  T
   8   -391.2903353 -0.697929E+03  0.562E+00    0.03       1.0  T
   9   -385.7302539  0.556008E+01  0.537E+00    0.03       1.0  T
  10   -403.8759117 -0.181457E+02  0.435E+00    0.08       1.0  T
  11   -411.9987401 -0.812283E+01  0.381E+00    0.04       1.0  T
  12   -415.7427702 -0.374403E+01  0.354E+00    0.03       1.0  T
  13   -417.4051013 -0.166233E+01  0.328E+00    0.02       1.0  T
  14   -418.2807771 -0.875676E+00  0.310E+00    0.00       1.0  T
  15   -418.2905657 -0.978860E-02  0.298E+00    0.09       1.0  T
  16   -418.1369586  0.153607E+00  0.290E+00    0.00       1.0  T
  17   -418.3995940 -0.262635E+00  0.280E+00    0.07       1.0  T
  18   -418.2910937  0.108500E+00  0.256E+00    0.10       1.0  T
  19   -418.5226668 -0.231573E+00  0.240E+00    0.06       1.0  T
  20   -418.4356622  0.870046E-01  0.238E+00    0.09       1.0  T
  21   -418.7644061 -0.328744E+00  0.206E+00    0.06       1.0  T
  22   -419.6670520 -0.902646E+00  0.163E+00    0.01       1.0  T
  23   -419.8816992 -0.214647E+00  0.134E+00    0.03       1.0  T
  24   -420.3496780 -0.467979E+00  0.110E+00    0.04       1.0  T
  25   -419.8497534  0.499925E+00  0.128E+00    0.04       1.0  T
  26   -420.1810764 -0.331323E+00  0.106E+00    0.03       1.0  T
  27   -420.1676055  0.134709E-01  0.904E-01    0.03       1.0  T
  28   -420.1584868  0.911865E-02  0.918E-01    0.04       1.0  T
  29   -420.2191922 -0.607054E-01  0.819E-01    0.01       1.0  T
  30   -419.9090040  0.310188E+00  0.710E-01    0.03       1.0  T
  31   -419.8205286  0.884754E-01  0.677E-01    0.03       1.0  T
  32   -417.5565825  0.226395E+01  0.118E+00    0.01       1.0  T
  33   -417.3234073  0.233175E+00  0.122E+00    0.02       1.0  T
  34   -417.3609096 -0.375023E-01  0.120E+00    0.02       1.0  T
  35   -417.4210110 -0.601014E-01  0.119E+00    0.02       1.0  T
  36   -419.4184553 -0.199744E+01  0.572E-01    0.01       1.0  T
  37   -420.2082739 -0.789819E+00  0.422E-01    0.02       1.0  T
  38   -420.3367079 -0.128434E+00  0.400E-01    0.03       1.0  T
  39   -420.4269976 -0.902897E-01  0.409E-01    0.05       1.0  T
  40   -420.5226700 -0.956724E-01  0.414E-01    0.05       1.0  T
  41   -420.5980456 -0.753756E-01  0.387E-01    0.07       1.0  T
  42   -420.6157311 -0.176855E-01  0.379E-01    0.07       1.0  T
  43   -420.6995971 -0.838660E-01  0.389E-01    0.06       1.0  T
  44   -420.7068712 -0.727409E-02  0.388E-01    0.05       1.0  T
  45   -420.7085103 -0.163909E-02  0.425E-01    0.03       1.0  T
  46   -420.7216150 -0.131047E-01  0.385E-01    0.03       1.0  T
  47   -420.7200032  0.161174E-02  0.387E-01    0.03       1.0  T
  48   -420.7427852 -0.227820E-01  0.316E-01    0.02       1.0  T
  49   -420.7421051  0.680091E-03  0.268E-01    0.02       1.0  T
  50   -420.7391088  0.299626E-02  0.261E-01    0.02       1.0  T
  51   -420.7435428 -0.443398E-02  0.242E-01    0.03       1.0  T
  52   -420.7438207 -0.277916E-03  0.226E-01    0.02       1.0  T
  53   -420.7552879 -0.114671E-01  0.184E-01    0.03       1.0  T
  54   -420.7617756 -0.648775E-02  0.148E-01    0.03       1.0  T
  55   -420.7665339 -0.475829E-02  0.120E-01    0.03       1.0  T
  56   -420.7682499 -0.171604E-02  0.103E-01    0.03       1.0  T
  57   -420.7752212 -0.697127E-02  0.930E-02    0.03       1.0  T
  58   -420.7798719 -0.465073E-02  0.843E-02    0.03       1.0  T
  59   -420.7877998 -0.792786E-02  0.678E-02    0.02       1.0  T
  60   -420.7928160 -0.501618E-02  0.585E-02    0.02       1.0  T
  61   -420.7951934 -0.237741E-02  0.527E-02    0.01       1.0  T
  62   -420.7966692 -0.147586E-02  0.456E-02    0.01       1.0  T
  63   -420.7969257 -0.256481E-03  0.394E-02    0.01       1.0  T
  64   -420.7973574 -0.431648E-03  0.308E-02    0.01       1.0  T
  65   -420.7975616 -0.204224E-03  0.249E-02    0.01       1.0  T
  66   -420.7976455 -0.838710E-04  0.202E-02    0.01       1.0  T
  67   -420.7978012 -0.155768E-03  0.176E-02    0.01       1.0  T
  68   -420.7976897  0.111576E-03  0.164E-02    0.01       1.0  T
  69   -420.7978776 -0.187942E-03  0.130E-02    0.01       1.0  T
  70   -420.7979588 -0.812054E-04  0.107E-02    0.01       1.0  T
  71   -420.7979981 -0.393475E-04  0.890E-03    0.01       1.0  T
  72   -420.7980249 -0.267944E-04  0.797E-03    0.01       1.0  T
  73   -420.7980431 -0.181164E-04  0.738E-03    0.01       1.0  T
  74   -420.7980484 -0.538314E-05  0.680E-03    0.01       1.0  T
  75   -420.7980529 -0.444818E-05  0.606E-03    0.01       1.1  T
  76   -420.7980574 -0.447612E-05  0.575E-03    0.01       1.1  T
  77   -420.7980594 -0.205073E-05  0.550E-03    0.01       1.2  T
  78   -420.7980633 -0.384961E-05  0.517E-03    0.01       1.2  T
  79   -420.7980650 -0.173770E-05  0.495E-03    0.01       1.3  T
  80   -420.7980674 -0.235655E-05  0.444E-03    0.01       1.4  T
  81   -420.7980720 -0.460752E-05  0.365E-03    0.01       1.8  T
  82   -420.7980757 -0.370446E-05  0.280E-03    0.01       2.3  T
  83   -420.7980755  0.128533E-06  0.235E-03    0.01       2.7  T
  84   -420.7980763 -0.769145E-06  0.187E-03    0.01       3.4  T
  85   -420.7980785 -0.223171E-05  0.123E-03    0.01       5.2  T
  86   -420.7980785  0.851378E-07  0.984E-04    0.01       6.5  T
  87   -420.7980794 -0.895163E-06  0.628E-04    0.01      10.2  T
  88   -420.7980794 -0.960809E-07  0.553E-04    0.01      11.6  T
  89   -420.7980795 -0.975232E-07  0.465E-04    0.01      13.8  T
  90   -420.7980796 -0.242261E-07  0.390E-04    0.01      16.5  T
  91   -420.7980796 -0.200457E-07  0.319E-04    0.01      20.1  T
  92   -420.7980796 -0.437635E-07  0.207E-04    0.01      31.0  T
  93   -420.7980797 -0.387780E-07  0.105E-04    0.01      61.4  T
  94   -420.7980797 -0.490428E-08  0.615E-05    0.01     104.5  T

   *** convergence criteria satisfied after 94 iterations ***

         #    Occupation            Energy/Eh            Energy/eV
      -------------------------------------------------------------
         1        2.0000           -0.7784894             -21.1838
       ...           ...                  ...                  ...
       379        2.0000           -0.3671939              -9.9919
       380        2.0000           -0.3663198              -9.9681
       381        2.0000           -0.3652651              -9.9394
       382        2.0000           -0.3650390              -9.9332
       383        1.9761           -0.3589997              -9.7689
       384        1.9671           -0.3586905              -9.7605
       385        1.0467           -0.3548926              -9.6571 (HOMO)
       386        0.9235           -0.3546582              -9.6507 (LUMO)
       387        0.0849           -0.3518439              -9.5742
       388        0.0010           -0.3475847              -9.4583
       389        0.0007           -0.3471818              -9.4473
       390        0.0000           -0.3409577              -9.2779
       ...           ...                  ...                  ...
       824                          1.3893835              37.8070
      -------------------------------------------------------------
                  HL-Gap            0.0002344 Eh            0.0064 eV
             Fermi-level           -0.3548038 Eh           -9.6547 eV

 SCC (total)                   0 d,  0 h,  0 min, 40.142 sec
 SCC setup                      ...        0 min,  0.026 sec (  0.064%)
 Dispersion                     ...        0 min,  0.019 sec (  0.047%)
 classical contributions        ...        0 min,  0.005 sec (  0.013%)
 integral evaluation            ...        0 min,  0.517 sec (  1.288%)
 iterations                     ...        0 min, 38.018 sec ( 94.709%)
 molecular gradient             ...        0 min,  1.457 sec (  3.630%)
 printout                       ...        0 min,  0.100 sec (  0.248%)

         :::::::::::::::::::::::::::::::::::::::::::::::::::::
         ::                     SUMMARY                     ::
         :::::::::::::::::::::::::::::::::::::::::::::::::::::
         :: total energy            -414.539667263271 Eh    ::
         :: gradient norm              0.877876888441 Eh/a0 ::
         :: HOMO-LUMO gap              0.006377676956 eV    ::
         ::.................................................::
         :: SCC energy              -420.798079678452 Eh    ::
         :: -> electrostatic           0.347083142206 Eh    ::
         :: repulsion energy           6.479092909397 Eh    ::
         :: dispersion energy         -0.220680494215 Eh    ::
         :: halogen bond corr.         0.000000000000 Eh    ::
         :: add. restraining           0.000000000000 Eh    ::
         :: total charge              -0.000000000003 e     ::
         :::::::::::::::::::::::::::::::::::::::::::::::::::::

      ----------------------------------------------------------- 
     |                   =====================                   |
     |                        A N C O P T                        |
     |                   =====================                   |
     |               Approximate Normal Coordinate               |
     |                Rational Function Optimizer                |
      ----------------------------------------------------------- 

          ...................................................
          :                      SETUP                      :
          :.................................................:
          :   optimization level            normal          :
          :   max. optcycles                   726          :
          :   ANC micro-cycles                  20          :
          :   degrees of freedom               720          :
          :.................................................:
          :   RF solver                   davidson          :
          :   write xtbopt.log                true          :
          :   linear?                        false          :
          :   energy convergence         0.5000000E-05 Eh   :
          :   grad. convergence          0.1000000E-02 Eh/α :
          :   maximium RF displ.         1.0000000          :
          :   Hlow (freq-cutoff)         0.1000000E-01      :
          :   Hmax (freq-cutoff)         5.0000000          :
          :   S6 in model hess.         20.0000000          :
          ...................................................

generating ANC from model Hessian ...
Using Lindh-Hessian (1995)
 Shifting diagonal of input Hessian by    1.0016053238262089E-002
 Lowest  eigenvalues of input Hessian
    0.010000    0.010002    0.010007    0.010009    0.010009    0.010010
    0.010011    0.010012    0.000000    0.000000    0.000000    0.000000
    0.000000    0.000000    0.010029    0.010041    0.010044    0.010097
 Highest eigenvalues
    2.256493    2.264443    2.439941    2.540475    2.643298    2.805789


........................................................................
.............................. CYCLE    1 ..............................
........................................................................
   1   -420.7980797 -0.420798E+03  0.549E-05    0.01       0.0  T
   2   -420.7980796  0.390311E-07  0.158E-04    0.01      40.7  T
   3   -420.7980796 -0.363514E-09  0.175E-04    0.01      36.7  T
     SCC iter.                  ...        0 min,  1.254 sec
     gradient                   ...        0 min,  1.463 sec
 * total energy  :  -414.5396672 Eh     change        0.3819332E-07 Eh
   gradient norm :     0.8778738 Eh/α   predicted     0.0000000E+00 (-100.00%)
   displ. norm   :     0.5644793 α      lambda       -0.4273582E+00
   maximum displ.:     0.1421602 α      in ANC's #492, #475, #501, ...

........................................................................
.............................. CYCLE    2 ..............................
........................................................................
   1   -420.9397266 -0.420940E+03  0.316E-01    0.11       0.0  T
   2   -419.8144720  0.112525E+01  0.122E+00    0.11       1.0  T
   3   -420.8460179 -0.103155E+01  0.357E-01    0.13       1.0  T
   4   -420.5126745  0.333343E+00  0.469E-01    0.14       1.0  T
   5   -420.8642923 -0.351618E+00  0.310E-01    0.06       1.0  T
   6   -420.9750085 -0.110716E+00  0.161E-01    0.04       1.0  T
   7   -420.9695459  0.546261E-02  0.135E-01    0.08       1.0  T
   8   -420.9851674 -0.156215E-01  0.802E-02    0.06       1.0  T
   9   -420.9846023  0.565113E-03  0.749E-02    0.04       1.0  T
  10   -420.9900010 -0.539875E-02  0.299E-02    0.06       1.0  T
  11   -420.9911578 -0.115677E-02  0.187E-02    0.05       1.0  T
  12   -420.9907293  0.428535E-03  0.222E-02    0.05       1.0  T
  13   -420.9912279 -0.498631E-03  0.853E-03    0.05       1.0  T
  14   -420.9912975 -0.696488E-04  0.475E-03    0.05       1.4  T
  15   -420.9913170 -0.194214E-04  0.262E-03    0.05       2.5  T
  16   -420.9913085  0.844487E-05  0.350E-03    0.05       1.8  T
  17   -420.9913156 -0.710541E-05  0.227E-03    0.05       2.8  T
  18   -420.9913199 -0.423180E-05  0.706E-04    0.05       9.1  T
  19   -420.9913200 -0.106178E-06  0.469E-04    0.05      13.7  T
  20   -420.9913201 -0.117560E-06  0.282E-04    0.05      22.8  T
  21   -420.9913202 -0.858712E-07  0.998E-05    0.05      64.4  T
  22   -420.9913202 -0.139541E-07  0.594E-05    0.05     108.3  T
     SCC iter.                  ...        0 min,  9.151 sec
     gradient                   ...        0 min,  1.460 sec
 * total energy  :  -414.8886141 Eh     change       -0.3489469E+00 Eh
   gradient norm :     0.5410770 Eh/α   predicted    -0.2818021E+00 ( -19.24%)
   displ. norm   :     0.6973688 α      lambda       -0.3404580E+00
   maximum displ.:     0.1986866 α      in ANC's #492, #475, #496, ...

........................................................................
.............................. CYCLE    3 ..............................
........................................................................
   1   -421.2733650 -0.421273E+03  0.285E-01    0.15       0.0  T
   2   -420.5088848  0.764480E+00  0.118E+00    0.16       1.0  T
   3   -421.2123713 -0.703486E+00  0.305E-01    0.17       1.0  T
   4   -420.5861092  0.626262E+00  0.722E-01    0.12       1.0  T
   5   -421.2853208 -0.699212E+00  0.193E-01    0.16       1.0  T
   6   -421.2652791  0.200417E-01  0.165E-01    0.11       1.0  T
   7   -421.3013027 -0.360237E-01  0.112E-01    0.16       1.0  T
   8   -421.3059962 -0.469345E-02  0.635E-02    0.14       1.0  T
   9   -421.3079902 -0.199398E-02  0.291E-02    0.13       1.0  T
  10   -421.3083341 -0.343931E-03  0.142E-02    0.13       1.0  T
  11   -421.3083273  0.683160E-05  0.174E-02    0.12       1.0  T
  12   -421.3085063 -0.179018E-03  0.699E-03    0.13       1.0  T
  13   -421.3085121 -0.581685E-05  0.668E-03    0.13       1.0  T
  14   -421.3085270 -0.149088E-04  0.292E-03    0.13       2.2  T
  15   -421.3085292 -0.223283E-05  0.218E-03    0.13       2.9  T
  16   -421.3085290  0.263271E-06  0.210E-03    0.13       3.1  T
  17   -421.3085304 -0.138328E-05  0.153E-03    0.13       4.2  T
  18   -421.3085316 -0.127695E-05  0.781E-04    0.13       8.2  T
  19   -421.3085318 -0.130358E-06  0.550E-04    0.13      11.7  T
  20   -421.3085319 -0.133176E-06  0.183E-04    0.13      35.2  T
  21   -421.3085319 -0.185685E-07  0.608E-05    0.13     105.7  T
     SCC iter.                  ...        0 min,  8.722 sec
     gradient                   ...        0 min,  1.462 sec
 * total energy  :  -415.1266842 Eh     change       -0.2380701E+00 Eh
   gradient norm :     0.2844790 Eh/α   predicted    -0.2530154E+00 (   6.28%)
   displ. norm   :     0.6882587 α      lambda       -0.1490474E+00
   maximum displ.:     0.1459456 α      in ANC's #492, #243, #183, ...

........................................................................
.............................. CYCLE    4 ..............................
........................................................................
   1   -421.5356605 -0.421536E+03  0.161E-01    0.18       0.0  T
   2   -421.3535803  0.182080E+00  0.637E-01    0.10       1.0  T
   3   -421.5164647 -0.162884E+00  0.174E-01    0.18       1.0  T
   4   -421.4336647  0.827999E-01  0.263E-01    0.08       1.0  T
   5   -421.5401218 -0.106457E+00  0.104E-01    0.17       1.0  T
   6   -421.5369330  0.318884E-02  0.940E-02    0.16       1.0  T
   7   -421.5427720 -0.583897E-02  0.675E-02    0.19       1.0  T
   8   -421.5444678 -0.169587E-02  0.376E-02    0.18       1.0  T
   9   -421.5448337 -0.365845E-03  0.192E-02    0.17       1.0  T
  10   -421.5449614 -0.127689E-03  0.960E-03    0.17       1.0  T
  11   -421.5449761 -0.147308E-04  0.809E-03    0.17       1.0  T
  12   -421.5450166 -0.404589E-04  0.445E-03    0.17       1.4  T
  13   -421.5450222 -0.567922E-05  0.262E-03    0.17       2.5  T
  14   -421.5450240 -0.173158E-05  0.142E-03    0.17       4.5  T
  15   -421.5450248 -0.834609E-06  0.495E-04    0.17      13.0  T
  16   -421.5450249 -0.795411E-07  0.252E-04    0.17      25.5  T
  17   -421.5450249 -0.158451E-07  0.183E-04    0.17      35.2  T
  18   -421.5450249 -0.840629E-08  0.108E-04    0.17      59.7  T
     SCC iter.                  ...        0 min,  7.480 sec
     gradient                   ...        0 min,  1.458 sec
 * total energy  :  -415.2454439 Eh     change       -0.1187597E+00 Eh
   gradient norm :     0.2156883 Eh/α   predicted    -0.1098256E+00 (  -7.52%)
   displ. norm   :     0.7487383 α      lambda       -0.1138892E+00
   maximum displ.:     0.1517341 α      in ANC's #243, #183, #247, ...

........................................................................
.............................. CYCLE    5 ..............................
........................................................................
   1   -421.7210523 -0.421721E+03  0.115E-01    0.22       0.0  T
   2   -421.6557470  0.653053E-01  0.290E-01    0.13       1.0  T
   3   -421.6900594 -0.343124E-01  0.155E-01    0.22       1.0  T
   4   -421.7101637 -0.201043E-01  0.112E-01    0.23       1.0  T
   5   -421.7236025 -0.134388E-01  0.531E-02    0.23       1.0  T
   6   -421.7244098 -0.807369E-03  0.367E-02    0.22       1.0  T
   7   -421.7246991 -0.289248E-03  0.199E-02    0.22       1.0  T
   8   -421.7249471 -0.247991E-03  0.668E-03    0.22       1.0  T
   9   -421.7249609 -0.137941E-04  0.320E-03    0.22       2.0  T
  10   -421.7249611 -0.219022E-06  0.309E-03    0.22       2.1  T
  11   -421.7249664 -0.531253E-05  0.131E-03    0.22       4.9  T
  12   -421.7249666 -0.224127E-06  0.111E-03    0.22       5.8  T
  13   -421.7249670 -0.423949E-06  0.396E-04    0.22      16.2  T
  14   -421.7249671 -0.586021E-07  0.186E-04    0.22      34.6  T
  15   -421.7249671 -0.108038E-07  0.667E-05    0.22      96.4  T
     SCC iter.                  ...        0 min,  6.218 sec
     gradient                   ...        0 min,  1.459 sec
 * total energy  :  -415.3381137 Eh     change       -0.9266973E-01 Eh
   gradient norm :     0.1798314 Eh/α   predicted    -0.8886834E-01 (  -4.10%)
   displ. norm   :     0.7397581 α      lambda       -0.8732899E-01
   maximum displ.:     0.1467163 α      in ANC's #492, #183, #243, ...

........................................................................
.............................. CYCLE    6 ..............................
........................................................................
   1   -421.8239755 -0.421824E+03  0.118E-01    0.25       0.0  T
   2   -421.3349041  0.489071E+00  0.667E-01    0.09       1.0  T
   3   -421.8247435 -0.489839E+00  0.124E-01    0.27       1.0  T
   4   -421.8175936  0.714988E-02  0.930E-02    0.26       1.0  T
   5   -421.8312747 -0.136811E-01  0.561E-02    0.25       1.0  T
   6   -421.8304644  0.810296E-03  0.504E-02    0.26       1.0  T
   7   -421.8316447 -0.118030E-02  0.391E-02    0.25       1.0  T
   8   -421.8318961 -0.251441E-03  0.293E-02    0.25       1.0  T
   9   -421.8320533 -0.157121E-03  0.236E-02    0.24       1.0  T
  10   -421.8321003 -0.469978E-04  0.204E-02    0.24       1.0  T
  11   -421.8322033 -0.102991E-03  0.147E-02    0.24       1.0  T
  12   -421.8322827 -0.794856E-04  0.787E-03    0.24       1.0  T
  13   -421.8323081 -0.253365E-04  0.269E-03    0.23       2.4  T
  14   -421.8323113 -0.324849E-05  0.341E-04    0.23      18.9  T
  15   -421.8323113 -0.710850E-08  0.189E-04    0.23      34.0  T
  16   -421.8323114 -0.297998E-07  0.101E-04    0.23      63.3  T
     SCC iter.                  ...        0 min,  6.561 sec
     gradient                   ...        0 min,  1.444 sec
 * total energy  :  -415.4085930 Eh     change       -0.7047932E-01 Eh
   gradient norm :     0.1456940 Eh/α   predicted    -0.6755955E-01 (  -4.14%)
   displ. norm   :     0.7409652 α      lambda       -0.6749154E-01
   maximum displ.:     0.1476640 α      in ANC's #131, #492, #183, ...

........................................................................
.............................. CYCLE    7 ..............................
........................................................................
   1   -421.8928352 -0.421893E+03  0.134E-01    0.28       0.0  T
   2   -421.2434375  0.649398E+00  0.758E-01    0.14       1.0  T
   3   -421.8937981 -0.650361E+00  0.143E-01    0.27       1.0  T
   4   -421.8967644 -0.296623E-02  0.768E-02    0.28       1.0  T
   5   -421.9022595 -0.549510E-02  0.571E-02    0.26       1.0  T
   6   -421.9037725 -0.151310E-02  0.451E-02    0.25       1.0  T
   7   -421.9033188  0.453767E-03  0.382E-02    0.25       1.0  T
   8   -421.9045840 -0.126521E-02  0.267E-02    0.23       1.0  T
   9   -421.9045856 -0.157898E-05  0.228E-02    0.23       1.0  T
  10   -421.9046530 -0.674387E-04  0.192E-02    0.23       1.0  T
  11   -421.9047688 -0.115770E-03  0.133E-02    0.23       1.0  T
  12   -421.9048420 -0.732555E-04  0.835E-03    0.22       1.0  T
  13   -421.9048753 -0.332765E-04  0.354E-03    0.22       1.8  T
  14   -421.9048818 -0.651824E-05  0.137E-03    0.22       4.7  T
  15   -421.9048827 -0.888351E-06  0.826E-05    0.22      77.8  T
  16   -421.9048827 -0.242443E-08  0.669E-05    0.22      96.1  T
     SCC iter.                  ...        0 min,  6.496 sec
     gradient                   ...        0 min,  1.403 sec
 * total energy  :  -415.4631371 Eh     change       -0.5454412E-01 Eh
   gradient norm :     0.1253274 Eh/α   predicted    -0.5227321E-01 (  -4.16%)
   displ. norm   :     0.7466111 α      lambda       -0.5458811E-01
   maximum displ.:     0.1579803 α      in ANC's #131, #125, #492, ...

........................................................................
.............................. CYCLE    8 ..............................
........................................................................
   1   -421.9494014 -0.421949E+03  0.131E-01    0.31       0.0  T
   2   -421.5395613  0.409840E+00  0.566E-01    0.07       1.0  T
   3   -421.9432592 -0.403698E+00  0.144E-01    0.37       1.0  T
   4   -421.9549737 -0.117146E-01  0.740E-02    0.28       1.0  T
   5   -421.9564138 -0.144001E-02  0.570E-02    0.32       1.0  T
   6   -421.9594269 -0.301312E-02  0.392E-02    0.26       1.0  T
   7   -421.9598845 -0.457655E-03  0.261E-02    0.24       1.0  T
   8   -421.9603822 -0.497683E-03  0.155E-02    0.22       1.0  T
   9   -421.9603359  0.462696E-04  0.124E-02    0.22       1.0  T
  10   -421.9604400 -0.104082E-03  0.898E-03    0.22       1.0  T
  11   -421.9604758 -0.357376E-04  0.558E-03    0.21       1.2  T
  12   -421.9604869 -0.111461E-04  0.413E-03    0.21       1.6  T
  13   -421.9604985 -0.116288E-04  0.228E-03    0.21       2.8  T
  14   -421.9605014 -0.289240E-05  0.114E-03    0.21       5.6  T
  15   -421.9605024 -0.100561E-05  0.278E-04    0.21      23.1  T
  16   -421.9605025 -0.686304E-07  0.589E-05    0.20     109.1  T
  17   -421.9605025 -0.128853E-08  0.160E-05    0.20     400.9  T
     SCC iter.                  ...        0 min,  6.545 sec
     gradient                   ...        0 min,  1.359 sec
 * total energy  :  -415.5087456 Eh     change       -0.4560846E-01 Eh
   gradient norm :     0.1078193 Eh/α   predicted    -0.4250854E-01 (  -6.80%)
   displ. norm   :     0.7806059 α      lambda       -0.4884114E-01
   maximum displ.:     0.1829979 α      in ANC's #131, #492, #67, ...

........................................................................
.............................. CYCLE    9 ..............................
........................................................................
   1   -422.0270683 -0.422027E+03  0.110E-01    0.37       0.0  T
   2   -422.0139205  0.131478E-01  0.153E-01    0.22       1.0  T
   3   -422.0315079 -0.175874E-01  0.441E-02    0.29       1.0  T
   4   -422.0329900 -0.148212E-02  0.214E-02    0.29       1.0  T
   5   -422.0332009 -0.210936E-03  0.139E-02    0.25       1.0  T
   6   -422.0332758 -0.748578E-04  0.877E-03    0.28       1.0  T
   7   -422.0333342 -0.584310E-04  0.204E-03    0.27       3.2  T
   8   -422.0333365 -0.230432E-05  0.121E-03    0.27       5.3  T
   9   -422.0333376 -0.111813E-05  0.525E-04    0.27      12.2  T
  10   -422.0333379 -0.231646E-06  0.138E-04    0.27      46.6  T
  11   -422.0333379 -0.455839E-08  0.787E-05    0.27      81.7  T
     SCC iter.                  ...        0 min,  4.220 sec
     gradient                   ...        0 min,  1.358 sec
 * total energy  :  -415.5510790 Eh     change       -0.4233345E-01 Eh
   gradient norm :     0.1117649 Eh/α   predicted    -0.3930116E-01 (  -7.16%)
   displ. norm   :     0.8042431 α      lambda       -0.5058707E-01
   maximum displ.:     0.1784753 α      in ANC's #131, #125, #126, ...

........................................................................
.............................. CYCLE   10 ..............................
........................................................................
   1   -422.0795774 -0.422080E+03  0.103E-01    0.39       0.0  T
   2   -422.0734745  0.610289E-02  0.125E-01    0.36       1.0  T
   3   -422.0830764 -0.960190E-02  0.379E-02    0.40       1.0  T
   4   -422.0834886 -0.412181E-03  0.326E-02    0.40       1.0  T
   5   -422.0841749 -0.686296E-03  0.156E-02    0.38       1.0  T
   6   -422.0842528 -0.778676E-04  0.545E-03    0.40       1.2  T
   7   -422.0842724 -0.196762E-04  0.144E-03    0.39       4.5  T
   8   -422.0842741 -0.170758E-05  0.597E-04    0.39      10.8  T
   9   -422.0842744 -0.303127E-06  0.224E-04    0.39      28.7  T
  10   -422.0842745 -0.268875E-07  0.679E-05    0.39      94.7  T
  11   -422.0842745 -0.112709E-08  0.376E-05    0.39     171.2  T
     SCC iter.                  ...        0 min,  4.766 sec
     gradient                   ...        0 min,  1.271 sec
 * total energy  :  -415.5929672 Eh     change       -0.4188819E-01 Eh
   gradient norm :     0.1302217 Eh/α   predicted    -0.4165357E-01 (  -0.56%)
   displ. norm   :     0.7557919 α      lambda       -0.5090746E-01
   maximum displ.:     0.1620796 α      in ANC's #131, #561, #53, ...

........................................................................
.............................. CYCLE   11 ..............................
........................................................................
   1   -422.1767708 -0.422177E+03  0.916E-02    0.45       0.0  T
   2   -422.1765477  0.223073E-03  0.592E-02    0.46       1.0  T
   3   -422.1778347 -0.128705E-02  0.335E-02    0.49       1.0  T
   4   -422.1786042 -0.769435E-03  0.171E-02    0.49       1.0  T
   5   -422.1787272 -0.123033E-03  0.923E-03    0.49       1.0  T
   6   -422.1787709 -0.436712E-04  0.199E-03    0.49       3.2  T
   7   -422.1787732 -0.233387E-05  0.790E-04    0.49       8.1  T
   8   -422.1787737 -0.448441E-06  0.308E-04    0.49      20.8  T
   9   -422.1787737 -0.642865E-07  0.120E-04    0.49      53.7  T
  10   -422.1787737 -0.551574E-08  0.598E-05    0.49     107.6  T
     SCC iter.                  ...        0 min,  4.334 sec
     gradient                   ...        0 min,  1.278 sec
 * total energy  :  -415.6323977 Eh     change       -0.3943046E-01 Eh
   gradient norm :     0.1287201 Eh/α   predicted    -0.3999360E-01 (   1.43%)
   displ. norm   :     0.7190566 α      lambda       -0.4501511E-01
   maximum displ.:     0.1439299 α      in ANC's #131, #561, #126, ...

........................................................................
.............................. CYCLE   12 ..............................
........................................................................
   1   -422.1711017 -0.422171E+03  0.713E-02    0.48       0.0  T
   2   -422.1714112 -0.309523E-03  0.412E-02    0.44       1.0  T
   3   -422.1718640 -0.452840E-03  0.242E-02    0.46       1.0  T
   4   -422.1720501 -0.186059E-03  0.152E-02    0.45       1.0  T
   5   -422.1721017 -0.516454E-04  0.928E-03    0.45       1.0  T
   6   -422.1721777 -0.759965E-04  0.237E-03    0.45       2.7  T
   7   -422.1721828 -0.502335E-05  0.506E-04    0.45      12.7  T
   8   -422.1721829 -0.167387E-06  0.227E-04    0.45      28.3  T
   9   -422.1721830 -0.355479E-07  0.846E-05    0.45      76.0  T
  10   -422.1721830 -0.293414E-08  0.414E-05    0.45     155.3  T
     SCC iter.                  ...        0 min,  4.378 sec
     gradient                   ...        0 min,  1.271 sec
 * total energy  :  -415.6644970 Eh     change       -0.3209929E-01 Eh
   gradient norm :     0.1427977 Eh/α   predicted    -0.3414493E-01 (   6.37%)
   displ. norm   :     0.6777510 α      lambda       -0.4258670E-01
   maximum displ.:     0.1379470 α      in ANC's #131, #53, #538, ...

........................................................................
.............................. CYCLE   13 ..............................
........................................................................
   1   -422.2413608 -0.422241E+03  0.801E-02    0.44       0.0  T
   2   -422.2410904  0.270379E-03  0.543E-02    0.46       1.0  T
   3   -422.2426631 -0.157272E-02  0.287E-02    0.47       1.0  T
   4   -422.2433723 -0.709249E-03  0.123E-02    0.47       1.0  T
   5   -422.2434280 -0.556238E-04  0.769E-03    0.47       1.0  T
   6   -422.2434568 -0.288783E-04  0.257E-03    0.47       2.5  T
   7   -422.2434619 -0.503742E-05  0.966E-04    0.47       6.7  T
   8   -422.2434626 -0.728401E-06  0.285E-04    0.47      22.6  T
   9   -422.2434626 -0.342274E-07  0.137E-04    0.47      46.8  T
  10   -422.2434627 -0.122781E-07  0.643E-05    0.47      99.9  T
     SCC iter.                  ...        0 min,  4.358 sec
     gradient                   ...        0 min,  1.263 sec
 * total energy  :  -415.6881573 Eh     change       -0.2366030E-01 Eh
   gradient norm :     0.1686968 Eh/α   predicted    -0.3107443E-01 (  31.34%)
   displ. norm   :     0.6193574 α      lambda       -0.3491872E-01
   maximum displ.:     0.1729321 α      in ANC's #53, #159, #67, ...

........................................................................
.............................. CYCLE   14 ..............................
........................................................................
   1   -422.1999955 -0.422200E+03  0.698E-02    0.50       0.0  T
   2   -422.2004826 -0.487081E-03  0.379E-02    0.53       1.0  T
   3   -422.2007680 -0.285391E-03  0.183E-02    0.52       1.0  T
   4   -422.2007587  0.930345E-05  0.132E-02    0.53       1.0  T
   5   -422.2008027 -0.440138E-04  0.680E-03    0.53       1.0  T
   6   -422.2008444 -0.417175E-04  0.167E-03    0.53       3.8  T
   7   -422.2008473 -0.287364E-05  0.618E-04    0.53      10.4  T
   8   -422.2008477 -0.379598E-06  0.154E-04    0.53      41.9  T
   9   -422.2008477 -0.105383E-07  0.877E-05    0.53      73.3  T
     SCC iter.                  ...        0 min,  3.832 sec
     gradient                   ...        0 min,  1.258 sec
 * total energy  :  -415.7074349 Eh     change       -0.1927766E-01 Eh
   gradient norm :     0.1229994 Eh/α   predicted    -0.2415685E-01 (  25.31%)
   displ. norm   :     0.6684460 α      lambda       -0.3396521E-01
   maximum displ.:     0.1835265 α      in ANC's #48, #67, #159, ...

........................................................................
.............................. CYCLE   15 ..............................
........................................................................
   1   -422.2555621 -0.422256E+03  0.728E-02    0.58       0.0  T
   2   -422.2560462 -0.484038E-03  0.482E-02    0.63       1.0  T
   3   -422.2565302 -0.484076E-03  0.218E-02    0.60       1.0  T
   4   -422.2564705  0.597540E-04  0.194E-02    0.61       1.0  T
   5   -422.2566375 -0.167034E-03  0.728E-03    0.61       1.0  T
   6   -422.2566792 -0.416884E-04  0.206E-03    0.61       3.1  T
   7   -422.2566831 -0.389243E-05  0.805E-04    0.61       8.0  T
   8   -422.2566838 -0.680373E-06  0.173E-04    0.61      37.3  T
   9   -422.2566838 -0.134059E-07  0.803E-05    0.61      80.1  T
     SCC iter.                  ...        0 min,  3.827 sec
     gradient                   ...        0 min,  1.284 sec
 * total energy  :  -415.7207093 Eh     change       -0.1327440E-01 Eh
   gradient norm :     0.1909008 Eh/α   predicted    -0.2457079E-01 (  85.10%)
   displ. norm   :     0.5102156 α      lambda       -0.2926407E-01
   maximum displ.:     0.1181188 α      in ANC's #67, #53, #18, ...

........................................................................
.............................. CYCLE   16 ..............................
........................................................................
   1   -422.2353119 -0.422235E+03  0.483E-02    0.60       0.0  T
   2   -422.2352358  0.760249E-04  0.484E-02    0.62       1.0  T
   3   -422.2360996 -0.863804E-03  0.162E-02    0.62       1.0  T
   4   -422.2359381  0.161581E-03  0.166E-02    0.61       1.0  T
   5   -422.2361340 -0.195991E-03  0.578E-03    0.62       1.1  T
   6   -422.2361535 -0.194846E-04  0.132E-03    0.62       4.9  T
   7   -422.2361547 -0.114465E-05  0.525E-04    0.62      12.2  T
   8   -422.2361550 -0.276362E-06  0.102E-04    0.61      63.1  T
   9   -422.2361550 -0.590529E-08  0.414E-05    0.61     155.5  T
     SCC iter.                  ...        0 min,  3.963 sec
     gradient                   ...        0 min,  1.282 sec
 * total energy  :  -415.7374212 Eh     change       -0.1671190E-01 Eh
   gradient norm :     0.1182270 Eh/α   predicted    -0.1844107E-01 (  10.35%)
   displ. norm   :     0.5940590 α      lambda       -0.2314381E-01
   maximum displ.:     0.1530683 α      in ANC's #32, #53, #67, ...

........................................................................
.............................. CYCLE   17 ..............................
........................................................................
   1   -422.2873430 -0.422287E+03  0.651E-02    0.63       0.0  T
   2   -422.2877132 -0.370263E-03  0.383E-02    0.69       1.0  T
   3   -422.2880064 -0.293126E-03  0.169E-02    0.68       1.0  T
   4   -422.2879870  0.193489E-04  0.118E-02    0.68       1.0  T
   5   -422.2880424 -0.553857E-04  0.606E-03    0.69       1.1  T
   6   -422.2880695 -0.271069E-04  0.133E-03    0.69       4.8  T
   7   -422.2880709 -0.135004E-05  0.486E-04    0.69      13.2  T
   8   -422.2880711 -0.202189E-06  0.196E-04    0.69      32.8  T
   9   -422.2880711 -0.311712E-07  0.729E-05    0.69      88.1  T
     SCC iter.                  ...        0 min,  3.950 sec
     gradient                   ...        0 min,  1.289 sec
 * total energy  :  -415.7501588 Eh     change       -0.1273762E-01 Eh
   gradient norm :     0.1032467 Eh/α   predicted    -0.1565569E-01 (  22.91%)
   displ. norm   :     0.6602276 α      lambda       -0.1945577E-01
   maximum displ.:     0.1986180 α      in ANC's #67, #32, #66, ...

........................................................................
.............................. CYCLE   18 ..............................
........................................................................
   1   -422.3225033 -0.422323E+03  0.531E-02    0.74       0.0  T
   2   -422.3227658 -0.262569E-03  0.209E-02    0.77       1.0  T
   3   -422.3228494 -0.835983E-04  0.119E-02    0.77       1.0  T
   4   -422.3228641 -0.146250E-04  0.654E-03    0.77       1.0  T
   5   -422.3228661 -0.208791E-05  0.383E-03    0.78       1.7  T
   6   -422.3228799 -0.137788E-04  0.796E-04    0.77       8.1  T
   7   -422.3228805 -0.579841E-06  0.368E-04    0.77      17.5  T
   8   -422.3228806 -0.132204E-06  0.996E-05    0.77      64.5  T
   9   -422.3228806 -0.514279E-08  0.463E-05    0.77     138.9  T
     SCC iter.                  ...        0 min,  3.963 sec
     gradient                   ...        0 min,  1.294 sec
 * total energy  :  -415.7633721 Eh     change       -0.1321322E-01 Eh
   gradient norm :     0.0929627 Eh/α   predicted    -0.1396828E-01 (   5.71%)
   displ. norm   :     0.6931755 α      lambda       -0.1904807E-01
   maximum displ.:     0.2213675 α      in ANC's #67, #32, #66, ...

........................................................................
.............................. CYCLE   19 ..............................
........................................................................
   1   -422.2932025 -0.422293E+03  0.421E-02    0.82       0.0  T
   2   -422.2933382 -0.135717E-03  0.258E-02    0.84       1.0  T
   3   -422.2934039 -0.657128E-04  0.146E-02    0.84       1.0  T
   4   -422.2933829  0.210456E-04  0.103E-02    0.84       1.0  T
   5   -422.2934323 -0.494527E-04  0.446E-03    0.84       1.4  T
   6   -422.2934540 -0.216130E-04  0.917E-04    0.84       7.0  T
   7   -422.2934545 -0.577882E-06  0.357E-04    0.84      18.0  T
   8   -422.2934547 -0.124641E-06  0.977E-05    0.84      65.8  T
   9   -422.2934547 -0.652813E-08  0.355E-05    0.84     181.2  T
     SCC iter.                  ...        0 min,  4.002 sec
     gradient                   ...        0 min,  1.281 sec
 * total energy  :  -415.7752268 Eh     change       -0.1185479E-01 Eh
   gradient norm :     0.0731580 Eh/α   predicted    -0.1410025E-01 (  18.94%)
   displ. norm   :     0.6955075 α      lambda       -0.1494704E-01
   maximum displ.:     0.2143146 α      in ANC's #67, #18, #32, ...

........................................................................
.............................. CYCLE   20 ..............................
........................................................................
   1   -422.3177841 -0.422318E+03  0.549E-02    0.89       0.0  T
   2   -422.3180938 -0.309716E-03  0.296E-02    0.94       1.0  T
   3   -422.3182698 -0.175980E-03  0.103E-02    0.93       1.0  T
   4   -422.3182650  0.476777E-05  0.819E-03    0.94       1.0  T
   5   -422.3182946 -0.295741E-04  0.421E-03    0.94       1.5  T
   6   -422.3183065 -0.119603E-04  0.104E-03    0.94       6.2  T
   7   -422.3183074 -0.848656E-06  0.349E-04    0.94      18.4  T
   8   -422.3183075 -0.953581E-07  0.135E-04    0.94      47.7  T
   9   -422.3183075 -0.111100E-07  0.543E-05    0.94     118.5  T
     SCC iter.                  ...        0 min,  3.960 sec
     gradient                   ...        0 min,  1.279 sec
 * total energy  :  -415.7866953 Eh     change       -0.1146850E-01 Eh
   gradient norm :     0.0536566 Eh/α   predicted    -0.1108871E-01 (  -3.31%)
   displ. norm   :     0.7704044 α      lambda       -0.1378233E-01
   maximum displ.:     0.2415461 α      in ANC's #32, #67, #18, ...
 * RMSD in coord.:     0.6138224 α      energy gain  -0.1247028E+01 Eh

generating ANC from model Hessian ...
Using Lindh-Hessian (1995)
 Shifting diagonal of input Hessian by    1.0015209921480419E-002
 Lowest  eigenvalues of input Hessian
    0.010000    0.010002    0.010003    0.010005    0.010007    0.010009
    0.010010    0.010012    0.000000    0.000000    0.000000    0.000000
    0.000000    0.000000    0.010028    0.010066    0.010073    0.010110
 Highest eigenvalues
    2.372187    2.393982    2.434403    2.607552    2.877799    2.892992


........................................................................
.............................. CYCLE   21 ..............................
........................................................................
   1   -422.3380661 -0.422338E+03  0.368E-02    0.95       0.0  T
   2   -422.3382091 -0.142962E-03  0.187E-02    0.98       1.0  T
   3   -422.3382728 -0.636638E-04  0.893E-03    0.97       1.0  T
   4   -422.3382697  0.310927E-05  0.596E-03    0.98       1.1  T
   5   -422.3382839 -0.142056E-04  0.268E-03    0.98       2.4  T
   6   -422.3382900 -0.610924E-05  0.625E-04    0.98      10.3  T
   7   -422.3382902 -0.251881E-06  0.194E-04    0.98      33.1  T
   8   -422.3382903 -0.189611E-07  0.104E-04    0.98      61.7  T
     SCC iter.                  ...        0 min,  3.534 sec
     gradient                   ...        0 min,  1.281 sec
 * total energy  :  -415.7969498 Eh     change       -0.1025450E-01 Eh
   gradient norm :     0.0525552 Eh/α   predicted     0.0000000E+00 (-100.00%)
   displ. norm   :     0.5603909 α      lambda       -0.9275950E-02
   maximum displ.:     0.1622171 α      in ANC's #55, #14, #50, ...

........................................................................
.............................. CYCLE   22 ..............................
........................................................................
   1   -422.3455984 -0.422346E+03  0.903E-03    0.98       0.0  T
   2   -422.3456088 -0.103851E-04  0.581E-03    0.98       1.1  T
   3   -422.3456190 -0.102033E-04  0.276E-03    0.98       2.3  T
   4   -422.3456198 -0.748090E-06  0.208E-03    0.98       3.1  T
   5   -422.3456217 -0.193777E-05  0.867E-04    0.98       7.4  T
   6   -422.3456222 -0.436216E-06  0.316E-04    0.98      20.3  T
   7   -422.3456223 -0.103421E-06  0.857E-05    0.98      75.0  T
   8   -422.3456223 -0.578950E-08  0.270E-05    0.98     238.4  T
     SCC iter.                  ...        0 min,  3.584 sec
     gradient                   ...        0 min,  1.195 sec
 * total energy  :  -415.8051807 Eh     change       -0.8230862E-02 Eh
   gradient norm :     0.0219737 Eh/α   predicted    -0.6135553E-02 ( -25.46%)
   displ. norm   :     0.8481831 α      lambda       -0.1105281E-01
   maximum displ.:     0.2466857 α      in ANC's #55, #14, #50, ...

........................................................................
.............................. CYCLE   23 ..............................
........................................................................
   1   -422.3527735 -0.422353E+03  0.120E-02    0.97       0.0  T
   2   -422.3527886 -0.151359E-04  0.748E-03    0.97       1.0  T
   3   -422.3528026 -0.140303E-04  0.357E-03    0.97       1.8  T
   4   -422.3528031 -0.490614E-06  0.273E-03    0.97       2.4  T
   5   -422.3528070 -0.386478E-05  0.107E-03    0.97       6.0  T
   6   -422.3528077 -0.711797E-06  0.332E-04    0.97      19.4  T
   7   -422.3528078 -0.113166E-06  0.899E-05    0.97      71.5  T
   8   -422.3528078 -0.631150E-08  0.305E-05    0.97     210.5  T
     SCC iter.                  ...        0 min,  2.334 sec
     gradient                   ...        0 min,  0.793 sec
 * total energy  :  -415.8151090 Eh     change       -0.9928337E-02 Eh
   gradient norm :     0.0259289 Eh/α   predicted    -0.9502478E-02 (  -4.29%)
   displ. norm   :     0.8844262 α      lambda       -0.9932457E-02
   maximum displ.:     0.2669280 α      in ANC's #55, #14, #50, ...

........................................................................
.............................. CYCLE   24 ..............................
........................................................................
   1   -422.3580598 -0.422358E+03  0.106E-02    0.97       0.0  T
   2   -422.3580705 -0.107151E-04  0.651E-03    0.97       1.0  T
   3   -422.3580784 -0.788382E-05  0.332E-03    0.97       1.9  T
   4   -422.3580769  0.147196E-05  0.243E-03    0.97       2.6  T
   5   -422.3580804 -0.352241E-05  0.958E-04    0.97       6.7  T
   6   -422.3580812 -0.767797E-06  0.224E-04    0.97      28.7  T
   7   -422.3580812 -0.479793E-07  0.820E-05    0.97      78.4  T
   8   -422.3580813 -0.663613E-08  0.228E-05    0.97     282.5  T
     SCC iter.                  ...        0 min,  2.289 sec
     gradient                   ...        0 min,  0.809 sec
 * total energy  :  -415.8242701 Eh     change       -0.9161045E-02 Eh
   gradient norm :     0.0288452 Eh/α   predicted    -0.8850888E-02 (  -3.39%)
   displ. norm   :     0.9080685 α      lambda       -0.9680409E-02
   maximum displ.:     0.2760134 α      in ANC's #14, #55, #20, ...

........................................................................
.............................. CYCLE   25 ..............................
........................................................................
   1   -422.3630581 -0.422363E+03  0.903E-03    0.96       0.0  T
   2   -422.3630659 -0.781386E-05  0.585E-03    0.96       1.1  T
   3   -422.3630724 -0.649192E-05  0.321E-03    0.96       2.0  T
   4   -422.3630717  0.736953E-06  0.232E-03    0.96       2.8  T
   5   -422.3630750 -0.336090E-05  0.768E-04    0.96       8.4  T
   6   -422.3630755 -0.444226E-06  0.202E-04    0.96      31.8  T
   7   -422.3630755 -0.336469E-07  0.875E-05    0.96      73.5  T
   8   -422.3630755 -0.772553E-08  0.229E-05    0.96     280.9  T
     SCC iter.                  ...        0 min,  2.233 sec
     gradient                   ...        0 min,  0.869 sec
 * total energy  :  -415.8330537 Eh     change       -0.8783641E-02 Eh
   gradient norm :     0.0281261 Eh/α   predicted    -0.8831400E-02 (   0.54%)
   displ. norm   :     0.8991032 α      lambda       -0.9321431E-02
   maximum displ.:     0.2768738 α      in ANC's #14, #55, #20, ...

........................................................................
.............................. CYCLE   26 ..............................
........................................................................
   1   -422.3740352 -0.422374E+03  0.113E-02    0.96       0.0  T
   2   -422.3740473 -0.121009E-04  0.695E-03    0.96       1.0  T
   3   -422.3740565 -0.914164E-05  0.353E-03    0.96       1.8  T
   4   -422.3740553  0.114018E-05  0.268E-03    0.96       2.4  T
   5   -422.3740598 -0.446946E-05  0.650E-04    0.96       9.9  T
   6   -422.3740601 -0.249026E-06  0.173E-04    0.96      37.2  T
   7   -422.3740601 -0.193870E-07  0.672E-05    0.96      95.7  T
     SCC iter.                  ...        0 min,  2.088 sec
     gradient                   ...        0 min,  0.857 sec
 * total energy  :  -415.8414958 Eh     change       -0.8442078E-02 Eh
   gradient norm :     0.0219322 Eh/α   predicted    -0.8428378E-02 (  -0.16%)
   displ. norm   :     0.9025308 α      lambda       -0.8372034E-02
   maximum displ.:     0.2957419 α      in ANC's #14, #20, #24, ...

........................................................................
.............................. CYCLE   27 ..............................
........................................................................
   1   -422.3804832 -0.422380E+03  0.947E-03    0.96       0.0  T
   2   -422.3804944 -0.112441E-04  0.628E-03    0.96       1.0  T
   3   -422.3805043 -0.992057E-05  0.248E-03    0.96       2.6  T
   4   -422.3805030  0.130876E-05  0.228E-03    0.96       2.8  T
   5   -422.3805063 -0.326397E-05  0.729E-04    0.96       8.8  T
   6   -422.3805065 -0.221058E-06  0.227E-04    0.96      28.3  T
   7   -422.3805066 -0.407871E-07  0.981E-05    0.96      65.5  T
   8   -422.3805066 -0.909318E-08  0.267E-05    0.96     241.1  T
     SCC iter.                  ...        0 min,  2.394 sec
     gradient                   ...        0 min,  0.857 sec
 * total energy  :  -415.8493378 Eh     change       -0.7841980E-02 Eh
   gradient norm :     0.0201030 Eh/α   predicted    -0.7595785E-02 (  -3.14%)
   displ. norm   :     0.9097134 α      lambda       -0.7914160E-02
   maximum displ.:     0.3116018 α      in ANC's #14, #20, #24, ...

........................................................................
.............................. CYCLE   28 ..............................
........................................................................
   1   -422.3921225 -0.422392E+03  0.102E-02    0.96       0.0  T
   2   -422.3921350 -0.124514E-04  0.749E-03    0.96       1.0  T
   3   -422.3921486 -0.136300E-04  0.284E-03    0.96       2.3  T
   4   -422.3921448  0.385035E-05  0.262E-03    0.96       2.5  T
   5   -422.3921500 -0.522547E-05  0.953E-04    0.96       6.7  T
   6   -422.3921505 -0.470606E-06  0.240E-04    0.96      26.7  T
   7   -422.3921505 -0.458306E-07  0.970E-05    0.96      66.3  T
   8   -422.3921505 -0.840311E-08  0.261E-05    0.96     246.4  T
     SCC iter.                  ...        0 min,  2.362 sec
     gradient                   ...        0 min,  0.851 sec
 * total energy  :  -415.8567727 Eh     change       -0.7434921E-02 Eh
   gradient norm :     0.0178103 Eh/α   predicted    -0.7231871E-02 (  -2.73%)
   displ. norm   :     0.9305221 α      lambda       -0.7508768E-02
   maximum displ.:     0.3287320 α      in ANC's #20, #14, #24, ...

........................................................................
.............................. CYCLE   29 ..............................
........................................................................
   1   -422.3835372 -0.422384E+03  0.827E-03    0.95       0.0  T
   2   -422.3835440 -0.674172E-05  0.540E-03    0.95       1.2  T
   3   -422.3835506 -0.666646E-05  0.234E-03    0.95       2.7  T
   4   -422.3835487  0.190208E-05  0.198E-03    0.95       3.2  T
   5   -422.3835522 -0.349368E-05  0.714E-04    0.95       9.0  T
   6   -422.3835524 -0.189080E-06  0.147E-04    0.95      43.8  T
   7   -422.3835524 -0.168397E-07  0.550E-05    0.95     117.0  T
     SCC iter.                  ...        0 min,  1.985 sec
     gradient                   ...        0 min,  0.801 sec
 * total energy  :  -415.8636797 Eh     change       -0.6907010E-02 Eh
   gradient norm :     0.0301295 Eh/α   predicted    -0.7005198E-02 (   1.42%)
   displ. norm   :     0.9075726 α      lambda       -0.7732587E-02
   maximum displ.:     0.3310118 α      in ANC's #14, #20, #24, ...

........................................................................
.............................. CYCLE   30 ..............................
........................................................................
   1   -422.4108039 -0.422411E+03  0.148E-02    0.95       0.0  T
   2   -422.4108275 -0.235333E-04  0.125E-02    0.95       1.0  T
   3   -422.4108558 -0.283562E-04  0.579E-03    0.95       1.1  T
   4   -422.4108328  0.230130E-04  0.492E-03    0.95       1.3  T
   5   -422.4108573 -0.245449E-04  0.901E-04    0.95       7.1  T
   6   -422.4108581 -0.709918E-06  0.248E-04    0.95      25.9  T
   7   -422.4108581 -0.332711E-07  0.997E-05    0.95      64.5  T
   8   -422.4108581 -0.720303E-08  0.334E-05    0.95     192.2  T
     SCC iter.                  ...        0 min,  2.325 sec
     gradient                   ...        0 min,  0.844 sec
 * total energy  :  -415.8702386 Eh     change       -0.6558924E-02 Eh
   gradient norm :     0.0273846 Eh/α   predicted    -0.7050914E-02 (   7.50%)
   displ. norm   :     0.9098194 α      lambda       -0.7009746E-02
   maximum displ.:     0.3441301 α      in ANC's #20, #14, #39, ...

........................................................................
.............................. CYCLE   31 ..............................
........................................................................
   1   -422.4012608 -0.422401E+03  0.720E-03    0.94       0.0  T
   2   -422.4012637 -0.289446E-05  0.469E-03    0.94       1.4  T
   3   -422.4012688 -0.507830E-05  0.259E-03    0.94       2.5  T
   4   -422.4012689 -0.923238E-07  0.175E-03    0.94       3.7  T
   5   -422.4012710 -0.211882E-05  0.615E-04    0.94      10.4  T
   6   -422.4012712 -0.195026E-06  0.187E-04    0.94      34.4  T
   7   -422.4012712 -0.325784E-07  0.558E-05    0.94     115.2  T
     SCC iter.                  ...        0 min,  2.061 sec
     gradient                   ...        0 min,  0.863 sec
 * total energy  :  -415.8765286 Eh     change       -0.6289977E-02 Eh
   gradient norm :     0.0281884 Eh/α   predicted    -0.6406106E-02 (   1.85%)
   displ. norm   :     0.9000347 α      lambda       -0.6433772E-02
   maximum displ.:     0.3534916 α      in ANC's #20, #14, #39, ...

........................................................................
.............................. CYCLE   32 ..............................
........................................................................
   1   -422.3964136 -0.422396E+03  0.667E-03    0.93       0.0  T
   2   -422.3964204 -0.675446E-05  0.430E-03    0.92       1.5  T
   3   -422.3964247 -0.430912E-05  0.227E-03    0.93       2.8  T
   4   -422.3964240  0.669652E-06  0.154E-03    0.92       4.2  T
   5   -422.3964255 -0.144626E-05  0.600E-04    0.93      10.7  T
   6   -422.3964257 -0.227367E-06  0.125E-04    0.93      51.4  T
   7   -422.3964257 -0.931703E-08  0.516E-05    0.93     124.5  T
     SCC iter.                  ...        0 min,  2.037 sec
     gradient                   ...        0 min,  0.780 sec
 * total energy  :  -415.8822636 Eh     change       -0.5734975E-02 Eh
   gradient norm :     0.0342116 Eh/α   predicted    -0.5822773E-02 (   1.53%)
   displ. norm   :     0.8790891 α      lambda       -0.6515774E-02
   maximum displ.:     0.3463572 α      in ANC's #20, #14, #24, ...

........................................................................
.............................. CYCLE   33 ..............................
........................................................................
   1   -422.3970797 -0.422397E+03  0.106E-02    0.92       0.0  T
   2   -422.3970868 -0.709971E-05  0.832E-03    0.92       1.0  T
   3   -422.3970969 -0.100650E-04  0.448E-03    0.92       1.4  T
   4   -422.3970904  0.649628E-05  0.333E-03    0.92       1.9  T
   5   -422.3971004 -0.100707E-04  0.788E-04    0.92       8.2  T
   6   -422.3971010 -0.504427E-06  0.266E-04    0.92      24.2  T
   7   -422.3971010 -0.630529E-07  0.830E-05    0.92      77.5  T
   8   -422.3971010 -0.673680E-08  0.195E-05    0.92     330.1  T
     SCC iter.                  ...        0 min,  2.325 sec
     gradient                   ...        0 min,  0.861 sec
 * total energy  :  -415.8876284 Eh     change       -0.5364799E-02 Eh
   gradient norm :     0.0361974 Eh/α   predicted    -0.5775576E-02 (   7.66%)
   displ. norm   :     0.8519017 α      lambda       -0.6418225E-02
   maximum displ.:     0.3534572 α      in ANC's #20, #14, #39, ...

........................................................................
.............................. CYCLE   34 ..............................
........................................................................
   1   -422.4206404 -0.422421E+03  0.999E-03    0.92       0.0  T
   2   -422.4206474 -0.702174E-05  0.791E-03    0.92       1.0  T
   3   -422.4206584 -0.110295E-04  0.411E-03    0.92       1.6  T
   4   -422.4206539  0.449799E-05  0.299E-03    0.92       2.1  T
   5   -422.4206605 -0.659556E-05  0.816E-04    0.92       7.9  T
   6   -422.4206611 -0.572459E-06  0.254E-04    0.92      25.3  T
   7   -422.4206612 -0.555144E-07  0.851E-05    0.92      75.5  T
   8   -422.4206612 -0.746445E-08  0.294E-05    0.92     218.9  T
     SCC iter.                  ...        0 min,  2.185 sec
     gradient                   ...        0 min,  0.771 sec
 * total energy  :  -415.8929234 Eh     change       -0.5295000E-02 Eh
   gradient norm :     0.0250632 Eh/α   predicted    -0.5538087E-02 (   4.59%)
   displ. norm   :     0.8871772 α      lambda       -0.5569490E-02
   maximum displ.:     0.3668378 α      in ANC's #20, #14, #39, ...

........................................................................
.............................. CYCLE   35 ..............................
........................................................................
   1   -422.4123222 -0.422412E+03  0.727E-03    0.91       0.0  T
   2   -422.4123293 -0.707459E-05  0.581E-03    0.91       1.1  T
   3   -422.4123392 -0.995518E-05  0.281E-03    0.91       2.3  T
   4   -422.4123372  0.207229E-05  0.240E-03    0.91       2.7  T
   5   -422.4123406 -0.347752E-05  0.578E-04    0.91      11.1  T
   6   -422.4123408 -0.130034E-06  0.174E-04    0.91      37.0  T
   7   -422.4123408 -0.237799E-07  0.621E-05    0.91     103.6  T
     SCC iter.                  ...        0 min,  1.962 sec
     gradient                   ...        0 min,  0.850 sec
 * total energy  :  -415.8978070 Eh     change       -0.4883594E-02 Eh
   gradient norm :     0.0318863 Eh/α   predicted    -0.4976575E-02 (   1.90%)
   displ. norm   :     0.8595633 α      lambda       -0.5715573E-02
   maximum displ.:     0.3708067 α      in ANC's #20, #14, #39, ...

........................................................................
.............................. CYCLE   36 ..............................
........................................................................
   1   -422.4264277 -0.422426E+03  0.774E-03    0.92       0.0  T
   2   -422.4264325 -0.479596E-05  0.684E-03    0.91       1.0  T
   3   -422.4264444 -0.119061E-04  0.294E-03    0.91       2.2  T
   4   -422.4264419  0.251063E-05  0.253E-03    0.91       2.5  T
   5   -422.4264450 -0.307563E-05  0.679E-04    0.91       9.5  T
   6   -422.4264453 -0.331696E-06  0.209E-04    0.91      30.7  T
   7   -422.4264453 -0.303772E-07  0.581E-05    0.91     110.6  T
   8   -422.4264453 -0.264146E-08  0.225E-05    0.91     285.9  T
     SCC iter.                  ...        0 min,  2.262 sec
     gradient                   ...        0 min,  0.853 sec
 * total energy  :  -415.9026644 Eh     change       -0.4857395E-02 Eh
   gradient norm :     0.0306327 Eh/α   predicted    -0.4969268E-02 (   2.30%)
   displ. norm   :     0.8957982 α      lambda       -0.5461112E-02
   maximum displ.:     0.3966675 α      in ANC's #20, #14, #39, ...

........................................................................
.............................. CYCLE   37 ..............................
........................................................................
   1   -422.4108175 -0.422411E+03  0.744E-03    0.91       0.0  T
   2   -422.4108242 -0.667984E-05  0.495E-03    0.91       1.3  T
   3   -422.4108276 -0.342596E-05  0.250E-03    0.91       2.6  T
   4   -422.4108264  0.118605E-05  0.195E-03    0.91       3.3  T
   5   -422.4108285 -0.208194E-05  0.598E-04    0.91      10.7  T
   6   -422.4108288 -0.265342E-06  0.183E-04    0.91      35.2  T
   7   -422.4108288 -0.281333E-07  0.587E-05    0.91     109.6  T
     SCC iter.                  ...        0 min,  2.063 sec
     gradient                   ...        0 min,  0.853 sec
 * total energy  :  -415.9072620 Eh     change       -0.4597656E-02 Eh
   gradient norm :     0.0342225 Eh/α   predicted    -0.4921702E-02 (   7.05%)
   displ. norm   :     0.8315224 α      lambda       -0.5300902E-02
   maximum displ.:     0.3631414 α      in ANC's #20, #14, #23, ...

........................................................................
.............................. CYCLE   38 ..............................
........................................................................
   1   -422.4197331 -0.422420E+03  0.101E-02    0.91       0.0  T
   2   -422.4197412 -0.813759E-05  0.677E-03    0.91       1.0  T
   3   -422.4197487 -0.744104E-05  0.344E-03    0.91       1.9  T
   4   -422.4197460  0.265085E-05  0.270E-03    0.91       2.4  T
   5   -422.4197507 -0.473421E-05  0.605E-04    0.91      10.6  T
   6   -422.4197510 -0.274033E-06  0.208E-04    0.91      30.9  T
   7   -422.4197510 -0.295427E-07  0.586E-05    0.91     109.6  T
   8   -422.4197510 -0.187066E-08  0.305E-05    0.91     211.0  T
     SCC iter.                  ...        0 min,  2.348 sec
     gradient                   ...        0 min,  0.846 sec
 * total energy  :  -415.9118063 Eh     change       -0.4544251E-02 Eh
   gradient norm :     0.0260653 Eh/α   predicted    -0.4483052E-02 (  -1.35%)
   displ. norm   :     0.8709713 α      lambda       -0.5042813E-02
   maximum displ.:     0.3884908 α      in ANC's #20, #14, #24, ...

........................................................................
.............................. CYCLE   39 ..............................
........................................................................
   1   -422.4290278 -0.422429E+03  0.716E-03    0.91       0.0  T
   2   -422.4290324 -0.464898E-05  0.528E-03    0.91       1.2  T
   3   -422.4290377 -0.522196E-05  0.249E-03    0.91       2.6  T
   4   -422.4290361  0.152936E-05  0.203E-03    0.91       3.2  T
   5   -422.4290384 -0.228811E-05  0.541E-04    0.91      11.9  T
   6   -422.4290387 -0.265401E-06  0.166E-04    0.91      38.8  T
   7   -422.4290387 -0.182308E-07  0.615E-05    0.91     104.5  T
     SCC iter.                  ...        0 min,  2.020 sec
     gradient                   ...        0 min,  0.838 sec
 * total energy  :  -415.9162674 Eh     change       -0.4461075E-02 Eh
   gradient norm :     0.0244996 Eh/α   predicted    -0.4434123E-02 (  -0.60%)
   displ. norm   :     0.8760578 α      lambda       -0.4938568E-02
   maximum displ.:     0.3855200 α      in ANC's #20, #14, #23, ...

........................................................................
.............................. CYCLE   40 ..............................
........................................................................
   1   -422.4310105 -0.422431E+03  0.607E-03    0.91       0.0  T
   2   -422.4310138 -0.330617E-05  0.364E-03    0.91       1.8  T
   3   -422.4310153 -0.151032E-05  0.207E-03    0.91       3.1  T
   4   -422.4310152  0.181710E-06  0.150E-03    0.91       4.3  T
   5   -422.4310164 -0.125893E-05  0.346E-04    0.91      18.6  T
   6   -422.4310165 -0.678854E-07  0.120E-04    0.91      53.8  T
   7   -422.4310165 -0.752789E-08  0.496E-05    0.91     129.6  T
     SCC iter.                  ...        0 min,  2.042 sec
     gradient                   ...        0 min,  0.840 sec
 * total energy  :  -415.9207510 Eh     change       -0.4483685E-02 Eh
   gradient norm :     0.0202216 Eh/α   predicted    -0.4364414E-02 (  -2.66%)
   displ. norm   :     0.8933838 α      lambda       -0.4820386E-02
   maximum displ.:     0.3924378 α      in ANC's #20, #14, #23, ...

........................................................................
.............................. CYCLE   41 ..............................
........................................................................
   1   -422.4351314 -0.422435E+03  0.575E-03    0.90       0.0  T
   2   -422.4351360 -0.456531E-05  0.350E-03    0.91       1.8  T
   3   -422.4351393 -0.330632E-05  0.138E-03    0.91       4.7  T
   4   -422.4351392  0.867151E-07  0.108E-03    0.91       6.0  T
   5   -422.4351396 -0.428053E-06  0.466E-04    0.91      13.8  T
   6   -422.4351397 -0.859571E-07  0.136E-04    0.91      47.4  T
   7   -422.4351397 -0.134820E-07  0.469E-05    0.91     137.0  T
     SCC iter.                  ...        0 min,  2.042 sec
     gradient                   ...        0 min,  0.843 sec
 * total energy  :  -415.9251544 Eh     change       -0.4403328E-02 Eh
   gradient norm :     0.0207172 Eh/α   predicted    -0.4333861E-02 (  -1.58%)
   displ. norm   :     0.8870197 α      lambda       -0.4637226E-02
   maximum displ.:     0.3955763 α      in ANC's #14, #20, #23, ...

........................................................................
.............................. CYCLE   42 ..............................
........................................................................
   1   -422.4335694 -0.422434E+03  0.754E-03    0.90       0.0  T
   2   -422.4335746 -0.520040E-05  0.542E-03    0.91       1.2  T
   3   -422.4335827 -0.812552E-05  0.194E-03    0.91       3.3  T
   4   -422.4335818  0.935999E-06  0.170E-03    0.91       3.8  T
   5   -422.4335833 -0.154121E-05  0.637E-04    0.91      10.1  T
   6   -422.4335836 -0.250987E-06  0.144E-04    0.91      44.5  T
   7   -422.4335836 -0.177782E-07  0.505E-05    0.91     127.2  T
     SCC iter.                  ...        0 min,  2.036 sec
     gradient                   ...        0 min,  0.837 sec
 * total energy  :  -415.9293115 Eh     change       -0.4157160E-02 Eh
   gradient norm :     0.0180795 Eh/α   predicted    -0.4142918E-02 (  -0.34%)
   displ. norm   :     0.9023853 α      lambda       -0.4348217E-02
   maximum displ.:     0.4018462 α      in ANC's #14, #20, #23, ...
 * RMSD in coord.:     1.1076147 α      energy gain  -0.1426162E+00 Eh

generating ANC from model Hessian ...
Using Lindh-Hessian (1995)
 Shifting diagonal of input Hessian by    1.0015907575989982E-002
 Lowest  eigenvalues of input Hessian
    0.010000    0.010003    0.010004    0.010006    0.010008    0.010008
    0.010011    0.010014    0.000000    0.000000    0.000000    0.000000
    0.000000    0.000000    0.010018    0.010058    0.010080    0.010096
 Highest eigenvalues
    2.322671    2.376198    2.407764    2.868329    2.893200    2.938354


........................................................................
.............................. CYCLE   43 ..............................
........................................................................
   1   -422.4257270 -0.422426E+03  0.681E-03    0.90       0.0  T
   2   -422.4257328 -0.580540E-05  0.402E-03    0.90       1.6  T
   3   -422.4257355 -0.267049E-05  0.210E-03    0.90       3.1  T
   4   -422.4257348  0.639204E-06  0.154E-03    0.90       4.2  T
   5   -422.4257363 -0.147293E-05  0.428E-04    0.90      15.0  T
   6   -422.4257364 -0.999784E-07  0.136E-04    0.90      47.4  T
   7   -422.4257364 -0.107436E-07  0.434E-05    0.90     148.1  T
     SCC iter.                  ...        0 min,  1.985 sec
     gradient                   ...        0 min,  0.783 sec
 * total energy  :  -415.9330538 Eh     change       -0.3742244E-02 Eh
   gradient norm :     0.0296264 Eh/α   predicted     0.0000000E+00 (-100.00%)
   displ. norm   :     0.3266023 α      lambda       -0.2115543E-02
   maximum displ.:     0.1024585 α      in ANC's #48, #11, #26, ...

........................................................................
.............................. CYCLE   44 ..............................
........................................................................
   1   -422.4346473 -0.422435E+03  0.333E-03    0.90       0.0  T
   2   -422.4346496 -0.233124E-05  0.258E-03    0.90       2.5  T
   3   -422.4346514 -0.176465E-05  0.118E-03    0.90       5.4  T
   4   -422.4346510  0.379086E-06  0.101E-03    0.90       6.3  T
   5   -422.4346516 -0.545004E-06  0.308E-04    0.90      20.9  T
   6   -422.4346516 -0.359051E-07  0.995E-05    0.90      64.6  T
   7   -422.4346516 -0.678830E-08  0.302E-05    0.90     212.5  T
     SCC iter.                  ...        0 min,  2.005 sec
     gradient                   ...        0 min,  0.829 sec
 * total energy  :  -415.9347715 Eh     change       -0.1717683E-02 Eh
   gradient norm :     0.0094290 Eh/α   predicted    -0.1173704E-02 ( -31.67%)
   displ. norm   :     0.7144676 α      lambda       -0.3316745E-02
   maximum displ.:     0.2106983 α      in ANC's #48, #26, #10, ...

........................................................................
.............................. CYCLE   45 ..............................
........................................................................
   1   -422.4387709 -0.422439E+03  0.559E-03    0.90       0.0  T
   2   -422.4387763 -0.540884E-05  0.421E-03    0.90       1.5  T
   3   -422.4387822 -0.585715E-05  0.156E-03    0.90       4.1  T
   4   -422.4387816  0.575664E-06  0.159E-03    0.90       4.0  T
   5   -422.4387828 -0.125565E-05  0.422E-04    0.90      15.2  T
   6   -422.4387829 -0.442540E-07  0.150E-04    0.90      42.8  T
   7   -422.4387829 -0.143356E-07  0.511E-05    0.90     125.8  T
     SCC iter.                  ...        0 min,  2.036 sec
     gradient                   ...        0 min,  0.771 sec
 * total energy  :  -415.9372745 Eh     change       -0.2503028E-02 Eh
   gradient norm :     0.0261598 Eh/α   predicted    -0.2504916E-02 (   0.08%)
   displ. norm   :     0.7863482 α      lambda       -0.3405121E-02
   maximum displ.:     0.2319174 α      in ANC's #48, #11, #26, ...

........................................................................
.............................. CYCLE   46 ..............................
........................................................................
   1   -422.4320841 -0.422432E+03  0.553E-03    0.90       0.0  T
   2   -422.4320873 -0.319370E-05  0.355E-03    0.90       1.8  T
   3   -422.4320898 -0.254995E-05  0.173E-03    0.90       3.7  T
   4   -422.4320895  0.329434E-06  0.152E-03    0.90       4.2  T
   5   -422.4320908 -0.130624E-05  0.401E-04    0.90      16.0  T
   6   -422.4320909 -0.106056E-06  0.960E-05    0.90      66.9  T
   7   -422.4320909 -0.574238E-08  0.401E-05    0.90     160.2  T
     SCC iter.                  ...        0 min,  2.015 sec
     gradient                   ...        0 min,  0.836 sec
 * total energy  :  -415.9400787 Eh     change       -0.2804206E-02 Eh
   gradient norm :     0.0244562 Eh/α   predicted    -0.2755331E-02 (  -1.74%)
   displ. norm   :     0.7959109 α      lambda       -0.2956114E-02
   maximum displ.:     0.2241117 α      in ANC's #10, #26, #11, ...

........................................................................
.............................. CYCLE   47 ..............................
........................................................................
   1   -422.4250414 -0.422425E+03  0.566E-03    0.89       0.0  T
   2   -422.4250439 -0.249895E-05  0.342E-03    0.89       1.9  T
   3   -422.4250447 -0.802771E-06  0.224E-03    0.89       2.9  T
   4   -422.4250443  0.349029E-06  0.141E-03    0.89       4.6  T
   5   -422.4250461 -0.173763E-05  0.468E-04    0.89      13.7  T
   6   -422.4250463 -0.193211E-06  0.106E-04    0.89      60.5  T
   7   -422.4250463 -0.661692E-08  0.308E-05    0.89     208.6  T
     SCC iter.                  ...        0 min,  2.188 sec
     gradient                   ...        0 min,  0.792 sec
 * total energy  :  -415.9426935 Eh     change       -0.2614757E-02 Eh
   gradient norm :     0.0157812 Eh/α   predicted    -0.2414375E-02 (  -7.66%)
   displ. norm   :     0.8141830 α      lambda       -0.3181093E-02
   maximum displ.:     0.2354138 α      in ANC's #10, #11, #26, ...

........................................................................
.............................. CYCLE   48 ..............................
........................................................................
   1   -422.4204105 -0.422420E+03  0.525E-03    0.89       0.0  T
   2   -422.4204134 -0.289934E-05  0.366E-03    0.89       1.8  T
   3   -422.4204172 -0.377740E-05  0.186E-03    0.89       3.5  T
   4   -422.4204175 -0.268950E-06  0.151E-03    0.89       4.3  T
   5   -422.4204186 -0.110477E-05  0.425E-04    0.89      15.1  T
   6   -422.4204187 -0.111205E-06  0.131E-04    0.89      49.0  T
   7   -422.4204187 -0.127112E-07  0.412E-05    0.89     156.0  T
     SCC iter.                  ...        0 min,  2.043 sec
     gradient                   ...        0 min,  0.837 sec
 * total energy  :  -415.9453616 Eh     change       -0.2668141E-02 Eh
   gradient norm :     0.0143652 Eh/α   predicted    -0.2644912E-02 (  -0.87%)
   displ. norm   :     0.8060168 α      lambda       -0.2872533E-02
   maximum displ.:     0.2512912 α      in ANC's #10, #11, #26, ...

........................................................................
.............................. CYCLE   49 ..............................
........................................................................
   1   -422.4233233 -0.422423E+03  0.538E-03    0.88       0.0  T
   2   -422.4233257 -0.239038E-05  0.312E-03    0.88       2.1  T
[...]
   240   1 H    1.003 --   217 C    0.974
   241   1 H    1.005 --   219 C    0.972
   242   1 H    1.002 --   220 C    0.973
 ---------------------------------------------------------------------------

Topologies differ in total number of bonds
Writing topology from bond orders to xtbtopo.mol

 dipole moment from electron density (au)
     X       Y       Z   
   0.7449   0.1177   0.0412  total (Debye):    1.920

           -------------------------------------------------
          |                Geometry Summary                 |
           -------------------------------------------------

      molecular mass/u    :     2239.0025458
   center of mass at/Å    :       61.9195331       0.6311195       0.5185142
  moments of inertia/u·Å² :        0.3478581E+05   0.5038821E+06   0.5225225E+06
rotational constants/cm⁻¹ :        0.4846123E-03   0.3345551E-04   0.3226202E-04

 * 232 selected distances

     #   Z          #   Z                                           value/Å
     2   6 C        3   6 C                                       1.3793085
     3   6 C        4   6 C                                       1.4307213
     4   6 C        5   6 C                                       1.3537164
     5   6 C        6   6 C                                       1.4335182
     3   6 C        7   7 N                                       1.3726424
     6   6 C        7   7 N                                       1.3730241
     6   6 C        8   6 C                                       1.3888916
     9   6 C       10   6 C                                       1.3411776
    11   6 C       12   7 N                                       1.4654406
    12   7 N       13   6 C                                       1.3706731
    13   6 C       14   6 C                                       1.3447458
     8   6 C       15   6 C                                       1.3886117
    15   6 C       16   6 C                                       1.4313035
    16   6 C       17   6 C                                       1.3546234
    15   6 C       18   7 N                                       1.3769232
    17   6 C       19   6 C                                       1.4281001
    18   7 N       19   6 C                                       1.3681088
    19   6 C       20   6 C                                       1.3966068
    20   6 C       21   6 C                                       1.3965558
    21   6 C       22   6 C                                       1.4282815
    22   6 C       23   6 C                                       1.3545543
    23   6 C       24   6 C                                       1.4312253
    21   6 C       25   7 N                                       1.3684505
    24   6 C       25   7 N                                       1.3766187
    24   6 C       26   6 C                                       1.3887189
    27   6 C       28   6 C                                       1.3411675
    29   6 C       30   7 N                                       1.4654200
    30   7 N       31   6 C                                       1.3702688
    31   6 C       32   6 C                                       1.3448394
    26   6 C       33   6 C                                       1.3886066
    33   6 C       34   6 C                                       1.4335757
    34   6 C       35   6 C                                       1.3537271
     2   6 C       36   6 C                                       1.3794339
    35   6 C       36   6 C                                       1.4306877
    33   6 C       37   7 N                                       1.3732676
    36   6 C       37   7 N                                       1.3723934
     2   6 C       38   1 H                                       1.0838643
     4   6 C       39   1 H                                       1.0785237
     5   6 C       40   1 H                                       1.0778665
    10   6 C       41   1 H                                       1.0837741
    11   6 C       42   1 H                                       1.0983806
    11   6 C       43   1 H                                       1.1062974
    12   7 N       44   1 H                                       1.0097375
    13   6 C       45   1 H                                       1.0853532
    14   6 C       46   1 H                                       1.0806942
    16   6 C       47   1 H                                       1.0777555
    17   6 C       48   1 H                                       1.0781167
    22   6 C       49   1 H                                       1.0780955
    23   6 C       50   1 H                                       1.0777811
    28   6 C       51   1 H                                       1.0837900
    29   6 C       52   1 H                                       1.0985809
    29   6 C       53   1 H                                       1.1061812
    30   7 N       54   1 H                                       1.0096442 (min)
    31   6 C       55   1 H                                       1.0853549
    32   6 C       56   1 H                                       1.0806728
    34   6 C       57   1 H                                       1.0778642
    35   6 C       58   1 H                                       1.0785349
    60   6 C       61   6 C                                       1.3799203
    61   6 C       62   6 C                                       1.4307424
    62   6 C       63   6 C                                       1.3541297
    63   6 C       64   6 C                                       1.4335557
    61   6 C       65   7 N                                       1.3724787
    64   6 C       65   7 N                                       1.3731467
    64   6 C       66   6 C                                       1.3892015
    67   6 C       68   6 C                                       1.3413991
    69   6 C       70   7 N                                       1.4653853
    70   7 N       71   6 C                                       1.3709350
    71   6 C       72   6 C                                       1.3445802
    66   6 C       73   6 C                                       1.3894241
    73   6 C       74   6 C                                       1.4311787
    74   6 C       75   6 C                                       1.3549910
    73   6 C       76   7 N                                       1.3763302
    75   6 C       77   6 C                                       1.4282719
    76   7 N       77   6 C                                       1.3685412
    77   6 C       78   6 C                                       1.3974046
    78   6 C       79   6 C                                       1.3963708
    79   6 C       80   6 C                                       1.4281565
    80   6 C       81   6 C                                       1.3551021
    81   6 C       82   6 C                                       1.4314114
    79   6 C       83   7 N                                       1.3687598
    82   6 C       83   7 N                                       1.3762448
    82   6 C       84   6 C                                       1.3894051
    85   6 C       86   6 C                                       1.3414579
    87   6 C       88   7 N                                       1.4654515 (max)
    88   7 N       89   6 C                                       1.3704211
    89   6 C       90   6 C                                       1.3447523
    84   6 C       91   6 C                                       1.3893747
    91   6 C       92   6 C                                       1.4336924
    92   6 C       93   6 C                                       1.3540529
    60   6 C       94   6 C                                       1.3798247
    93   6 C       94   6 C                                       1.4307709
    91   6 C       95   7 N                                       1.3729776
    94   6 C       95   7 N                                       1.3726831
    60   6 C       96   1 H                                       1.0838370
    62   6 C       97   1 H                                       1.0785435
    63   6 C       98   1 H                                       1.0778949
    68   6 C       99   1 H                                       1.0837567
    69   6 C      100   1 H                                       1.0983183
    69   6 C      101   1 H                                       1.1063069
    70   7 N      102   1 H                                       1.0097804
    71   6 C      103   1 H                                       1.0853270
    72   6 C      104   1 H                                       1.0807152
    74   6 C      105   1 H                                       1.0777889
    75   6 C      106   1 H                                       1.0780818
    80   6 C      107   1 H                                       1.0782028
    81   6 C      108   1 H                                       1.0778391
    86   6 C      109   1 H                                       1.0838018
    87   6 C      110   1 H                                       1.0985725
    87   6 C      111   1 H                                       1.1061917
    88   7 N      112   1 H                                       1.0096847
    89   6 C      113   1 H                                       1.0853395
    90   6 C      114   1 H                                       1.0806895
    92   6 C      115   1 H                                       1.0778910
    93   6 C      116   1 H                                       1.0785446
   117   6 C      118   6 C                                       1.2210290
   119   6 C      120   6 C                                       1.2211212
   121   6 C      122   6 C                                       1.2219006
   123   6 C      124   6 C                                       1.2218924
   125   6 C      126   6 C                                       1.2210296
   127   6 C      128   6 C                                       1.2208797
   130   6 C      131   6 C                                       1.3981923
   131   6 C      132   6 C                                       1.4276106
   132   6 C      133   6 C                                       1.3556643
   133   6 C      134   6 C                                       1.4309385
   131   6 C      135   7 N                                       1.3674161
   134   6 C      135   7 N                                       1.3770373
   134   6 C      136   6 C                                       1.3886534
   137   6 C      138   6 C                                       1.3417137
   139   6 C      140   7 N                                       1.4651816
   140   7 N      141   6 C                                       1.3703000
   141   6 C      142   6 C                                       1.3447765
   136   6 C      143   6 C                                       1.3894040
   143   6 C      144   6 C                                       1.4304787
   144   6 C      145   6 C                                       1.3557963
   143   6 C      146   7 N                                       1.3760712
   145   6 C      147   6 C                                       1.4277975
   146   7 N      147   6 C                                       1.3679196
   147   6 C      148   6 C                                       1.3983022
   148   6 C      149   6 C                                       1.3989272
   149   6 C      150   6 C                                       1.4273080
   150   6 C      151   6 C                                       1.3558461
   151   6 C      152   6 C                                       1.4309003
   149   6 C      153   7 N                                       1.3672865
   152   6 C      153   7 N                                       1.3775854
   152   6 C      154   6 C                                       1.3888974
   155   6 C      156   6 C                                       1.3414292
   157   6 C      158   7 N                                       1.4653950
   158   7 N      159   6 C                                       1.3702764
   159   6 C      160   6 C                                       1.3447156
   154   6 C      161   6 C                                       1.3898137
   161   6 C      162   6 C                                       1.4307225
   162   6 C      163   6 C                                       1.3554696
   130   6 C      164   6 C                                       1.3971751
   163   6 C      164   6 C                                       1.4281676
   161   6 C      165   7 N                                       1.3755633
   164   6 C      165   7 N                                       1.3685650
   132   6 C      166   1 H                                       1.0781463
   133   6 C      167   1 H                                       1.0777227
   138   6 C      168   1 H                                       1.0837932
   139   6 C      169   1 H                                       1.1063166
   139   6 C      170   1 H                                       1.0985126
   140   7 N      171   1 H                                       1.0097071
   141   6 C      172   1 H                                       1.0853245
   142   6 C      173   1 H                                       1.0806819
   144   6 C      174   1 H                                       1.0779950
   145   6 C      175   1 H                                       1.0781555
   150   6 C      176   1 H                                       1.0781766
   151   6 C      177   1 H                                       1.0777044
   156   6 C      178   1 H                                       1.0837251
   157   6 C      179   1 H                                       1.1061562
   157   6 C      180   1 H                                       1.0985070
   158   7 N      181   1 H                                       1.0096643
   159   6 C      182   1 H                                       1.0853285
   160   6 C      183   1 H                                       1.0806682
   162   6 C      184   1 H                                       1.0778452
   163   6 C      185   1 H                                       1.0781477
   187   6 C      188   6 C                                       1.3985134
   188   6 C      189   6 C                                       1.4276036
   189   6 C      190   6 C                                       1.3552442
   190   6 C      191   6 C                                       1.4308087
   188   6 C      192   7 N                                       1.3668566
   191   6 C      192   7 N                                       1.3778347
   191   6 C      193   6 C                                       1.3875347
   194   6 C      195   6 C                                       1.3411668
   196   6 C      197   7 N                                       1.4653674
   197   7 N      198   6 C                                       1.3703630
   198   6 C      199   6 C                                       1.3447450
   193   6 C      200   6 C                                       1.3890860
   200   6 C      201   6 C                                       1.4306214
   201   6 C      202   6 C                                       1.3550659
   200   6 C      203   7 N                                       1.3754169
   202   6 C      204   6 C                                       1.4281053
   203   7 N      204   6 C                                       1.3685784
   204   6 C      205   6 C                                       1.3967902
   205   6 C      206   6 C                                       1.3973489
   206   6 C      207   6 C                                       1.4275249
   207   6 C      208   6 C                                       1.3551904
   208   6 C      209   6 C                                       1.4309798
   206   6 C      210   7 N                                       1.3676484
   209   6 C      210   7 N                                       1.3772752
   209   6 C      211   6 C                                       1.3884543
   212   6 C      213   6 C                                       1.3411191
   214   6 C      215   7 N                                       1.4653583
   215   7 N      216   6 C                                       1.3705710
   216   6 C      217   6 C                                       1.3446840
   211   6 C      218   6 C                                       1.3889996
   218   6 C      219   6 C                                       1.4306357
   219   6 C      220   6 C                                       1.3549836
   187   6 C      221   6 C                                       1.3977823
   220   6 C      221   6 C                                       1.4280082
   218   6 C      222   7 N                                       1.3761254
   221   6 C      222   7 N                                       1.3680543
   189   6 C      223   1 H                                       1.0781299
   190   6 C      224   1 H                                       1.0776912
   195   6 C      225   1 H                                       1.0837576
   196   6 C      226   1 H                                       1.1062594
   196   6 C      227   1 H                                       1.0985781
   197   7 N      228   1 H                                       1.0097585
   198   6 C      229   1 H                                       1.0853158
   199   6 C      230   1 H                                       1.0806855
   201   6 C      231   1 H                                       1.0779470
   202   6 C      232   1 H                                       1.0780840
   207   6 C      233   1 H                                       1.0781227
   208   6 C      234   1 H                                       1.0776164
   213   6 C      235   1 H                                       1.0837065
   214   6 C      236   1 H                                       1.1061910
   214   6 C      237   1 H                                       1.0983810
   215   7 N      238   1 H                                       1.0097049
   216   6 C      239   1 H                                       1.0853151
   217   6 C      240   1 H                                       1.0806676
   219   6 C      241   1 H                                       1.0777737
   220   6 C      242   1 H                                       1.0780942

 * 4 distinct bonds (by element types)

   Z      Z             #   av. dist./Å        max./Å        min./Å
   1 H    6 C          74     1.0851398     1.1063166     1.0776164
   6 C    6 C         102     1.3800923     1.4336924     1.2208797
   1 H    7 N           8     1.0097102     1.0097804     1.0096442
   6 C    7 N          48     1.3875965     1.4654515     1.3668566


optimized geometry written to: xtbopt.xyz


           -------------------------------------------------
          | TOTAL ENERGY             -415.991421229530 Eh   |
          | GRADIENT NORM               0.000590986005 Eh/α |
          | HOMO-LUMO GAP               0.888594243512 eV   |
           -------------------------------------------------

------------------------------------------------------------------------
 * finished run on 2022/07/30 at 03:30:05.017     
------------------------------------------------------------------------
 total:
 * wall-time:     0 d,  0 h, 10 min, 15.552 sec
 *  cpu-time:     0 d,  0 h, 10 min, 11.305 sec
 * ratio c/w:     0.993 speedup
 SCF:
 * wall-time:     0 d,  0 h,  0 min, 40.145 sec
 *  cpu-time:     0 d,  0 h,  0 min, 39.851 sec
 * ratio c/w:     0.993 speedup
 ANC optimizer:
 * wall-time:     0 d,  0 h,  9 min, 35.090 sec
 *  cpu-time:     0 d,  0 h,  9 min, 31.143 sec
 * ratio c/w:     0.993 speedup

