242
 energy: -414.539667225077 gnorm: 0.877873807111 xtb: 6.5.1 (b24c23e)
Ni          43.44509800000000        0.48929000000000        0.37263200000000
C           40.11055500000000        0.36312500000000        0.33097300000000
C           40.77144599999999       -0.79827400000000        0.33174100000000
C           40.11956199999999       -2.10095600000000        0.38213800000000
C           41.05825600000000       -3.02784500000000        0.32728300000000
C           42.36314099999999       -2.35983800000000        0.22803000000000
N           42.18754200000000       -0.94245100000000        0.24240700000000
C           43.55357800000000       -2.98604300000000        0.11316700000000
C           43.60482099999999       -4.46669200000000        0.06388700000000
C           43.13411900000000       -5.12734600000000       -1.00492600000000
C           43.12325900000000       -6.63298600000000       -1.07911800000000
N           43.92692000000000       -7.25044900000000       -0.02099200000000
C           44.37367400000000       -6.52216600000000        1.12733600000000
C           44.22449099999999       -5.20081600000000        1.18396700000000
C           44.84396900000000       -2.25149900000000        0.03597900000000
C           46.12425000000000       -2.88103200000000       -0.31149600000000
C           47.05875399999999       -1.95356400000000       -0.25121800000000
N           44.98973899999999       -0.98839300000000        0.29522800000000
C           46.38275500000000       -0.72136200000000        0.13459300000000
C           46.97876600000000        0.45831600000000        0.37418600000000
C           46.21474300000000        1.66759700000000        0.74952400000000
C           46.73887599999999        2.72920300000000        1.34945500000000
C           45.69676700000000        3.73505400000000        1.43278200000000
C           44.60683599999999        3.22131600000000        0.87302800000000
N           44.84498300000000        1.88947200000000        0.41546600000000
C           43.33571100000000        3.96207400000000        0.67241400000000
C           43.37493200000000        5.44596900000000        0.67774500000000
C           42.69826499999999        6.14440700000000        1.60476000000000
C           42.67383600000000        7.65146300000000        1.61603800000000
N           43.68062399999999        8.23458800000000        0.72544800000000
C           44.35690700000000        7.46619700000000       -0.27561000000000
C           44.21834700000000        6.14286900000000       -0.31350100000000
C           42.17436700000000        3.31367900000000        0.45886300000000
C           40.87292900000000        3.92667100000000        0.19739800000000
C           40.00962200000000        2.93241900000000        0.11300700000000
C           40.75152099999999        1.68748500000000        0.30510500000000
N           42.01353400000000        1.89756100000000        0.50737700000000
H           39.02732800000000        0.33813400000000        0.34578800000000
H           39.05666500000000       -2.29198500000000        0.45526300000000
H           40.86892400000000       -4.09258800000000        0.35008500000000
H           42.68709100000000       -4.57727100000000       -1.82516600000000
H           43.52056099999999       -6.94907500000000       -2.06737400000000
H           42.07474100000000       -6.98702200000000       -0.99051900000000
H           44.07773500000000       -8.28334200000000       -0.04774800000000
H           44.85541700000000       -7.04697500000000        1.94286200000000
H           44.58368700000000       -4.65879400000000        2.05101100000000
H           46.29165099999999       -3.91765200000000       -0.57364000000000
H           48.10990200000000       -2.10862400000000       -0.45255000000000
H           47.76030600000000        2.84272400000000        1.68775900000000
H           45.80075599999999        4.73028100000000        1.84592500000000
H           42.09865400000000        5.62232000000000        2.34140600000000
H           42.85878599999999        8.00485000000000        2.65213100000000
H           41.66617599999999        7.99501300000000        1.30052900000000
H           43.82330200000000        9.26839200000000        0.74160800000000
H           44.99772500000000        7.96333500000000       -0.99313200000000
H           44.74677700000000        5.57222300000000       -1.06777800000000
H           40.63477900000000        4.97653200000000        0.08973000000000
H           38.94719700000000        3.03482100000000       -0.06851800000000
Ni          80.40891700000000        0.42839700000000        0.36602000000000
C           83.74345999999998        0.56056400000000        0.35241200000000
C           83.08256900000001        1.69473000000000        0.60244500000000
C           83.73445300000000        2.95623300000000        0.93127500000000
C           82.79575900000000        3.87329400000000        1.07664600000000
C           81.49087400000001        3.24215900000000        0.83632500000000
N           81.66647300000000        1.85472100000000        0.54614000000000
C           80.30043700000000        3.87842400000000        0.85854800000000
C           80.24919400000000        5.33514100000000        1.12822300000000
C           80.71989599999999        6.20980800000000        0.22612300000000
C           80.73075600000000        7.69628000000000        0.47683100000000
N           79.92709499999999        8.07223600000000        1.64282800000000
C           79.48034100000000        7.11445000000000        2.60807300000000
C           79.62952400000000        5.81174100000000        2.37977000000000
C           79.01004500000001        3.17756700000000        0.62549700000000
C           77.72976500000000        3.86701000000000        0.42124300000000
C           76.79526100000000        2.94822000000000        0.28104500000000
N           78.86427600000000        1.88825500000000        0.60759000000000
C           77.47125900000000        1.66192600000000        0.39338400000000
C           76.87524900000000        0.45831600000000        0.37418600000000
C           77.63927200000001       -0.80334300000000        0.48121600000000
C           77.11513900000000       -1.96897500000000        0.83930100000000
C           78.15724700000000       -2.96926800000000        0.70479000000000
C           79.24717800000001       -2.34735800000000        0.26835200000000
N           79.00903199999999       -0.94834500000000        0.10732000000000
C           80.51830400000000       -3.02779200000000       -0.08658300000000
C           80.47908299999999       -4.47824700000000       -0.39988000000000
C           81.15575000000000       -5.35938100000000        0.35561700000000
C           81.18017900000000       -6.83373300000000        0.04315700000000
N           80.17339100000000       -7.21211100000000       -0.95183800000000
C           79.49710700000000       -6.24676200000000       -1.76463700000000
C           79.63566799999998       -4.94614300000000       -1.51760600000000
C           81.67964799999999       -2.34867200000000       -0.15598600000000
C           82.98108599999999       -2.89125700000000       -0.54292900000000
C           83.84439299999998       -1.90206400000000       -0.41194800000000
C           83.10249300000000       -0.72737700000000        0.04288600000000
N           81.84048100000000       -0.97597300000000        0.19535300000000
H           84.82668600000000        0.58179300000000        0.37224500000000
H           84.79734999999999        3.12711400000000        1.04369800000000
H           82.98509100000000        4.90832700000000        1.32745300000000
H           81.16692299999998        5.84860900000000       -0.69306800000000
H           80.33345300000001        8.21712100000000       -0.42054700000000
H           81.77927300000000        8.02304800000000        0.63935600000000
H           79.77627899999999        9.08679800000000        1.83839600000000
H           78.99859800000000        7.45198300000000        3.51723800000000
H           79.27032799999999        5.09624900000000        3.11026700000000
H           77.56236400000000        4.93573600000000        0.38770900000000
H           75.74411300000000        3.14288000000000        0.11768700000000
H           76.09370800000001       -2.15246400000000        1.14535400000000
H           78.05325900000000       -4.02997700000000        0.89468900000000
H           81.75536000000000       -5.00757500000000        1.18715500000000
H           80.99522899999999       -7.40127100000000        0.97925100000000
H           82.18783900000000       -7.10155500000000       -0.33873800000000
H           80.03071300000001       -8.22528900000000       -1.15795100000000
H           78.85629000000000       -6.57830400000000       -2.57214200000000
H           79.10723799999998       -4.22689800000000       -2.13182000000000
H           83.21923599999998       -3.89353900000000       -0.87343000000000
H           84.90681700000000       -1.96311700000000       -0.61122100000000
C           49.52812200000000        0.47075300000000        0.37662700000000
C           48.27585199999999        0.45157200000000        0.37227900000000
C           50.84179000000000        0.46998700000000        0.37856000000000
C           52.34492400000000        0.45157200000000        0.37227900000000
C           61.18974499999999        0.47075300000000        0.37662700000000
C           59.93747400000000        0.45157200000000        0.37227900000000
C           62.50341299999999        0.46998700000000        0.37856000000000
C           64.00654700000000        0.45157200000000        0.37227900000000
C           72.85136700000000        0.47075300000000        0.37662700000000
C           71.59909700000000        0.45157200000000        0.37227900000000
C           74.16503600000000        0.46998700000000        0.37856000000000
C           75.66816899999999        0.45157200000000        0.37227900000000
Ni          55.80655700000000        0.04593000000000       -0.25452600000000
C           52.97290600000000       -0.51389100000000       -0.41993800000000
C           53.29213499999999        0.53143100000000       -1.18493500000000
C           53.08797400000000        1.93193400000000       -0.81033500000000
C           53.89712600000000        2.68367600000000       -1.53808400000000
C           54.76210100000000        1.79323900000000       -2.31575000000000
N           54.34732600000000        0.44183800000000       -2.13502900000000
C           55.99463700000000        2.13105300000000       -2.73365900000000
C           56.33930200000000        3.54705400000000       -3.03179300000000
C           55.54575000000000        4.27973200000000       -3.83144700000000
C           55.85429700000000        5.70987900000000       -4.19309800000000
N           56.98265100000000        6.25046100000000       -3.42913500000000
C           57.84081800000000        5.42964000000000       -2.63498500000000
C           57.55080600000000        4.14849400000000       -2.43823900000000
C           57.09529900000000        1.16424000000000       -2.54073800000000
C           58.22525400000000        0.96477200000000       -3.44995300000000
C           59.12227899999999        0.22675300000000       -2.81271400000000
N           57.30598900000000        0.60987400000000       -1.38968600000000
C           58.58287300000000       -0.00850500000000       -1.47522700000000
C           59.24636100000000       -0.51389100000000       -0.41993800000000
C           58.64409500000000       -0.56247400000000        0.93552400000000
C           59.32233399999999       -0.56805400000000        2.07978500000000
C           58.34812000000000       -0.62504300000000        3.16181100000000
C           57.14012399999999       -0.66082000000000        2.60455900000000
N           57.24288300000000       -0.61948500000000        1.17968300000000
C           55.85167100000000       -0.80464900000000        3.34429200000000
C           55.86594900000000       -1.23700300000000        4.76480300000000
C           56.44487899999999       -2.39806700000000        5.10923200000000
C           56.51497600000000       -2.86014100000000        6.54150700000000
N           55.57269500000000       -2.14195100000000        7.39819200000000
C           55.04583100000000       -0.86172400000000        7.03311100000000
C           55.18671599999999       -0.41548800000000        5.78467000000000
C           54.67688100000000       -0.63790800000000        2.70459500000000
C           53.34630700000000       -1.03427300000000        3.17193600000000
C           52.54588699999999       -0.96135100000000        2.11676100000000
C           53.34239100000000       -0.46789700000000        0.99477300000000
N           54.57519700000000       -0.29222700000000        1.33461700000000
H           52.40864900000000        2.30066100000000       -0.05391100000000
H           53.99822700000000        3.75434000000000       -1.43039400000000
H           54.66994100000000        3.82806200000000       -4.27997100000000
H           56.08824900000000        5.76236800000000       -5.27946800000000
H           54.95367100000000        6.33121500000000       -3.99540600000000
H           57.22411800000000        7.25571500000000       -3.54519200000000
H           58.72068600000000        5.85753200000000       -2.17817500000000
H           58.20351000000000        3.55205500000000       -1.81428900000000
H           58.33069900000000        1.36388600000000       -4.45103000000000
H           60.08044999999999       -0.07908600000000       -3.21114800000000
H           60.39661799999999       -0.52310800000000        2.19232200000000
H           58.57019099999999       -0.65598400000000        4.22172400000000
H           56.93132600000000       -3.00256100000000        4.35840900000000
H           57.54447300000000       -2.70104500000000        6.92068400000000
H           56.28477300000000       -3.94580400000000        6.57975700000000
H           55.41180099999999       -2.49206400000000        8.36945900000000
H           54.50343599999999       -0.27755300000000        7.75824700000000
H           54.76847200000000        0.54990700000000        5.51815200000000
H           53.06747899999999       -1.40206900000000        4.14942900000000
H           51.50555700000000       -1.24641800000000        2.09466200000000
Ni          67.46818000000000        0.04593000000000       -0.25452600000000
C           64.63452900000000       -0.51389100000000       -0.41993800000000
C           64.95375799999999        0.53143100000000       -1.18493500000000
C           64.74959600000000        1.93193400000000       -0.81033500000000
C           65.55874900000001        2.68367600000000       -1.53808400000000
C           66.42372400000001        1.79323900000000       -2.31575000000000
N           66.00894900000000        0.44183800000000       -2.13502900000000
C           67.65625900000001        2.13105300000000       -2.73365900000000
C           68.00092500000000        3.54705400000000       -3.03179300000000
C           67.20737300000000        4.27973200000000       -3.83144700000000
C           67.51591999999999        5.70987900000000       -4.19309800000000
N           68.64427400000000        6.25046100000000       -3.42913500000000
C           69.50244000000001        5.42964000000000       -2.63498500000000
C           69.21242800000000        4.14849400000000       -2.43823900000000
C           68.75692200000000        1.16424000000000       -2.54073800000000
C           69.88687699999998        0.96477200000000       -3.44995300000000
C           70.78390200000000        0.22675300000000       -2.81271400000000
N           68.96761199999999        0.60987400000000       -1.38968600000000
C           70.24449500000000       -0.00850500000000       -1.47522700000000
C           70.90798400000000       -0.51389100000000       -0.41993800000000
C           70.30571700000000       -0.56247400000000        0.93552400000000
C           70.98395699999999       -0.56805400000000        2.07978500000000
C           70.00974300000000       -0.62504300000000        3.16181100000000
C           68.80174700000001       -0.66082000000000        2.60455900000000
N           68.90450600000000       -0.61948500000000        1.17968300000000
C           67.51329300000000       -0.80464900000000        3.34429200000000
C           67.52757099999999       -1.23700300000000        4.76480300000000
C           68.10650200000001       -2.39806700000000        5.10923200000000
C           68.17659800000000       -2.86014100000000        6.54150700000000
N           67.23431800000000       -2.14195100000000        7.39819200000000
C           66.70745300000000       -0.86172400000000        7.03311100000000
C           66.84833800000000       -0.41548800000000        5.78467000000000
C           66.33850400000000       -0.63790800000000        2.70459500000000
C           65.00793000000000       -1.03427300000000        3.17193600000000
C           64.20751000000000       -0.96135100000000        2.11676100000000
C           65.00401400000000       -0.46789700000000        0.99477300000000
N           66.23681999999999       -0.29222700000000        1.33461700000000
H           64.07027200000000        2.30066100000000       -0.05391100000000
H           65.65985000000001        3.75434000000000       -1.43039400000000
H           66.33156300000000        3.82806200000000       -4.27997100000000
H           67.74987200000000        5.76236800000000       -5.27946800000000
H           66.61529400000001        6.33121500000000       -3.99540600000000
H           68.88574100000000        7.25571500000000       -3.54519200000000
H           70.38230899999999        5.85753200000000       -2.17817500000000
H           69.86513300000000        3.55205500000000       -1.81428900000000
H           69.99232200000000        1.36388600000000       -4.45103000000000
H           71.74207300000000       -0.07908600000000       -3.21114800000000
H           72.05824000000000       -0.52310800000000        2.19232200000000
H           70.23181399999999       -0.65598400000000        4.22172400000000
H           68.59294900000000       -3.00256100000000        4.35840900000000
H           69.20609599999999       -2.70104500000000        6.92068400000000
H           67.94639599999999       -3.94580400000000        6.57975700000000
H           67.07342300000001       -2.49206400000000        8.36945900000000
H           66.16505800000000       -0.27755300000000        7.75824700000000
H           66.43009499999999        0.54990700000000        5.51815200000000
H           64.72910100000000       -1.40206900000000        4.14942900000000
H           63.16717900000000       -1.24641800000000        2.09466200000000
242
 energy: -414.888614095285 gnorm: 0.541077037723 xtb: 6.5.1 (b24c23e)
Ni          43.45349186514416        0.48304353010392        0.37287251444560
C           40.11100210285505        0.37969166901887        0.33026042920279
C           40.77867199905496       -0.79883258904031        0.33238087244334
C           40.11992669719012       -2.09378257762709        0.38221769320256
C           41.06869351975725       -3.02879992864558        0.32664711652069
C           42.36284888855720       -2.35190659567377        0.22989617529543
N           42.17409278147716       -0.95210619897481        0.24227600518022
C           43.56842890655204       -2.98297432214131        0.11411183094807
C           43.61019548052300       -4.46554523889189        0.06482505010306
C           43.13419805353540       -5.12812282045239       -0.99895367585017
C           43.12547003327120       -6.63505678017887       -1.07548778525085
N           43.93431195767720       -7.24901979986241       -0.01183544205575
C           44.36812400776827       -6.52712713114931        1.11513217044942
C           44.22322546690742       -5.19627862625133        1.17935732029118
C           44.83421464145096       -2.27004267527206        0.03491676379619
C           46.10736573596580       -2.89310152653668       -0.30957016798233
C           47.05245123408762       -1.94600559410672       -0.24914522383609
N           44.98995251310148       -0.98109126599620        0.28505170782571
C           46.36573871605390       -0.73307068381353        0.13179926727027
C           46.96285535482404        0.46977161563183        0.38181317797740
C           46.19780817958610        1.66476494176618        0.74056198388476
C           46.73828994159767        2.74962489374654        1.35472158040673
C           45.71550181566310        3.73763567141774        1.43508440615387
C           44.59669465508917        3.21230097256273        0.86260038190752
N           44.83995009909112        1.88751132463201        0.42714296557984
C           43.35003649599840        3.95428310096453        0.67001008276713
C           43.38251768903013        5.44115726926265        0.67843141861842
C           42.69998141241754        6.14324923891619        1.59791832634175
C           42.67720658727278        7.65258512569512        1.61287161780722
N           43.68966533484956        8.23256169277088        0.71802696854284
C           44.34836312783349        7.47098247393621       -0.26504756735351
C           44.21587665111909        6.13779502440066       -0.30908247133752
C           42.17533353453278        3.31045079715263        0.45756963571206
C           40.88144313910524        3.92432556127781        0.19907153275764
C           40.00154953807908        2.92013220047932        0.11425530197005
C           40.73456589392391        1.67781836494128        0.30547332404805
N           42.02026470553388        1.90043698581100        0.50050485386659
H           39.02772093720762        0.34349525633029        0.34463871117417
H           39.05733600452500       -2.28421207332645        0.45522932362388
H           40.87869910142069       -4.09292242826871        0.34956197107288
H           42.68847232687853       -4.58172352664458       -1.82513510372926
H           43.51845769524666       -6.95045979830132       -2.06206441590672
H           42.07741115809246       -6.98846591455373       -0.99322068943096
H           44.07489912579054       -8.26666128638244       -0.04493159942316
H           44.85196920787525       -7.05459387353984        1.93318354993151
H           44.58198637214099       -4.65699390259390        2.04839732112346
H           46.28343479955601       -3.92264487552429       -0.57295007837780
H           48.10638832597626       -2.09871056240018       -0.44989031670573
H           47.75968194165430        2.84681136960572        1.68976802912753
H           45.80566511768241        4.73020235369814        1.84762163315443
H           42.09994617041236        5.62663309260510        2.34136004605479
H           42.85779754813169        8.00615224493557        2.64667335209334
H           41.66864406740812        7.99618386885841        1.30353135470346
H           43.82104395076493        9.25159925473675        0.73908352267156
H           44.99225274649199        7.97095952376744       -0.98442143109084
H           44.74481197592242        5.57035913566867       -1.06550682528695
H           40.64401913281917        4.97479252792225        0.09111705364875
H           38.94424194885753        3.02790609700754       -0.06863153720198
Ni          80.40024274136547        0.43460687402991        0.36760707248018
C           83.74313744923263        0.54438760661685        0.34814185976535
C           83.07528304260137        1.69525386904671        0.60332971316472
C           83.73408156095330        2.94908042317860        0.92978262194502
C           82.78512788208872        3.87438174231057        1.07643138841803
C           81.49131502006729        3.23453171790865        0.83623874905531
N           81.68007857027703        1.86397457688514        0.54800765950617
C           80.28578571240406        3.87537653393575        0.85836402363172
C           80.24391055706513        5.33369418186057        1.12885264515857
C           80.71987559089933        6.20930985479124        0.23214132349673
C           80.72852243094972        7.69751324629032        0.48082170168285
N           79.91969492441356        8.06894117297457        1.65138780365319
C           79.48586688036161        7.12179878935042        2.59724662358332
C           79.63080872770195        5.80828733238840        2.37425588790516
C           79.01875292922047        3.19727087261010        0.62916794557219
C           77.74850263331999        3.87915692070410        0.42645195939882
C           76.80210753718735        2.93953275502904        0.28147983525160
N           78.86135917931993        1.88257148550371        0.59846936223607
C           77.48901563674646        1.67855879707969        0.38881124379057
C           76.88089802909656        0.44317484059737        0.37527173507043
C           77.65786767348280       -0.80200143586857        0.47622027291454
C           77.11598236638433       -1.99024164501422        0.84054878271278
C           78.13945398669291       -2.97285942607393        0.70626390718656
C           79.25700471172496       -2.33693003901431        0.25998330357387
N           79.01344818267961       -0.94923727266212        0.11828702046762
C           80.50448094867201       -3.01983711624256       -0.08735008390016
C           80.47155204181743       -4.47367012547271       -0.39821750159367
C           81.15408950802940       -5.35683387793599        0.34917617395181
C           81.17677156243603       -6.83414625755794        0.03982127493696
N           80.16438944040043       -7.20853973145618       -0.95866111400395
C           79.50562626916435       -6.25370133820878       -1.75532787085431
C           79.63815249921441       -4.94213344357928       -1.51217564239432
C           81.67868895566356       -2.34548852594473       -0.15646334948634
C           82.97263121170424       -2.88936199531120       -0.54085213270195
C           83.85245581727813       -1.89037941832201       -0.40812164335741
C           83.11942628274588       -0.71799623314908        0.04530330496293
N           81.83379781452066       -0.97722467998670        0.18813502323678
H           84.82635559142646        0.57677134461691        0.36993994654327
H           84.79668173468586        3.11948397477822        1.04196113648578
H           82.97530986790917        4.90879305823344        1.32702749902147
H           81.16554687075038        5.85297857073984       -0.69208726049551
H           80.33556457263209        8.21736493362670       -0.41508474096460
H           81.77659938397224        8.02503309031301        0.63702480502034
H           79.77914806450407        9.06992760415450        1.83757500757714
H           79.00206003828808        7.46148296527488        3.50944208315458
H           79.27201724587441        5.09505600059830        3.10729357261895
H           77.57098241194038        4.94072657994664        0.38926659491142
H           75.74780080470774        3.13196949853243        0.11812055520971
H           76.09421874698066       -2.15658836637527        1.14634613796055
H           78.04854457411858       -4.03045406859732        0.89641914945252
H           81.75407032959521       -5.01179232044828        1.18619723515042
H           80.99622085797033       -7.40137799248274        0.97364051344264
H           82.18535775114607       -7.10333608971271       -0.33605335228635
H           80.03295839714757       -8.20834608887187       -1.15680525857601
H           78.86177184403454       -6.58761832262494       -2.56526965345042
H           79.10920102802567       -4.22557293611784       -2.12918333076464
H           83.21003398470977       -3.89216772316908       -0.87172691368004
H           84.90978137448316       -1.95634729455862       -0.60984777037078
C           49.55925540568805        0.48147594769495        0.37747224437260
C           48.30243664617728        0.46798726389065        0.37294280344704
C           50.85922010622716        0.46309748983080        0.38994667964210
C           52.25644856452905        0.42771674591231        0.39015622045190
C           61.25116163778484        0.48207178529854        0.39448892874270
C           59.95149919421055        0.44717197711864        0.35289509153022
C           62.51225084797868        0.47937114522206        0.39352480447172
C           63.93632260600371        0.43033870450873        0.38687054057689
C           72.91587943215197        0.47555762414519        0.38821907690463
C           71.62617170023978        0.44841841841087        0.35129516030861
C           74.20503276698020        0.47570901514499        0.38306203556944
C           75.56998055116091        0.44218315964089        0.37094675689944
Ni          55.82469614330066        0.04036052959641       -0.24213908092216
C           52.95410438704769       -0.52433835373496       -0.42710136561137
C           53.31866224528837        0.54375055040600       -1.20054696930888
C           53.07982873410846        1.93940199679282       -0.82683355825227
C           53.90292183467572        2.69296531861150       -1.55168638464280
C           54.75940905288813        1.79310968424835       -2.31176256852941
N           54.36957572493905        0.45954051685594       -2.11231687846874
C           56.00815680175701        2.13756555827433       -2.73622231216841
C           56.34413382430387        3.54400726996548       -3.03162617167000
C           55.54914142237332        4.28052776167532       -3.82849651998858
C           55.85799506928826        5.71112291635860       -4.19050015540607
N           56.99000695795204        6.24899123816616       -3.42153746720459