248
 energy: -424.670422463317 gnorm: 0.761015439743 xtb: 6.5.1 (b24c23e)
Co          39.10989600000000        0.43633300000000        0.32986300000000
C           35.77535300000000        0.31016700000000        0.28820500000000
C           36.43624400000000       -0.85123200000000        0.28897200000000
C           35.78436000000000       -2.15391400000000        0.33936900000000
C           36.72305400000000       -3.08080300000000        0.28451400000000
C           38.02793900000000       -2.41279500000000        0.18526100000000
N           37.85234000000000       -0.99540900000000        0.19963800000000
C           39.21837599999999       -3.03900100000000        0.07039800000000
C           39.26961900000000       -4.51965000000000        0.02111800000000
C           38.79891700000000       -5.18030400000000       -1.04769500000000
C           38.78805700000000       -6.68594400000000       -1.12188700000000
N           39.59171799999999       -7.30340700000000       -0.06376100000000
C           40.03847200000000       -6.57512400000000        1.08456700000000
C           39.88928900000000       -5.25377400000000        1.14119800000000
C           40.50876800000000       -2.30445700000000       -0.00679000000000
C           41.78904800000000       -2.93399000000000       -0.35426500000000
C           42.72355199999999       -2.00652200000000       -0.29398600000000
N           40.65453699999999       -1.04135100000000        0.25245900000000
C           42.04755399999999       -0.77432000000000        0.09182500000000
C           42.64356400000000        0.40535800000000        0.33141700000000
C           41.87954100000000        1.61463900000000        0.70675500000000
C           42.40367400000000        2.67624500000000        1.30668600000000
C           41.36156600000000        3.68209600000000        1.39001300000000
C           40.27163500000000        3.16835800000000        0.83025900000000
N           40.50978100000000        1.83651400000000        0.37269700000000
C           39.00050900000000        3.90911700000000        0.62964500000000
C           39.03973000000000        5.39301100000000        0.63497700000000
C           38.36306299999999        6.09144900000000        1.56199100000000
C           38.33863400000000        7.59850600000000        1.57326900000000
N           39.34542199999999        8.18163100000000        0.68267900000000
C           40.02170600000000        7.41323900000000       -0.31837800000000
C           39.88314500000000        6.08991100000000       -0.35627000000000
C           37.83916500000000        3.26072100000000        0.41609400000000
C           36.53772699999999        3.87371300000000        0.15462900000000
C           35.67442000000000        2.87946100000000        0.07023800000000
C           36.41631999999999        1.63452700000000        0.26233600000000
N           37.67833200000000        1.84460400000000        0.46460800000000
H           34.69212700000000        0.28517600000000        0.30301900000000
H           34.72146299999999       -2.34494300000000        0.41249400000000
H           36.53372200000000       -4.14554600000000        0.30731600000000
H           38.35189000000000       -4.63022900000000       -1.86793500000000
H           39.18536000000000       -7.00203200000000       -2.11014300000000
H           37.73954000000000       -7.03998000000000       -1.03328800000000
H           39.74253400000000       -8.33630000000000       -0.09051700000000
H           40.52021500000000       -7.09993300000000        1.90009400000000
H           40.24848500000000       -4.71175200000000        2.00824200000000
H           41.95644899999999       -3.97061000000000       -0.61640900000000
H           43.77470000000000       -2.16158200000000       -0.49531900000000
H           43.42510400000000        2.78976700000000        1.64499000000000
H           41.46555400000000        4.67732400000000        1.80315600000000
H           37.76345200000000        5.56936200000000        2.29863700000000
H           38.52358400000000        7.95189200000000        2.60936200000000
H           37.33097400000000        7.94205500000000        1.25776000000000
H           39.48810000000000        9.21543400000000        0.69883900000000
H           40.66252300000000        7.91037700000000       -1.03590100000000
H           40.41157500000000        5.51926500000000       -1.11054700000000
H           36.29957699999999        4.92357400000000        0.04696100000000
H           34.61199599999999        2.98186300000000       -0.11128700000000
Co          84.74982199999999        0.37544000000000        0.32325100000000
C           88.08436500000001        0.50760600000000        0.30964400000000
C           87.42347400000000        1.64177200000000        0.55967600000000
C           88.07535799999999        2.90327500000000        0.88850600000000
C           87.13666399999998        3.82033600000000        1.03387700000000
C           85.83177900000000        3.18920100000000        0.79355600000000
N           86.00737799999999        1.80176300000000        0.50337100000000
C           84.64134099999998        3.82546600000000        0.81577900000000
C           84.59009900000000        5.28218300000000        1.08545400000000
C           85.06080100000000        6.15685000000000        0.18335400000000
C           85.07166099999999        7.64332300000000        0.43406200000000
N           84.26800000000000        8.01927800000000        1.60005900000000
C           83.82124599999999        7.06149200000000        2.56530400000000
C           83.97042900000000        5.75878300000000        2.33700100000000
C           83.35095000000000        3.12460900000000        0.58272800000000
C           82.07067000000001        3.81405200000000        0.37847400000000
C           81.13616600000000        2.89526200000000        0.23827600000000
N           83.20518100000000        1.83529700000000        0.56482100000000
C           81.81216400000000        1.60896800000000        0.35061500000000
C           81.21615299999999        0.40535800000000        0.33141700000000
C           81.98017700000000       -0.85630100000000        0.43844700000000
C           81.45604400000001       -2.02193300000000        0.79653200000000
C           82.49815200000000       -3.02222600000000        0.66202100000000
C           83.58808300000000       -2.40031600000000        0.22558300000000
N           83.34993700000000       -1.00130200000000        0.06455100000000
C           84.85920900000001       -3.08075000000000       -0.12935200000000
C           84.81998800000000       -4.53120400000000       -0.44264800000000
C           85.49665500000000       -5.41233800000000        0.31284800000000
C           85.52108399999999       -6.88669100000000        0.00038800000000
N           84.51429600000000       -7.26506900000000       -0.99460700000000
C           83.83801200000001       -6.29971900000000       -1.80740600000000
C           83.97657300000000       -4.99910000000000       -1.56037500000000
C           86.02055300000001       -2.40163000000000       -0.19875500000000
C           87.32199100000000       -2.94421400000000       -0.58569800000000
C           88.18529800000000       -1.95502200000000       -0.45471700000000
C           87.44339799999999       -0.78033500000000        0.00011700000000
N           86.18138599999999       -1.02893100000000        0.15258400000000
H           89.16759100000000        0.52883500000000        0.32947600000000
H           89.13825500000000        3.07415700000000        1.00092900000000
H           87.32599599999999        4.85536900000000        1.28468400000000
H           85.50782800000000        5.79565200000000       -0.73583700000000
H           84.67435800000000        8.16416300000000       -0.46331600000000
H           86.12017799999998        7.97009100000000        0.59658700000000
H           84.11718399999999        9.03384100000000        1.79562700000000
H           83.33950299999999        7.39902500000000        3.47446900000000
H           83.61123300000000        5.04329200000000        3.06749800000000
H           81.90326799999998        4.88277800000000        0.34494000000000
H           80.08501800000001        3.08992200000000        0.07491800000000
H           80.43461299999998       -2.20542200000000        1.10258500000000
H           82.39416400000000       -4.08293500000000        0.85192000000000
H           86.09626500000000       -5.06053300000000        1.14438600000000
H           85.33613400000000       -7.45422800000000        0.93648200000000
H           86.52874400000000       -7.15451300000000       -0.38150700000000
H           84.37161699999999       -8.27824700000000       -1.20072000000000
H           83.19719499999999       -6.63126100000000       -2.61491100000000
H           83.44814300000000       -4.27985600000000       -2.17458900000000
H           87.56014100000000       -3.94649600000000       -0.91619900000000
H           89.24772199999998       -2.01607500000000       -0.65399000000000
C           48.13663800000000        0.40646100000000        0.33990700000000
C           46.92769800000000        0.39300600000000        0.33145900000000
C           45.50617000000000        0.40182500000000        0.31947600000000
C           44.29450000000000        0.40926400000000        0.33033900000000
C           49.55324200000000        0.39978600000000        0.34044000000000
C           50.77393800000000        0.40926400000000        0.33033900000000
C           62.53370300000000        0.40646100000000        0.33990700000000
C           61.32476399999999        0.39300600000000        0.33145900000000
C           59.90323500000000        0.40182500000000        0.31947600000000
C           58.69156500000000        0.40926400000000        0.33033900000000
C           63.95030700000000        0.39978600000000        0.34044000000000
C           65.17100300000000        0.40926400000000        0.33033900000000
C           76.93076799999999        0.40646100000000        0.33990700000000
C           75.72182900000000        0.39300600000000        0.33145900000000
C           74.30029999999999        0.40182500000000        0.31947600000000
C           73.08862999999999        0.40926400000000        0.33033900000000
C           78.34737199999999        0.39978600000000        0.34044000000000
C           79.56806799999998        0.40926400000000        0.33033900000000
Co          54.44044700000000        0.08273000000000       -0.22397900000000
C           51.60679600000000       -0.47709100000000       -0.38939000000000
C           51.92602500000000        0.56823100000000       -1.15438800000000
C           51.72186400000000        1.96873400000000       -0.77978700000000
C           52.53101600000000        2.72047600000000       -1.50753700000000
C           53.39599100000000        1.83003900000000       -2.28520200000000
N           52.98121600000000        0.47863800000000       -2.10448200000000
C           54.62852600000000        2.16785300000000       -2.70311200000000
C           54.97319200000000        3.58385400000000       -3.00124600000000
C           54.17963999999999        4.31653300000000       -3.80089900000000
C           54.48818700000000        5.74667900000000       -4.16255000000000
N           55.61654100000000        6.28726100000000       -3.39858700000000
C           56.47470700000000        5.46644000000000       -2.60443800000000
C           56.18469499999999        4.18529400000000       -2.40769100000000
C           55.72918900000000        1.20104000000000       -2.51019100000000
C           56.85914400000000        1.00157200000000       -3.41940600000000
C           57.75616899999999        0.26355300000000       -2.78216600000000
N           55.93987900000000        0.64667400000000       -1.35913900000000
C           57.21676200000000        0.02829500000000       -1.44467900000000
C           57.88025100000000       -0.47709100000000       -0.38939000000000
C           57.27798400000000       -0.52567400000000        0.96607200000000
C           57.95622400000000       -0.53125400000000        2.11033300000000
C           56.98201000000000       -0.58824300000000        3.19235800000000
C           55.77401399999999       -0.62402000000000        2.63510700000000
N           55.87677300000000       -0.58268500000000        1.21023100000000
C           54.48556000000000       -0.76784900000000        3.37484000000000
C           54.49983800000000       -1.20020300000000        4.79535100000000
C           55.07876900000000       -2.36126700000000        5.13978000000000
C           55.14886500000000       -2.82334100000000        6.57205400000000
N           54.20658499999999       -2.10515100000000        7.42874000000000
C           53.67972100000000       -0.82492400000000        7.06365900000000
C           53.82060499999999       -0.37868800000000        5.81521700000000
C           53.31077100000000       -0.60110800000000        2.73514300000000
C           51.98019699999999       -0.99747300000000        3.20248400000000
C           51.17977699999999       -0.92455100000000        2.14730900000000
C           51.97628100000000       -0.43109700000000        1.02532000000000
N           53.20908700000000       -0.25542700000000        1.36516400000000
H           51.04253900000000        2.33746100000000       -0.02336300000000
H           52.63211700000000        3.79114000000000       -1.39984600000000
H           53.30383000000000        3.86486200000000       -4.24942300000000
H           54.72213900000000        5.79916800000000       -5.24892000000000
H           53.58756100000000        6.36801500000000       -3.96485800000000
H           55.85800800000000        7.29251500000000       -3.51464400000000
H           57.35457600000000        5.89433200000000       -2.14762700000000
H           56.83740000000000        3.58885500000000       -1.78374200000000
H           56.96458900000000        1.40068600000000       -4.42048200000000
H           58.71434000000000       -0.04228600000000       -3.18060100000000
H           59.03050699999999       -0.48630800000000        2.22287000000000
H           57.20408100000000       -0.61918400000000        4.25227200000000
H           55.56521599999999       -2.96576100000000        4.38895700000000
H           56.17836300000000       -2.66424500000000        6.95123200000000
H           54.91866300000000       -3.90900400000000        6.61030400000000
H           54.04568999999999       -2.45526400000000        8.40000600000000
H           53.13732599999999       -0.24075300000000        7.78879500000000
H           53.40236200000000        0.58670700000000        5.54869900000000
H           51.70136800000000       -1.36526900000000        4.17997700000000
H           50.13944600000000       -1.20961800000000        2.12520900000000
Co          68.83751200000000        0.08273000000000       -0.22397900000000
C           66.00386100000000       -0.47709100000000       -0.38939000000000
C           66.32308999999999        0.56823100000000       -1.15438800000000
C           66.11892899999999        1.96873400000000       -0.77978700000000
C           66.92808100000001        2.72047600000000       -1.50753700000000
C           67.79305600000001        1.83003900000000       -2.28520200000000
N           67.37828100000000        0.47863800000000       -2.10448200000000
C           69.02559200000000        2.16785300000000       -2.70311200000000
C           69.37025700000000        3.58385400000000       -3.00124600000000
C           68.57670500000000        4.31653300000000       -3.80089900000000
C           68.88525199999999        5.74667900000000       -4.16255000000000
N           70.01360599999998        6.28726100000000       -3.39858700000000
C           70.87177200000001        5.46644000000000       -2.60443800000000
C           70.58176100000000        4.18529400000000       -2.40769100000000
C           70.12625400000000        1.20104000000000       -2.51019100000000
C           71.25620900000000        1.00157200000000       -3.41940600000000
C           72.15323400000000        0.26355300000000       -2.78216600000000
N           70.33694400000000        0.64667400000000       -1.35913900000000
C           71.61382699999999        0.02829500000000       -1.44467900000000
C           72.27731599999998       -0.47709100000000       -0.38939000000000
C           71.67504899999999       -0.52567400000000        0.96607200000000
C           72.35328900000000       -0.53125400000000        2.11033300000000
C           71.37907499999999       -0.58824300000000        3.19235800000000
C           70.17107900000001       -0.62402000000000        2.63510700000000
N           70.27383799999998       -0.58268500000000        1.21023100000000
C           68.88262600000000       -0.76784900000000        3.37484000000000
C           68.89690400000001       -1.20020300000000        4.79535100000000
C           69.47583400000001       -2.36126700000000        5.13978000000000
C           69.54593000000000       -2.82334100000000        6.57205400000000
N           68.60365000000000       -2.10515100000000        7.42874000000000
C           68.07678600000000       -0.82492400000000        7.06365900000000
C           68.21767000000000       -0.37868800000000        5.81521700000000
C           67.70783600000000       -0.60110800000000        2.73514300000000
C           66.37726200000000       -0.99747300000000        3.20248400000000
C           65.57684200000000       -0.92455100000000        2.14730900000000
C           66.37334600000000       -0.43109700000000        1.02532000000000
N           67.60615199999999       -0.25542700000000        1.36516400000000
H           65.43960400000000        2.33746100000000       -0.02336300000000
H           67.02918200000001        3.79114000000000       -1.39984600000000
H           67.70089500000000        3.86486200000000       -4.24942300000000
H           69.11920399999998        5.79916800000000       -5.24892000000000
H           67.98462600000001        6.36801500000000       -3.96485800000000
H           70.25507299999998        7.29251500000000       -3.51464400000000
H           71.75164100000001        5.89433200000000       -2.14762700000000
H           71.23446499999999        3.58885500000000       -1.78374200000000
H           71.36165399999999        1.40068600000000       -4.42048200000000
H           73.11140500000000       -0.04228600000000       -3.18060100000000
H           73.42757200000000       -0.48630800000000        2.22287000000000
H           71.60114600000000       -0.61918400000000        4.25227200000000
H           69.96228099999999       -2.96576100000000        4.38895700000000
H           70.57542800000000       -2.66424500000000        6.95123200000000
H           69.31572799999999       -3.90900400000000        6.61030400000000
H           68.44275500000001       -2.45526400000000        8.40000600000000
H           67.53439100000000       -0.24075300000000        7.78879500000000
H           67.79942699999998        0.58670700000000        5.54869900000000
H           66.09843300000000       -1.36526900000000        4.17997700000000
H           64.53651200000000       -1.20961800000000        2.12520900000000
248
 energy: -424.976318004828 gnorm: 0.484206250808 xtb: 6.5.1 (b24c23e)
Co          39.11974320718828        0.42860980912463        0.32746128236991
C           35.77625614371932        0.32717573505751        0.28725534672677
C           36.44386252037654       -0.84987062934146        0.28920255671187
C           35.78562380306078       -2.14595720298826        0.33946027085389
C           36.73461542524885       -3.08090198354729        0.28369991732790
C           38.02969837558467       -2.40298792013266        0.18656204353767
N           37.84064162772057       -1.00304981148211        0.20355047920701
C           39.23507408036271       -3.03358966620014        0.07144226161805
C           39.27600695943035       -4.51736421419829        0.02207178901692
C           38.79899147584339       -5.18103115395828       -1.04099928259834
C           38.79060921469392       -6.68790681461749       -1.11770942613321
N           39.59945118866440       -7.30138400107757       -0.05434335969163
C           40.03259503428497       -6.58006974867244        1.07160247662192
C           39.88807227962922       -5.24880594197757        1.13601566364281
C           40.50080408436140       -2.31626070720202       -0.00594908955086
C           41.77482827750182       -2.94411918203548       -0.35210244541535
C           42.72104439702224       -2.00094357340156       -0.29200687496198
N           40.66137899214319       -1.02848572773759        0.24173752120181
C           42.05353114035194       -0.77199082358539        0.09168352831020
C           42.66731436060360        0.41669816368005        0.33934132125422
C           41.87946334313593        1.60316486860183        0.69311342615108
C           42.40623002484568        2.69694864449137        1.31099249634439
C           41.38148060141773        3.68297381104280        1.39165185823148
C           40.26263224162327        3.15561461330083        0.81789680103440
N           40.50840910053382        1.82745203500029        0.38876679413823
C           39.01618494095708        3.89946045749970        0.62662266775295
C           39.04845220151883        5.38703496172998        0.63590013748236
C           38.36504036001190        6.08999839410332        1.55439463201877
C           38.34244116094060        7.59939832120547        1.56963626541645
N           39.35487341037751        8.17897381373335        0.67510441698180
C           40.01258087655425        7.41794144966475       -0.30720776698281
C           39.88056212840343        6.08441238345775       -0.35139658185264
C           37.84119622851001        3.25609611650921        0.41490183491982
C           36.54659759685086        3.87074172669070        0.15651772468305
C           35.66613832960951        2.86658769149555        0.07170537569988
C           36.40032139570665        1.62424128229850        0.26275042704071
N           37.68584146888016        1.84645159972245        0.45571556710754
H           34.69269965943599        0.29128653025508        0.30188853158480
H           34.72263275860512       -2.33604361339415        0.41238273119238
H           36.54511922932601       -4.14550629041057        0.30668145758562
H           38.35349693865930       -4.63535525919028       -1.86779374615939
H           39.18306790992492       -7.00366897650450       -2.10410392937876
H           37.74270101849572       -7.04160258391836       -1.03619813516985
H           39.73947344307103       -8.31814033525649       -0.08722366493909
H           40.51620636970505       -7.10861618228730        1.88900153874910
H           40.24656053674344       -4.70973270455599        2.00523806310451
H           41.94707703539277       -3.97538107631654       -0.61557653138163
H           43.77277634629176       -2.15279844461916       -0.49315019033889
H           43.42548133534534        2.79610516538034        1.64795160805171
H           41.47079170674009        4.67628387754875        1.80500118467183
H           37.76499082229306        5.57426144150768        2.29845219592114
H           38.52255866523122        7.95338609076272        2.60316445798930
H           37.33388186100787        7.94337408330325        1.26105555696994
H           39.48572114774997        9.19711381971693        0.69588526271510
H           40.65621963750250        7.91904235176534       -1.02592020633705
H           40.40936383330842        5.51715486119266       -1.10796255095693
H           36.31011120886999        4.92149689924399        0.04856793213731
H           34.60863345753388        2.97398216537907       -0.11133936118640
Co          84.73988643212375        0.38353175564043        0.32243439589910
C           88.08348160102784        0.49120932525726        0.30505617012539
C           87.41586424789890        1.64036675824992        0.55957162594782
C           88.07406494166253        2.89544423714234        0.88688029635790
C           87.12507055076154        3.82059761294847        1.03310732815693
C           85.82998858502160        3.17947831468669        0.79265208038089
N           86.01891981880306        1.80813828013013        0.50890331580977
C           84.62481572882587        3.82000802146487        0.81567278075911
C           84.58376039636988        5.27973154612001        1.08593664661000
C           85.06073873527812        6.15612196346798        0.19006011916564
C           85.06910268250590        7.64434065759872        0.43856621141613
N           84.26025358594205        8.01529961847891        1.60879599373482
C           83.82710743182686        7.06907226204673        2.55371717873138
C           83.97163861118769        5.75504434055281        2.33087288806181
C           83.35878548645975        3.13596280854048        0.58611396803089
C           82.08499030656000        3.82351504929335        0.38273943337020
C           81.13874577671685        2.88935082045027        0.23901498400726
N           83.19831134923618        1.82516391414448        0.55158943939251
C           81.80618641173039        1.60689673041215        0.34968716355434
C           81.19118478182325        0.39322479917167        0.33721682115509
C           81.97986052815401       -0.84192111360890        0.42781537105666
C           81.45342789055567       -2.04282846631794        0.79629354581817
C           82.47841731032005       -3.02340024556390        0.66342874531939
C           83.59702098869303       -2.38523241416926        0.21621332882116
N           83.35122391063136       -0.99563506706042        0.08226387650549
C           84.84358546288246       -3.07071001661424       -0.13025538888238
C           84.81127236101210       -4.52555659619614       -0.44051580525264
C           85.49471787604678       -5.40931128840892        0.30572419059647
C           85.51723447281395       -6.88677147407319       -0.00334759760082
N           84.50488029660067       -7.26082082128923       -1.00146550455766
C           83.84713722800527       -6.30674674016146       -1.79748646505457
C           83.97917516497240       -4.99476650406480       -1.55442443391401
C           86.01853009977302       -2.39692114020148       -0.19890201024709
C           87.31312588020903       -2.94173203652763       -0.58322017097058
C           88.19358090086790       -1.94277487039029       -0.45053477018106
C           87.45939522658317       -0.77040863067758        0.00270681556561
N           86.17394233660211       -1.02886470775914        0.14362801924933
H           89.16702662262462        0.52311353042410        0.32707392278869
H           89.13706737715076        3.06547373833866        0.99891130694051
H           87.31460141345380        4.85545793377240        1.28406092623815
H           85.50622661706444        5.80063134833394       -0.73459566617446
H           84.67665315981701        8.16447695237684       -0.45707417993409
H           86.11701593440945        7.97229908576906        0.59409341760275
H           84.12026338369976        9.01540471809811        1.79495517865619
H           83.34351679449433        7.40988079699064        3.46550927149352
H           83.61315663920763        5.04196923337049        3.06412682413770
H           81.91268272841532        4.88728392823208        0.34676957067461
H           80.08696398671623        3.08082228489723        0.07519453166837
H           80.43425018032116       -2.21222279851194        1.10411452549065
H           82.38898759520124       -4.08228563619707        0.85394206540893
H           86.09472975110857       -5.06528320503095        1.14315778718452
H           85.33715447314830       -7.45435629215363        0.93009918262922
H           86.52580538232645       -7.15648902847633       -0.37856821624940
H           84.37397929427860       -8.25971217537246       -1.19966320494399
H           83.20350441238207       -6.64187001276614       -2.60700951553185
H           83.45035342924005       -4.27835514089981       -2.17159801932059
H           87.54961136933910       -3.94481738394194       -0.91419018096565
H           89.25108548471411       -2.00836663133651       -0.65235367752512
C           48.12600975175069        0.41598283087102        0.34237681981339
C           46.89662582003348        0.39677816723449        0.33142288446004
C           45.49322855176160        0.40056436528960        0.32025100100525
C           44.25968608616241        0.41752884340826        0.33084368082352
C           49.48688637669258        0.39816433572084        0.35514357494402
C           50.72430982069857        0.38358689705022        0.34850502142333
C           62.54463196038574        0.42021476640524        0.34067651168326
C           61.31401778388599        0.40798558433018        0.34608649432225
C           59.96866571246362        0.40980245352003        0.31306497551739
C           58.72656405849808        0.40784608181744        0.29845066371748
C           63.88724415721583        0.39776908268221        0.35514480767341
C           65.12887001483357        0.38065020440374        0.34946596015819
C           76.96350820729239        0.41088744740193        0.34003191996661
C           75.73356034151871        0.40553338929035        0.34778475478804
C           74.37105727510195        0.40884667252448        0.30840353326916
C           73.13379057335398        0.41342985389002        0.29469653098006
C           78.36440605528045        0.39634652468165        0.33766513380426
C           79.59970968359720        0.39909363248145        0.32970088377849