128
 energy: -243.457737505869 gnorm: 0.427093211994 xtb: 6.5.1 (b24c23e)
C           10.94842700000000       -0.01821800000000       -0.14400000000000
C           11.68074200000000       -1.38331300000000        0.03382800000000
C           11.08066000000000       -2.62143200000000        0.05759800000000
C           12.10404800000000       -3.57428100000000        0.30004500000000
C           13.29371100000000       -2.88319300000000        0.42477800000000
N           13.03070400000000       -1.55432700000000        0.20557400000000
C           14.71084500000000       -3.49461500000000        0.78233400000000
C           14.74364600000000       -4.88142100000000        1.29817000000000
C           15.04503500000000       -5.94587100000000        0.43751900000000
C           15.06999500000000       -7.25601600000000        0.91835600000000
C           14.78864600000000       -7.49545900000000        2.27057100000000
N           14.81233800000000       -8.87025900000000        2.78194700000000
O           15.08178800000000       -9.78381500000000        1.98632000000000
O           14.55961600000000       -9.05037400000000        3.98349900000000
C           14.48426000000000       -6.43930900000000        3.14042000000000
C           14.46277800000000       -5.13345400000000        2.64764600000000
C           15.84170700000000       -2.74861100000000        0.66470700000000
C           17.14114600000000       -3.26088100000000        1.04976900000000
C           18.04403400000000       -2.30830400000000        0.84841700000000
N           16.04156100000000       -1.46712100000000        0.22573100000000
C           17.37026400000000       -1.14200500000000        0.31321700000000
C           18.03865500000000       -0.00019300000000        0.00005300000000
C           17.26302500000000        1.24286300000000       -0.60717200000000
C           17.80311000000000        2.23146000000000       -1.40594900000000
C           16.77717400000000        3.17196700000000       -1.67384000000000
C           15.63797300000000        2.72602600000000       -1.03833500000000
N           15.92897500000000        1.52321300000000       -0.43981600000000
C           14.22985700000000        3.45258100000000       -1.01740500000000
C           14.20413100000000        4.91562800000000       -1.22599700000000
C           13.84260200000000        5.44658900000000       -2.47197600000000
C           13.82735700000000        6.82776000000000       -2.67313500000000
C           14.18036500000000        7.67809500000000       -1.61626700000000
N           14.16615300000000        9.13067100000000       -1.82086500000000
O           13.85160700000000        9.55842100000000       -2.94268600000000
O           14.47021700000000        9.85811300000000       -0.86250900000000
C           14.54704800000000        7.15917900000000       -0.36698600000000
C           14.55792400000000        5.77595700000000       -0.17847000000000
C           13.10136200000000        2.73348400000000       -0.78688400000000
C           11.77897800000000        3.33257800000000       -0.74167300000000
C           10.89176200000000        2.36911800000000       -0.51180000000000
C           11.61311700000000        1.12638900000000       -0.38905800000000
N           12.93516300000000        1.39744300000000       -0.55406700000000
H            9.86974900000000       -0.00329000000000       -0.04332000000000
H           10.02649100000000       -2.81506500000000       -0.06849600000000
H           11.97974000000000       -4.64194000000000        0.39769500000000
H           13.72671900000000       -0.81328400000000        0.17666900000000
H           15.26410300000000       -5.73373800000000       -0.60784500000000
H           15.30969500000000       -8.06258900000000        0.23118500000000
H           14.26479300000000       -6.60690100000000        4.19114500000000
H           14.23127500000000       -4.29634300000000        3.30450600000000
H           17.35206900000000       -4.23839800000000        1.44432400000000
H           19.09460900000000       -2.40870400000000        1.05160900000000
H           18.82519000000000        2.27980400000000       -1.74996100000000
H           16.86291200000000        4.07411400000000       -2.26014300000000
H           15.24627900000000        0.91382300000000        0.00306700000000
H           13.56935000000000        4.76543000000000       -3.27653300000000
H           13.53957200000000        7.21301600000000       -3.64725600000000
H           14.82387300000000        7.80354100000000        0.46275600000000
H           14.83849300000000        5.35031300000000        0.78376100000000
H           11.54805400000000        4.37438700000000       -0.86960600000000
H            9.82725900000000        2.48899600000000       -0.42192300000000
C           34.34351900000000       -0.05866700000000       -0.13282700000000
C           33.61120400000000        1.20414600000000       -0.68092400000000
C           34.21128599999999        2.27890800000000       -1.29605800000000
C           33.18789800000000        3.22109800000000       -1.57709100000000
C           31.99823500000000        2.69202800000000       -1.11530500000000
N           32.26124200000000        1.43907000000000       -0.62131300000000
C           30.58110100000000        3.40029000000000       -1.12229400000000
C           30.54830000000000        4.85523700000000       -1.39145600000000
C           30.24691100000000        5.32697700000000       -2.67646000000000
C           30.22195100000000        6.69816700000000       -2.93630700000000
C           30.50330000000000        7.59775900000000       -1.89873600000000
N           30.47960800000000        9.04011200000000       -2.16556200000000
O           30.21015800000000        9.41573200000000       -3.31730700000000
O           30.73233000000000        9.81145100000000       -1.22683600000000
C           30.80768500000000        7.13786300000000       -0.61009800000000
C           30.82916800000000        5.76422600000000       -0.36269800000000
C           29.45023900000000        2.69968700000000       -0.84031500000000
C           28.15079900000000        3.33697400000000       -0.77280400000000
C           27.24791200000000        2.41611200000000       -0.45664200000000
N           29.25038500000000        1.37457500000000       -0.55925100000000
C           27.92168200000000        1.14046600000000       -0.31728600000000
C           27.25329000000000       -0.00019300000000        0.00005300000000
C           28.02892100000000       -1.37868300000000        0.11699700000000
C           27.48883500000000       -2.63711900000000       -0.06106600000000
C           28.51477200000000       -3.58177800000000        0.19179400000000
C           29.65397300000000       -2.87286100000000        0.50828500000000
N           29.36297100000000       -1.53337600000000        0.40452800000000
C           31.06208900000000       -3.48565100000000        0.89919200000000
C           31.08781500000000       -4.84831800000000        1.47116700000000
C           31.44934400000000       -5.94356000000000        0.67440600000000
C           31.46458900000000       -7.23214500000000        1.21073200000000
C           31.11158100000000       -7.41941200000000        2.55422400000000
N           31.12579300000000       -8.77104300000000        3.12425300000000
O           31.44033900000000       -9.71397700000000        2.38106500000000
O           30.82172900000000       -8.90340700000000        4.32011900000000
C           30.74489800000000       -6.33281300000000        3.36000200000000
C           30.73402099999999       -5.04895600000000        2.81177200000000
C           32.19058300000000       -2.75019000000000        0.72791000000000
C           33.51296700000000       -3.24112800000000        1.07422900000000
C           34.40018400000000       -2.29628600000000        0.77695800000000
C           33.67882900000000       -1.16676500000000        0.24439600000000
N           32.35678300000000       -1.48408600000000        0.24191800000000
H           35.42219700000000       -0.01979800000000       -0.03876000000000
H           35.26545500000000        2.38036100000000       -1.50366600000000
H           33.31220500000000        4.18749400000000       -2.04132200000000
H           31.56522700000000        0.78826400000000       -0.26573800000000
H           30.02784300000000        4.60833300000000       -3.46470900000000
H           29.98225100000000        7.03764500000000       -3.94005900000000
H           31.02715200000000        7.82103400000000        0.20561400000000
H           31.06067100000000        5.38298300000000        0.63071700000000
H           27.93987700000000        4.37841200000000       -0.93595800000000
H           26.19733600000000        2.60657500000000       -0.33379700000000
H           26.46675500000000       -2.85519200000000       -0.33148400000000
H           28.42903400000000       -4.65695800000000        0.15170300000000
H           30.04566600000000       -0.78305900000000        0.47180900000000
H           31.72259600000000       -5.77196900000000       -0.36571200000000
H           31.75237400000000       -8.06279600000000        0.57249000000000
H           30.46807300000000       -6.45989600000000        4.40284600000000
H           30.45345300000000       -4.18974700000000        3.41908000000000
H           33.74389200000000       -4.20088500000000        1.49920200000000
H           35.46468700000000       -2.35303300000000        0.91562500000000
C           23.24989300000000        0.00111900000000        0.00848500000000
C           22.04095400000000       -0.01233600000000        0.00003800000000
C           20.61942500000000       -0.00351700000000       -0.01194500000000
C           19.40775500000000        0.00392200000000       -0.00108200000000
C           24.66649700000000       -0.00555600000000        0.00901900000000
C           25.88719300000000        0.00392200000000       -0.00108200000000
128
 energy: -243.567291459893 gnorm: 0.242672951855 xtb: 6.5.1 (b24c23e)
C           10.98998304863193       -0.05988365782914       -0.13872799565883
C           11.68278977156924       -1.36653010959106        0.03053328488311
C           11.08884534132565       -2.62582914562019        0.06677791662089
C           12.10268565105705       -3.56938739579539        0.30918057603926
C           13.31324880984275       -2.88399289872275        0.42749018511722
N           13.03526502254666       -1.55214334896358        0.21032412837231
C           14.66958223197035       -3.46531720002219        0.76886716887561
C           14.72236731820277       -4.86791891580027        1.28787642003945
C           15.04178957829311       -5.94062696287021        0.44215359363629
C           15.06991270018989       -7.24756444064910        0.92173065074601
C           14.78857667102449       -7.49224540192506        2.26925232189021
N           14.81167364491098       -8.86363358269798        2.77926161147677
O           15.07668826969678       -9.75875766595956        1.99904934697860
O           14.56451985374598       -9.03938294747326        3.95749428135287
C           14.48633027892723       -6.43517226618014        3.13284760928754
C           14.45872182911530       -5.13362936436248        2.63930222486246
C           15.83671147925486       -2.73645737864658        0.66384255963712
C           17.13902585215191       -3.26984725472560        1.05374593639020
C           18.04849376694024       -2.30961943479235        0.84946619142904
N           16.02282825901594       -1.45029050546545        0.23057814707875
C           17.34863243090379       -1.14562993520370        0.31774510482820
C           18.00959719480772        0.02458924382574       -0.03847633540692
C           17.26323164831374        1.22778359152898       -0.60439895727625
C           17.79999629560584        2.23938959303945       -1.39598341124529
C           16.78045535206187        3.17196446843581       -1.66231830699524
C           15.61979582891411        2.72785712131973       -1.03471767931824
N           15.92747679607580        1.52348566208705       -0.43523533460812
C           14.27023341133652        3.42200049989300       -1.01379871434082
C           14.22613309585105        4.89922198992270       -1.23002922091494
C           13.84515880086668        5.44429361982435       -2.46557989510215
C           13.82746937327116        6.82194435116911       -2.66623733120381
C           14.18031824628065        7.67477459478216       -1.61592093020509
N           14.16660160947279        9.12355625994763       -1.82008363856215
O           13.85745395356894        9.54245494822730       -2.91983453196259
O           14.46445043747548        9.83614562565028       -0.87991642117920
C           14.54468215815034        7.15220995415266       -0.37143019352340
C           14.56273329035927        5.77265036739692       -0.18614735941185
C           13.10534520422513        2.72349461503133       -0.78063123811565
C           11.78004667668950        3.34278040075297       -0.74394930579797
C           10.88770262385131        2.37283077409903       -0.51143172931012
C           11.62940869498980        1.12537569892050       -0.38505193610031
N           12.95433321469736        1.38632067209501       -0.54893241288356
H            9.90348572566013       -0.03763616296173       -0.04700567570284
H           10.03501923617487       -2.82138555087104       -0.06611224916525
H           11.97701545701638       -4.63775089092863        0.39809719998170
H           13.72894491970391       -0.81359424055438        0.17797781064034
H           15.26177962443412       -5.73753361226348       -0.60213349164986
H           15.30745889234060       -8.06059202207594        0.24132388689904
H           14.26806304448092       -6.61204868182734        4.18235221964058
H           14.23076430688636       -4.30347796701047        3.30214805182164
H           17.34312465346901       -4.25065691017320        1.44681124329096
H           19.10330714787764       -2.39888345944336        1.04825759197975
H           18.81991544262472        2.28450020888370       -1.74768071268178
H           16.86691696225457        4.06977993769129       -2.25583255964513
H           15.24723448498319        0.91431034645752        0.00406707828556
H           13.57176044399310        4.77143224797807       -3.27347817591289
H           13.54244606760597        7.21606766825857       -3.63768430225332
H           14.81987656950592        7.80411206390626        0.45291619393765
H           14.83887214188523        5.35555456240611        0.77836792375844
H           11.55638159513043        4.38726962288692       -0.87371730301972
H            9.82024177463228        2.48479930966868       -0.42131306903050
C           34.30197034915495       -0.02021276822917       -0.14968404807684
C           33.60916029955937        1.18805786279166       -0.67514166873038
C           34.20310435698959        2.28738609581884       -1.29043907552696
C           33.18925555898021        3.22158833187639       -1.56674377873933
C           31.97871482476564        2.69410400779468       -1.11339597646934
N           32.25668975029073        1.43963587006520       -0.61611195084540
C           30.62235626652192        3.36823326137281       -1.11879732793616
C           30.56957971144830        4.83836487056359       -1.39335520779959
C           30.25015996041160        5.32485275280391       -2.66978898591049
C           30.22203480275333        6.69264455216344       -2.92907147367525
C           30.50336951060258        7.59432307532977       -1.89821753243484
N           30.48027230453970        9.03304765780251       -2.16446563059070
O           30.21525783718770        9.40076111317652       -3.29352010948659
O           30.72742587574727        9.78866937461659       -1.24351202153523
C           30.80561457294893        7.13042497412999       -0.61447317764062
C           30.83322347859793        5.76009329409474       -0.36994610416651
C           29.45527089296142        2.68884417756500       -0.83481343694361
C           28.15302160611110        3.34680751583182       -0.77396942774212
C           27.24357303481994        2.41788480346563       -0.45638481021515
N           29.26899577668064        1.36252241535602       -0.54660676436745
C           27.94323860005029        1.14594344954959       -0.31575066003229
C           27.28072146747542       -0.04140742881289       -0.02202818271494
C           28.02817445802878       -1.36441249483266        0.11137530758995
C           27.49177000391149       -2.63892430015615       -0.04846214965702
C           28.51145632309428       -3.57586083193763        0.20169080569111
C           29.67200817276839       -2.87246868810109        0.51232785011337
N           29.36409606208304       -1.53113812571669        0.40854754373121
C           31.02167331078408       -3.45751105947196        0.88658829807891
C           31.06579535503079       -4.83628653153539        1.45927810400889
C           31.44678359150254       -5.93829529410159        0.67871721763828
C           31.46447673914871       -7.22360586199526        1.21366614506294
C           31.11162759200553       -7.41638208710603        2.55281579057986
N           31.12534440430387       -8.76453376967775        3.12127026427258
O           31.43449216559532       -9.68854414313055        2.39248025304181
O           30.82749547906553       -8.89348925120339        4.29390371671130
C           30.74726399221675       -6.32910917362176        3.35260843477923
C           30.72920784855104       -5.05005392115780        2.80348313235725
C           32.18658041451999       -2.73840330631586        0.72814025405221
C           33.51188641320771       -3.25105252162440        1.07751006275627
C           34.40423662568409       -2.29928780204020        0.77918032863532
C           33.66253918033090       -1.16383927333169        0.24731308120126
N           32.33760816074279       -1.47189560262694        0.24060832596066
H           35.38846550634187        0.00778102996921       -0.05954783637044
H           35.25692953864014        2.38700591257075       -1.50486320982429
H           33.31492586280764        4.18410797426230       -2.03882611923130
H           31.56300728905565        0.78920401260454       -0.26477241597885
H           30.03016648344635        4.61452065427508       -3.46175432897577
H           29.98448680082891        7.04113394759475       -3.93033173886980
H           31.02388212208468        7.82093793244325        0.19542583469995
H           31.06118161633288        5.38789640292066        0.62503322296216
H           27.94887166592491        4.39027505612512       -0.94010825174561
H           26.18871644513893        2.59646375274309       -0.33166563027463
H           26.47191095273611       -2.85818596853900       -0.32715628906631
H           28.42506356424649       -4.65102962688322        0.15319595345344
H           30.04443802609175       -0.78288151859930        0.47284712963259
H           31.72018453720665       -5.77554794690954       -0.36000960535052
H           31.74949947845431       -8.06049640475846        0.58227087491926
H           30.47207057216384       -6.46543519203386        4.39469308085665
H           30.45307215274355       -4.19701264073531        3.41714394490080
H           33.73555682044509       -4.21404985950318        1.50228586106474
H           35.47169893782898       -2.34912242069780        0.91399549631435
C           23.26275676415019        0.00030135334546        0.00680737341427
C           22.02988844302943       -0.00921064794376        0.00318108130820
C           20.64097846377559        0.00522638185673       -0.01257219851562
C           19.40840177285818        0.02660208829681       -0.01578682529704
C           24.64978078962726       -0.01475645457141        0.01625902977437
C           25.88304505602488       -0.02271274610800        0.00130310958002
128
 energy: -243.622547667024 gnorm: 0.063235300615 xtb: 6.5.1 (b24c23e)
C           11.04626056277230       -0.10968910496320       -0.13320315171692
C           11.69003210273906       -1.34307794334807        0.02886673764910
C           11.10364219569945       -2.63227525158951        0.08125728127094
C           12.10069416119041       -3.56036242349506        0.32118525116992
C           13.34343068461010       -2.88409814809743        0.43450504671931
N           13.04584880728728       -1.55085031341496        0.21004579278388
C           14.61933532469278       -3.42550928175453        0.75349075183218
C           14.70022148342520       -4.84892294224219        1.27445629846370
C           15.03429119069881       -5.92959624441724        0.44368563332057
C           15.06923210702118       -7.23354949556610        0.92306151096775
C           14.78819774423314       -7.48466118701889        2.26611034130426
N           14.81224309870755       -8.85635468711555        2.77656068619788
O           15.07295652995229       -9.73484768197170        2.00354004051096
O           14.56690899813880       -9.02399008289253        3.93809884876341
C           14.48773147281037       -6.42585574959601        3.12282493387493
C           14.45251472497299       -5.12839670678406        2.62735816371983
C           15.83306605140517       -2.72127411798776        0.66812660994963
C           17.13331278525786       -3.27311113171099        1.05547390160836
C           18.05048556640221       -2.30689104243185        0.84846863349770
N           16.01423256752676       -1.43311809413431        0.23950639316556
C           17.33522462057092       -1.14494142369652        0.32450709565606
C           17.98414173835210        0.05726863675669       -0.07972672617013
C           17.26724436191333        1.20342478911808       -0.59915910600408
C           17.79483003646790        2.25007097595179       -1.38461544007273
C           16.78823460677027        3.17145927046129       -1.64299030545744
C           15.59668844270784        2.72871115534698       -1.02674295976022
N           15.92636075408771        1.51539063664409       -0.43767891604447
C           14.32239422439074        3.38118685680687       -1.00827712584221
C           14.25022475870476        4.87644764602472       -1.23495860231609
C           13.85273664107976        5.43536562471802       -2.45970601465502
C           13.82816566395609        6.81035984460147       -2.65847140575266
C           14.18058587720825        7.66685084102306       -1.61515871061429
N           14.16606773569262        9.11595754607306       -1.81907698170536
O           13.86139130852177        9.52366252097124       -2.90463677010283
O           14.46138668427642        9.81346929788106       -0.88960081512888
C           14.54307790458566        7.13972892216997       -0.37569031331473
C           14.56966284075340        5.76295045629196       -0.19471533490529
C           13.11160509246298        2.71517201043256       -0.77023770832257
C           11.78709335232108        3.34821362012374       -0.74458675698808
C           10.89007339699517        2.37209492024356       -0.50941317649825
C           11.64742033099609        1.12563419126889       -0.37811917630267
N           12.97111167771456        1.38025014961396       -0.53810730776047
H            9.95122215772131       -0.07642780473374       -0.05828105508897
H           10.04936164608434       -2.82784580576298       -0.06124020741858
H           11.97429218531982       -4.63031992887669        0.40014706706649
H           13.73716522209769       -0.81246582875429        0.17645252343343
H           15.25857569492012       -5.73933288144312       -0.60018058348922
H           15.30681404089982       -8.05495179253598        0.25248592194490
H           14.27340781794594       -6.61492244134093        4.17122165163036
H           14.22707050932937       -4.30742266454628        3.29977118610418
H           17.32688695339803       -4.25869306000736        1.44561934892486
H           19.10832168865114       -2.38351022233896        1.04204738458841
H           18.81280955493640        2.29180972949678       -1.74381400963662
H           16.87252281756668        4.06434014904792       -2.24620907692389
H           15.24736845696133        0.90841911577118        0.00327369878342
H           13.57468578136047        4.77386642999816       -3.27279021987565
H           13.54360420547103        7.21656002974213       -3.62529388818690
H           14.81360689006529        7.80187199246294        0.44223534634316
H           14.84289833940142        5.35789677550369        0.77394989037708
H           11.57209665382334        4.39534070928660       -0.87880077219082
H            9.81958448757240        2.47418012438653       -0.42097293241186
C           34.24569058024755        0.02536856410324       -0.17050030661792
C           33.60192526064500        1.16707538031869       -0.66452406194811
C           34.18833098578132        2.30034723485950       -1.28131232362586
C           33.19128747568476        3.22000877360310       -1.55181155959109
C           31.94858332040636        2.69781881321464       -1.10742428059596
N           32.24611372442197        1.43839660941270       -0.61567956109471
C           30.67274391426074        3.32631815941217       -1.11160177223104
C           30.59178289018394        4.81525596580504       -1.39514220164951
C           30.25767225140687        5.31620628319823       -2.66282457958069
C           30.22271331871306        6.68132436600818       -2.92074121153169
C           30.50374808886546        7.58621714936724       -1.89701872365424
N           30.47970134507445        9.02542537160251       -2.16304479357127
O           30.21898985598265        9.38255498146776       -3.27739173195177
O           30.72503567660981        9.76551308999399       -1.25225332247924
C           30.80421255915255        7.11731440110162       -0.61828465901008
C           30.83944166294847        5.74951267941887       -0.37750286915079
C           29.45910110293820        2.67819397881021       -0.82347326780741
C           28.15884032980872        3.35060520672811       -0.77431428440086
C           27.24177282361398        2.41505246842851       -0.45617527841366
N           29.27813033949074        1.35257298510261       -0.53036633195291
C           27.95746328109738        1.14914651121332       -0.30923378326701
C           27.30737851635448       -0.08922827794045       -0.03841070802438
C           28.02385300057642       -1.34050461710544        0.10331355722387
C           27.49678056355736       -2.64208783260312       -0.03344027574515
C           28.50354018169703       -3.56539757141985        0.21795914526415
C           29.69493029961053       -2.86894374306447        0.51949585291287
N           29.36498780990389       -1.52524771405685        0.40203196552511
C           30.96940249971378       -3.41956007210011        0.87037677178821
C           31.04163312677604       -4.81921933666657        1.44334792590455
C           31.43918547460206       -5.92757960905582        0.67918469964400
C           31.46378028666174       -7.20964717047526        1.21439289227957
C           31.11135854189751       -7.40917646137066        2.54940851987757
N           31.12587734873667       -8.75748516341223        3.11823859062463
O           31.43055532128285       -9.66460545092166        2.39588348459969
O           30.83055832543063       -8.87899152982612        4.27395785198484
C           30.74886759062764       -6.32056844784717        3.34254892121409
C           30.72225712842739       -5.04610876539332        2.79115287526389
C           32.18026320727977       -2.72590597228924        0.73278491029373
C           33.50479939295021       -3.25604263158138        1.07974795298492
C           34.40183798607688       -2.29762670315831        0.78054369161003
C           33.64451267433532       -1.16049955945446        0.25340070375823
N           32.32081595154395       -1.46110816651717        0.24678542522619
H           35.34072759961172        0.03528600402619       -0.08912647700658
H           35.24260676642916        2.39504684817686       -1.50398932262037
H           33.31767989733211        4.17878618090995       -2.03325348211566
H           31.55478380988868        0.78746945337648       -0.26550569317402
H           30.03337931680878        4.61708042112042       -3.46099747564105
H           29.98512944469373        7.04203864058496       -3.91786240186257
H           31.01853464617536        7.81771326415331        0.18440814056263
H           31.06487661219560        5.39007745750015        0.62097106551353
H           27.96512568130833        4.39666524448762       -0.94524504778534
H           26.18387712282503        2.58002416899635       -0.32911815479412
H           26.47885008871665       -2.86246177181617       -0.32012090676772
H           28.41938153044016       -4.64134369651651        0.15868086604986
H           30.04418714514262       -0.77816771474792        0.46910016845489
H           31.71725313090545       -5.77726506682334       -0.35816063880924
H           31.74834356666562       -8.05453220948691        0.59316602149530
H           30.47834212743406       -6.46898513800870        4.38438098340260
H           30.44903354157945       -4.20128132160033        3.41456953020802
H           33.71981469243739       -4.22358078395612        1.50207019301145
H           35.47233183051318       -2.33984066234445        0.90885063440884
C           23.26922302226950       -0.00205544050885        0.00893877596000
C           22.02091325019754       -0.00545231324547        0.00514618253218
C           20.65682428870722        0.01266782966411       -0.01460705722408