      -----------------------------------------------------------      
     |                   =====================                   |     
     |                           x T B                           |     
     |                   =====================                   |     
     |                         S. Grimme                         |     
     |          Mulliken Center for Theoretical Chemistry        |     
     |                    University of Bonn                     |     
      -----------------------------------------------------------      

   * xtb version 6.5.1 (b24c23e) compiled by 'conda@728c89f4b128' on 2022-07-12

   xtb is free software: you can redistribute it and/or modify it under
   the terms of the GNU Lesser General Public License as published by
   the Free Software Foundation, either version 3 of the License, or
   (at your option) any later version.
   
   xtb is distributed in the hope that it will be useful,
   but WITHOUT ANY WARRANTY; without even the implied warranty of
   MERCHANTABILITY or FITNESS FOR A PARTICULAR PURPOSE.  See the
   GNU Lesser General Public License for more details.
   
   Cite this work as:
   * C. Bannwarth, E. Caldeweyher, S. Ehlert, A. Hansen, P. Pracht,
     J. Seibert, S. Spicher, S. Grimme, WIREs Comput. Mol. Sci., 2020, 11,
     e01493. DOI: 10.1002/wcms.1493
   
   for GFN2-xTB:
   * C. Bannwarth, S. Ehlert and S. Grimme., J. Chem. Theory Comput., 2019,
     15, 1652-1671. DOI: 10.1021/acs.jctc.8b01176
   for GFN1-xTB:
   * S. Grimme, C. Bannwarth, P. Shushkov, J. Chem. Theory Comput., 2017,
     13, 1989-2009. DOI: 10.1021/acs.jctc.7b00118
   for GFN0-xTB:
   * P. Pracht, E. Caldeweyher, S. Ehlert, S. Grimme, ChemRxiv, 2019, preprint.
     DOI: 10.26434/chemrxiv.8326202.v1
   for GFN-FF:
   * S. Spicher and S. Grimme, Angew. Chem. Int. Ed., 2020, 59, 15665-15673.
     DOI: 10.1002/anie.202004239
   
   for ALPB and GBSA implicit solvation:
   * S. Ehlert, M. Stahn, S. Spicher, S. Grimme, J. Chem. Theory Comput.,
     2021, 17, 4250-4261. DOI: 10.1021/acs.jctc.1c00471
   
   for DFT-D4:
   * E. Caldeweyher, C. Bannwarth and S. Grimme, J. Chem. Phys., 2017,
     147, 034112. DOI: 10.1063/1.4993215
   * E. Caldeweyher, S. Ehlert, A. Hansen, H. Neugebauer, S. Spicher,
     C. Bannwarth and S. Grimme, J. Chem. Phys., 2019, 150, 154122.
     DOI: 10.1063/1.5090222
   * E. Caldeweyher, J.-M. Mewes, S. Ehlert and S. Grimme, Phys. Chem. Chem. Phys.
     2020, 22, 8499-8512. DOI: 10.1039/D0CP00502A
   
   for sTDA-xTB:
   * S. Grimme and C. Bannwarth, J. Chem. Phys., 2016, 145, 054103.
     DOI: 10.1063/1.4959605
   
   in the mass-spec context:
   * V. Asgeirsson, C. Bauer and S. Grimme, Chem. Sci., 2017, 8, 4879.
     DOI: 10.1039/c7sc00601b
   * J. Koopman and S. Grimme, ACS Omega 2019, 4, 12, 15120-15133.
     DOI: 10.1021/acsomega.9b02011
   
   for metadynamics refer to:
   * S. Grimme, J. Chem. Theory Comput., 2019, 155, 2847-2862
     DOI: 10.1021/acs.jctc.9b00143
   
   for SPH calculations refer to:
   * S. Spicher and S. Grimme, J. Chem. Theory Comput., 2021, 17, 1701-1714
     DOI: 10.1021/acs.jctc.0c01306
   
   with help from (in alphabetical order)
   P. Atkinson, C. Bannwarth, F. Bohle, G. Brandenburg, E. Caldeweyher
   M. Checinski, S. Dohm, S. Ehlert, S. Ehrlich, I. Gerasimov, C. Hölzer
   A. Katbashev, J. Koopman, C. Lavigne, S. Lehtola, F. März, M. Müller,
   F. Musil, H. Neugebauer, J. Pisarek, C. Plett, P. Pracht, F. Pultar,
   J. Seibert, P. Shushkov, S. Spicher, M. Stahn, M. Steiner, T. Strunk,
   J. Stückrath, T. Rose, and J. Unsleber
   
 * started run on 2022/07/29 at 21:11:35.224     

           -------------------------------------------------
          |                Calculation Setup                |
           -------------------------------------------------

          program call               : xtb xtbopt.xyz --gfn 1 --vipea
          hostname                   : cx3-15-13.cx3.hpc.ic.ac.uk
          coordinate file            : xtbopt.xyz
          omp threads                :                     1

   ID    Z sym.   atoms
    1   26 Fe     1, 65, 137
    2    6 C      2-6, 8-12, 17-21, 23-28, 30-34, 39-44, 66-70, 72-76, 81-85,
                  87-92, 94-98, 103-108, 129-136, 138-142, 144-148, 153-157,
                  159-164, 166-170, 175-180
    3    7 N      7, 22, 29, 45, 71, 86, 93, 109, 143, 158, 165, 181
    4   16 S      13, 35, 77, 99, 149, 171
    5    8 O      14-16, 36-38, 78-80, 100-102, 150-152, 172-174
    6    1 H      46-64, 110-128, 182-199

           -------------------------------------------------
          |                 I P E A - x T B                 |
           -------------------------------------------------

        Reference                      10.1039/c7sc00601b
      * Hamiltonian:
        H0-scaling (s, p, d)           2.150000    2.300000    2.000000
        zeta-weighting                 0.000000
      * Dispersion:
        s8                             2.400000
        a1                             0.630000
        a2                             5.000000
        s9                             0.000000
      * Repulsion:
        kExp                           1.500000
        rExp                           1.000000
      * Coulomb:
        alpha                          1.000000
        third order                    atomic
        anisotropic                    false
      * Halogen bond correction:
        rad-scale                      1.300000
        damping                        0.440000


          ...................................................
          :                      SETUP                      :
          :.................................................:
          :  # basis functions                 872          :
          :  # atomic orbitals                 863          :
          :  # shells                          541          :
          :  # electrons                       700          :
          :  # halogen bonds                     0          :
          :  max. iterations                   250          :
          :  Hamiltonian                  GFN1-xTB          :
          :  restarted?                      false          :
          :  GBSA solvation                  false          :
          :  PC potential                    false          :
          :  electronic temp.          300.0000000     K    :
          :  accuracy                    1.0000000          :
          :  -> integral cutoff          0.2500000E+02      :
          :  -> integral neglect         0.1000000E-07      :
          :  -> SCF convergence          0.1000000E-05 Eh   :
          :  -> wf. convergence          0.2000000E-04 e    :
          :  Broyden damping             0.4000000          :
          ...................................................

 iter      E             dE          RMSdq      gap      omega  full diag
   1   -426.6419308 -0.426642E+03  0.121E+01    0.00       0.0  T
   2   -341.0968757  0.855451E+02  0.123E+01    0.10       1.0  T
   3   -447.9168215 -0.106820E+03  0.553E+00    0.02       1.0  T
   4   -383.2996153  0.646172E+02  0.790E+00    0.06       1.0  T
   5   -342.6626911  0.406369E+02  0.742E+00    0.02       1.0  T
   6   -421.9252328 -0.792625E+02  0.624E+00    0.06       1.0  T
   7   -422.9706874 -0.104545E+01  0.581E+00    0.05       1.0  T
   8   -426.1011713 -0.313048E+01  0.539E+00    0.55       1.0  T
   9   -425.9152990  0.185872E+00  0.537E+00    0.35       1.0  T
  10   -424.3547872  0.156051E+01  0.472E+00    0.24       1.0  T
  11   -435.6471082 -0.112923E+02  0.430E+00    0.23       1.0  T
  12   -446.5925182 -0.109454E+02  0.278E+00    0.02       1.0  T
  13   -434.9126112  0.116799E+02  0.495E+00    0.04       1.0  T
  14   -441.0096834 -0.609707E+01  0.427E+00    0.03       1.0  T
  15   -441.3890170 -0.379334E+00  0.425E+00    0.02       1.0  T
  16   -441.5413066 -0.152290E+00  0.422E+00    0.02       1.0  T
  17   -447.3587400 -0.581743E+01  0.313E+00    0.01       1.0  T
  18   -447.7473105 -0.388570E+00  0.213E+00    0.08       1.0  T
  19   -442.6157901  0.513152E+01  0.399E+00    0.04       1.0  T
  20   -446.6232081 -0.400742E+01  0.285E+00    0.03       1.0  T
  21   -442.7992765  0.382393E+01  0.390E+00    0.02       1.0  T
  22   -446.9576483 -0.415837E+01  0.267E+00    0.05       1.0  T
  23   -445.2638578  0.169379E+01  0.301E+00    0.07       1.0  T
  24   -441.0652628  0.419860E+01  0.420E+00    0.05       1.0  T
  25   -441.9860769 -0.920814E+00  0.399E+00    0.03       1.0  T
  26   -443.5311218 -0.154504E+01  0.366E+00    0.02       1.0  T
  27   -443.8942785 -0.363157E+00  0.352E+00    0.01       1.0  T
  28   -445.4882256 -0.159395E+01  0.312E+00    0.03       1.0  T
  29   -448.8549476 -0.336672E+01  0.217E+00    0.00       1.0  T
  30   -448.7865052  0.684423E-01  0.219E+00    0.00       1.0  T
  31   -444.4518526  0.433465E+01  0.336E+00    0.02       1.0  T
  32   -447.0739450 -0.262209E+01  0.268E+00    0.04       1.0  T
  33   -448.5892459 -0.151530E+01  0.218E+00    0.04       1.0  T
  34   -449.3363529 -0.747107E+00  0.191E+00    0.01       1.0  T
  35   -444.7597708  0.457658E+01  0.326E+00    0.04       1.0  T
  36   -445.1555078 -0.395737E+00  0.315E+00    0.05       1.0  T
  37   -450.3395809 -0.518407E+01  0.140E+00    0.01       1.0  T
  38   -445.5696334  0.476995E+01  0.306E+00    0.04       1.0  T
  39   -451.0378022 -0.546817E+01  0.896E-01    0.00       1.0  T
  40   -449.7558856  0.128192E+01  0.180E+00    0.01       1.0  T
  41   -447.5893970  0.216649E+01  0.250E+00    0.04       1.0  T
  42   -447.8758235 -0.286427E+00  0.244E+00    0.02       1.0  T
  43   -444.7629778  0.311285E+01  0.320E+00    0.04       1.0  T
  44   -448.0657381 -0.330276E+01  0.237E+00    0.02       1.0  T
  45   -444.7583902  0.330735E+01  0.318E+00    0.03       1.0  T
  46   -449.3154492 -0.455706E+01  0.191E+00    0.00       1.0  T
  47   -447.1204818  0.219497E+01  0.259E+00    0.03       1.0  T
  48   -450.0550740 -0.293459E+01  0.155E+00    0.01       1.0  T
  49   -451.3580049 -0.130293E+01  0.494E-01    0.02       1.0  T
  50   -445.7204625  0.563754E+01  0.303E+00    0.03       1.0  T
  51   -445.3713647  0.349098E+00  0.304E+00    0.03       1.0  T
  52   -445.7052895 -0.333925E+00  0.302E+00    0.04       1.0  T
  53   -451.1057395 -0.540045E+01  0.800E-01    0.00       1.0  T
  54   -446.9066915  0.419905E+01  0.271E+00    0.04       1.0  T
  55   -450.3567944 -0.345010E+01  0.141E+00    0.01       1.0  T
  56   -447.7053648  0.265143E+01  0.248E+00    0.04       1.0  T
  57   -450.1217973 -0.241643E+01  0.154E+00    0.01       1.0  T
  58   -448.9656348  0.115616E+01  0.204E+00    0.02       1.0  T
  59   -450.5050913 -0.153946E+01  0.130E+00    0.01       1.0  T
  60   -451.2247771 -0.719686E+00  0.658E-01    0.00       1.0  T
  61   -451.4587544 -0.233977E+00  0.187E-01    0.02       1.0  T
  62   -450.9240205  0.534734E+00  0.102E+00    0.00       1.0  T
  63   -450.2535457  0.670475E+00  0.149E+00    0.00       1.0  T
  64   -450.1863433  0.672024E-01  0.151E+00    0.00       1.0  T
  65   -450.5298819 -0.343539E+00  0.132E+00    0.01       1.0  T
  66   -451.3613000 -0.831418E+00  0.443E-01    0.02       1.0  T
  67   -450.4890371  0.872263E+00  0.130E+00    0.01       1.0  T
  68   -451.2217189 -0.732682E+00  0.669E-01    0.00       1.0  T
  69   -451.4375447 -0.215826E+00  0.273E-01    0.02       1.0  T
  70   -451.4699961 -0.324514E-01  0.134E-01    0.03       1.0  T
  71   -451.4164925  0.535036E-01  0.336E-01    0.02       1.0  T
  72   -451.4693108 -0.528183E-01  0.139E-01    0.03       1.0  T
  73   -451.4673054  0.200548E-02  0.154E-01    0.03       1.0  T
  74   -451.4683998 -0.109443E-02  0.146E-01    0.03       1.0  T
  75   -451.4795360 -0.111362E-01  0.428E-02    0.03       1.0  T
  76   -451.4779580  0.157794E-02  0.657E-02    0.03       1.0  T
  77   -451.4768454  0.111266E-02  0.806E-02    0.03       1.0  T
  78   -451.4787743 -0.192897E-02  0.556E-02    0.03       1.0  T
  79   -451.4799718 -0.119743E-02  0.320E-02    0.03       1.0  T
  80   -451.4797103  0.261482E-03  0.390E-02    0.03       1.0  T
  81   -451.4805164 -0.806058E-03  0.859E-03    0.03       1.0  T
  82   -451.4803919  0.124445E-03  0.166E-02    0.03       1.0  T
  83   -451.4804475 -0.556031E-04  0.135E-02    0.03       1.0  T
  84   -451.4805270 -0.795079E-04  0.710E-03    0.03       1.0  T
  85   -451.4805308 -0.378629E-05  0.683E-03    0.03       1.0  T
  86   -451.4805207  0.101063E-04  0.809E-03    0.03       1.0  T
  87   -451.4805502 -0.295478E-04  0.358E-03    0.03       2.0  T
  88   -451.4805522 -0.200323E-05  0.300E-03    0.03       2.4  T
  89   -451.4805525 -0.265574E-06  0.293E-03    0.03       2.4  T
  90   -451.4805572 -0.472971E-05  0.651E-04    0.03      10.9  T
  91   -451.4805565  0.695072E-06  0.124E-03    0.03       5.7  T
  92   -451.4805569 -0.395999E-06  0.954E-04    0.03       7.4  T
  93   -451.4805574 -0.485340E-06  0.264E-04    0.03      26.8  T
  94   -451.4805571  0.327977E-06  0.808E-04    0.03       8.8  T
  95   -451.4805573 -0.164326E-06  0.600E-04    0.03      11.8  T
  96   -451.4805575 -0.189370E-06  0.152E-04    0.03      46.6  T
  97   -451.4805575 -0.119032E-07  0.481E-05    0.03     147.3  T

   *** convergence criteria satisfied after 97 iterations ***

         #    Occupation            Energy/Eh            Energy/eV
      -------------------------------------------------------------
         1        2.0000           -1.1192079             -30.4552
       ...           ...                  ...                  ...
       344        1.9361           -0.3633831              -9.8882
       345        1.6523           -0.3616237              -9.8403
       346        1.5885           -0.3614263              -9.8349
       347        1.5763           -0.3613910              -9.8339
       348        1.5398           -0.3612904              -9.8312
       349        1.5126           -0.3612188              -9.8293
       350        1.4802           -0.3611372              -9.8270 (HOMO)
       351        0.9561           -0.3600595              -9.7977 (LUMO)
       352        0.9465           -0.3600411              -9.7972
       353        0.9312           -0.3600119              -9.7964
       354                         -0.3268358              -8.8937
       355                         -0.3187358              -8.6732
       ...                                ...                  ...
       863                        534.3265967           14539.7668
      -------------------------------------------------------------
                  HL-Gap            0.0010777 Eh            0.0293 eV
             Fermi-level           -0.3601429 Eh           -9.8000 eV

 SCC (total)                   0 d,  0 h,  0 min, 29.028 sec
 SCC setup                      ...        0 min,  0.006 sec (  0.021%)
 Dispersion                     ...        0 min,  0.009 sec (  0.029%)
 classical contributions        ...        0 min,  0.003 sec (  0.011%)
 integral evaluation            ...        0 min,  0.607 sec (  2.093%)
 iterations                     ...        0 min, 26.988 sec ( 92.970%)
 molecular gradient             ...        0 min,  1.360 sec (  4.684%)
 printout                       ...        0 min,  0.056 sec (  0.192%)

         :::::::::::::::::::::::::::::::::::::::::::::::::::::
         ::                     SUMMARY                     ::
         :::::::::::::::::::::::::::::::::::::::::::::::::::::
         :: total energy            -443.991555970980 Eh    ::
         :: gradient norm              0.163089282585 Eh/a0 ::
         :: HOMO-LUMO gap              0.029327062652 eV    ::
         ::.................................................::
         :: SCC energy              -451.480557466606 Eh    ::
         :: -> electrostatic           0.433778626223 Eh    ::
         :: repulsion energy           7.674613152237 Eh    ::
         :: dispersion energy         -0.185611656611 Eh    ::
         :: halogen bond corr.         0.000000000000 Eh    ::
         :: add. restraining           0.000000000000 Eh    ::
         :: total charge              -0.000000000000 e     ::
         :::::::::::::::::::::::::::::::::::::::::::::::::::::

           ------------------------------------------------- 
          |        vertical delta SCC IP calculation        |
           ------------------------------------------------- 
   1   -451.0227220 -0.451023E+03  0.370E-01    0.03       0.0  T
   2   -446.1590765  0.486365E+01  0.316E+00    0.00       1.0  T
   3   -450.0758102 -0.391673E+01  0.130E+00    0.00       1.0  T
   4   -450.6615178 -0.585708E+00  0.833E-01    0.00       1.0  T
   5   -443.0371276  0.762439E+01  0.339E+00    0.04       1.0  T
   6   -450.6016128 -0.756449E+01  0.905E-01    0.01       1.0  T
   7   -450.7068823 -0.105270E+00  0.791E-01    0.00       1.0  T
   8   -450.2417334  0.465149E+00  0.123E+00    0.00       1.0  T
   9   -447.9586393  0.228309E+01  0.219E+00    0.04       1.0  T
  10   -447.9054501  0.531891E-01  0.219E+00    0.05       1.0  T
  11   -449.7710292 -0.186558E+01  0.147E+00    0.02       1.0  T
  12   -450.7395670 -0.968538E+00  0.758E-01    0.01       1.0  T
  13   -449.8957874  0.843780E+00  0.138E+00    0.02       1.0  T
  14   -450.2019890 -0.306202E+00  0.123E+00    0.01       1.0  T
  15   -449.8595020  0.342487E+00  0.144E+00    0.00       1.0  T
  16   -449.7308937  0.128608E+00  0.150E+00    0.01       1.0  T
  17   -450.1582628 -0.427369E+00  0.124E+00    0.01       1.0  T
  18   -450.8307098 -0.672447E+00  0.647E-01    0.00       1.0  T
  19   -451.0664496 -0.235740E+00  0.199E-01    0.00       1.0  T
  20   -450.9908006  0.756490E-01  0.403E-01    0.00       1.0  T
  21   -450.9730078  0.177928E-01  0.437E-01    0.00       1.0  T
  22   -451.0517801 -0.787723E-01  0.246E-01    0.00       1.0  T
  23   -451.0505337  0.124643E-02  0.254E-01    0.00       1.0  T
  24   -451.0205880  0.299457E-01  0.335E-01    0.01       1.0  T
  25   -451.0585909 -0.380029E-01  0.221E-01    0.00       1.0  T
  26   -451.0768272 -0.182363E-01  0.135E-01    0.00       1.0  T
  27   -451.0855742 -0.874694E-02  0.597E-02    0.00       1.0  T
  28   -451.0872557 -0.168153E-02  0.278E-02    0.00       1.0  T
  29   -451.0876236 -0.367893E-03  0.111E-02    0.00       1.0  T
  30   -451.0876923 -0.686782E-04  0.175E-03    0.00       4.0  T
  31   -451.0876809  0.113845E-04  0.483E-03    0.00       1.5  T
  32   -451.0876886 -0.772188E-05  0.307E-03    0.00       2.3  T
  33   -451.0876925 -0.385305E-05  0.161E-03    0.00       4.4  T
  34   -451.0876939 -0.138940E-05  0.468E-04    0.00      15.1  T
  35   -451.0876937  0.198408E-06  0.750E-04    0.00       9.4  T
  36   -451.0876937 -0.927843E-07  0.632E-04    0.00      11.2  T
  37   -451.0876940 -0.212536E-06  0.185E-04    0.00      38.2  T
  38   -451.0876940 -0.183915E-07  0.575E-05    0.00     123.2  T
     SCC iter.                  ...        0 min, 10.720 sec
     gradient                   ...        0 min,  1.374 sec
------------------------------------------------------------------------
empirical IP shift (eV):    4.8455
delta SCC IP (eV):    5.8449
------------------------------------------------------------------------
           ------------------------------------------------- 
          |        vertical delta SCC EA calculation        |
           ------------------------------------------------- 
   1   -451.5628975 -0.451563E+03  0.745E-01    0.00       0.0  T
   2   -409.8480737  0.417148E+02  0.709E+00    0.01       1.0  T
   3   -451.3982608 -0.415502E+02  0.920E-01    0.01       1.0  T
   4   -447.1651438  0.423312E+01  0.281E+00    0.00       1.0  T
   5   -446.6991287  0.466015E+00  0.291E+00    0.01       1.0  T
   6   -447.9351770 -0.123605E+01  0.262E+00    0.01       1.0  T
   7   -450.7016589 -0.276648E+01  0.143E+00    0.01       1.0  T
   8   -447.9398468  0.276181E+01  0.256E+00    0.00       1.0  T
   9   -449.1217576 -0.118191E+01  0.216E+00    0.00       1.0  T
  10   -449.9267956 -0.805038E+00  0.182E+00    0.01       1.0  T
  11   -451.1376943 -0.121090E+01  0.112E+00    0.02       1.0  T
  12   -451.7431825 -0.605488E+00  0.364E-01    0.00       1.0  T
  13   -451.1987745  0.544408E+00  0.104E+00    0.00       1.0  T
  14   -451.7277267 -0.528952E+00  0.390E-01    0.01       1.0  T
  15   -451.7172313  0.104954E-01  0.409E-01    0.01       1.0  T
  16   -451.6715712  0.456602E-01  0.497E-01    0.02       1.0  T
  17   -451.7814480 -0.109877E+00  0.221E-01    0.01       1.0  T
  18   -451.7979875 -0.165395E-01  0.138E-01    0.00       1.0  T
  19   -451.8083910 -0.104035E-01  0.266E-02    0.00       1.0  T
  20   -451.8073552  0.103579E-02  0.489E-02    0.00       1.0  T
  21   -451.8061924  0.116280E-02  0.656E-02    0.00       1.0  T
  22   -451.8086453 -0.245289E-02  0.146E-02    0.00       1.0  T
  23   -451.8079116  0.733642E-03  0.380E-02    0.00       1.0  T
  24   -451.8085944 -0.682745E-03  0.170E-02    0.00       1.0  T
  25   -451.8087396 -0.145229E-03  0.662E-03    0.00       1.1  T
  26   -451.8087607 -0.211190E-04  0.256E-03    0.00       2.8  T
  27   -451.8087643 -0.357694E-05  0.563E-04    0.00      12.6  T
  28   -451.8087643 -0.366749E-07  0.495E-04    0.00      14.3  T
  29   -451.8087644 -0.772339E-07  0.336E-04    0.00      21.1  T
  30   -451.8087645 -0.597631E-07  0.927E-05    0.00      76.4  T
  31   -451.8087645  0.126533E-09  0.934E-05    0.00      75.9  T
     SCC iter.                  ...        0 min,  8.331 sec
     gradient                   ...        0 min,  1.390 sec
------------------------------------------------------------------------
empirical EA shift (eV):    4.8455
delta SCC EA (eV):    4.0855
------------------------------------------------------------------------
           -------------------------------------------------
          |                Property Printout                |
           -------------------------------------------------

    * Orbital Energies and Occupations

         #    Occupation            Energy/Eh            Energy/eV
      -------------------------------------------------------------
         1        2.0000           -1.0820730             -29.4447
       ...           ...                  ...                  ...
       339        2.0000           -0.3464779              -9.4281
       340        2.0000           -0.3436403              -9.3509
       341        2.0000           -0.3351917              -9.1210
       342        1.9068           -0.2998462              -8.1592
       343        1.8944           -0.2997207              -8.1558
       344        1.8886           -0.2996666              -8.1543
       345        1.8800           -0.2995907              -8.1523
       346        1.8375           -0.2992787              -8.1438
       347        1.8150           -0.2991426              -8.1401
       348        1.7971           -0.2990440              -8.1374
       349        1.7946           -0.2990312              -8.1371
       350        1.7337           -0.2987479              -8.1293
       351        0.8382           -0.2966001              -8.0709 (HOMO)
       352        0.8102           -0.2965435              -8.0694 (LUMO)
       353        0.8038           -0.2965304              -8.0690
       354                         -0.2703014              -7.3553
       355                         -0.2632661              -7.1638
       356                         -0.2614288              -7.1138
       357                         -0.2612921              -7.1101
       358                         -0.2601329              -7.0786
       359                         -0.2587780              -7.0417
       360                         -0.2328698              -6.3367
       361                         -0.2306040              -6.2751
       362                         -0.2298498              -6.2545
       ...                                ...                  ...
       863                        534.3811440           14541.2511
      -------------------------------------------------------------
                  HL-Gap            0.0000566 Eh            0.0015 eV
             Fermi-level           -0.2969209 Eh           -8.0796 eV

  Mulliken/CM5 charges         n(s)   n(p)   n(d)
     1Fe   -0.06832  0.37430   0.548  1.393  6.127
     2C    -0.01612 -0.05755   1.082  2.934  0.000
     3C     0.06284  0.12317   1.108  2.829  0.000
     4C    -0.03832 -0.08478   1.084  2.954  0.000
     5C    -0.03721 -0.08330   1.077  2.960  0.000
     6C     0.06441  0.12848   1.103  2.833  0.000
     7N    -0.16991 -0.43975   1.314  3.855  0.000
     8C     0.01182  0.01707   1.080  2.908  0.000
     9C     0.01686  0.00814   1.093  2.890  0.000
    10C    -0.01668 -0.06984   1.081  2.936  0.000
    11C    -0.01152 -0.06216   1.096  2.916  0.000
    12C     0.03111  0.04007   1.151  2.818  0.000
    13S     0.45028  0.53736   1.583  2.658  1.309
    14O    -0.28216 -0.33266   1.700  4.583  0.000
    15O    -0.29296 -0.48775   1.691  4.602  0.000
    16O    -0.28099 -0.33122   1.701  4.580  0.000
    17C    -0.01087 -0.06149   1.096  2.915  0.000
    18C    -0.01599 -0.06909   1.081  2.935  0.000
    19C     0.06410  0.12738   1.101  2.835  0.000
    20C    -0.03561 -0.08168   1.077  2.959  0.000
    21C    -0.03535 -0.08089   1.083  2.953  0.000
    22N    -0.16789 -0.43676   1.315  3.853  0.000
    23C     0.06837  0.13346   1.113  2.818  0.000
    24C     0.02384  0.03070   1.078  2.898  0.000
    25C     0.06818  0.13326   1.113  2.819  0.000
    26C    -0.03561 -0.08114   1.083  2.953  0.000
    27C    -0.03597 -0.08203   1.076  2.960  0.000
    28C     0.06392  0.12719   1.101  2.835  0.000
    29N    -0.16802 -0.43741   1.315  3.853  0.000
    30C     0.01183  0.01708   1.080  2.908  0.000
    31C     0.01679  0.00807   1.093  2.890  0.000
    32C    -0.01666 -0.06982   1.081  2.936  0.000
    33C    -0.01145 -0.06208   1.096  2.915  0.000
    34C     0.03098  0.03992   1.151  2.818  0.000
    35S     0.45003  0.53711   1.582  2.658  1.310
    36O    -0.28304 -0.33379   1.698  4.585  0.000
    37O    -0.29161 -0.48633   1.691  4.600  0.000
    38O    -0.28117 -0.33134   1.702  4.579  0.000
    39C    -0.01109 -0.06172   1.096  2.916  0.000
    40C    -0.01607 -0.06916   1.081  2.935  0.000
    41C     0.06470  0.12880   1.103  2.832  0.000
    42C    -0.03680 -0.08290   1.077  2.959  0.000
    43C    -0.03803 -0.08451   1.085  2.953  0.000
    44C     0.06297  0.12321   1.108  2.829  0.000
    45N    -0.16977 -0.43908   1.314  3.856  0.000
    46H     0.02908  0.08802   0.971  0.000  0.000
    47H     0.03096  0.08758   0.969  0.000  0.000
    48H     0.02473  0.08357   0.975  0.000  0.000
    49H     0.03166  0.08968   0.968  0.000  0.000
    50H     0.04154  0.10249   0.958  0.000  0.000
    51H     0.22612  0.40424   0.774  0.000  0.000
    52H     0.04298  0.10386   0.957  0.000  0.000
    53H     0.03313  0.09116   0.967  0.000  0.000
    54H     0.02593  0.08473   0.974  0.000  0.000
    55H     0.02908  0.08715   0.971  0.000  0.000
    56H     0.02886  0.08689   0.971  0.000  0.000
    57H     0.02645  0.08524   0.974  0.000  0.000
    58H     0.03186  0.08990   0.968  0.000  0.000
    59H     0.04136  0.10235   0.959  0.000  0.000
    60H     0.22692  0.40516   0.773  0.000  0.000
    61H     0.04302  0.10388   0.957  0.000  0.000
    62H     0.03285  0.09088   0.967  0.000  0.000
    63H     0.02420  0.08304   0.976  0.000  0.000
    64H     0.03116  0.08778   0.969  0.000  0.000
    65Fe   -0.06908  0.36896   0.547  1.393  6.129
    66C    -0.01577 -0.05724   1.082  2.933  0.000
    67C     0.06314  0.12344   1.108  2.829  0.000
    68C    -0.03806 -0.08454   1.085  2.953  0.000
    69C    -0.03700 -0.08308   1.077  2.960  0.000
    70C     0.06476  0.12876   1.103  2.832  0.000
    71N    -0.17001 -0.43862   1.315  3.855  0.000
    72C     0.01207  0.01728   1.080  2.908  0.000
    73C     0.01692  0.00815   1.093  2.890  0.000
    74C    -0.01667 -0.06981   1.081  2.936  0.000
    75C    -0.01141 -0.06204   1.096  2.915  0.000
    76C     0.03118  0.04014   1.151  2.818  0.000
    77S     0.45033  0.53737   1.583  2.658  1.309
    78O    -0.28193 -0.33230   1.700  4.582  0.000
    79O    -0.29300 -0.48778   1.691  4.602  0.000
    80O    -0.28110 -0.33146   1.700  4.581  0.000
    81C    -0.01079 -0.06142   1.096  2.915  0.000
    82C    -0.01596 -0.06909   1.081  2.935  0.000
    83C     0.06468  0.12801   1.101  2.834  0.000
    84C    -0.03539 -0.08147   1.077  2.959  0.000
    85C    -0.03499 -0.08056   1.083  2.952  0.000
    86N    -0.16804 -0.43542   1.315  3.853  0.000
    87C     0.06861  0.13345   1.113  2.819  0.000
    88C     0.02431  0.03111   1.078  2.898  0.000
    89C     0.06839  0.13325   1.113  2.819  0.000
    90C    -0.03528 -0.08084   1.083  2.952  0.000
    91C    -0.03578 -0.08184   1.076  2.959  0.000
    92C     0.06446  0.12780   1.101  2.834  0.000
    93N    -0.16822 -0.43627   1.316  3.853  0.000
    94C     0.01206  0.01727   1.080  2.908  0.000
    95C     0.01684  0.00807   1.093  2.890  0.000
    96C    -0.01663 -0.06977   1.081  2.936  0.000
    97C    -0.01139 -0.06202   1.096  2.915  0.000
    98C     0.03104  0.03998   1.151  2.818  0.000
    99S     0.45008  0.53717   1.583  2.658  1.310
   100O    -0.28294 -0.33363   1.699  4.584  0.000
   101O    -0.29160 -0.48636   1.691  4.601  0.000
   102O    -0.28116 -0.33134   1.702  4.579  0.000
   103C    -0.01099 -0.06163   1.096  2.915  0.000
   104C    -0.01608 -0.06922   1.081  2.935  0.000
   105C     0.06505  0.12906   1.103  2.832  0.000
   106C    -0.03659 -0.08269   1.077  2.959  0.000
   107C    -0.03776 -0.08426   1.085  2.953  0.000
   108C     0.06329  0.12352   1.108  2.829  0.000
   109N    -0.16984 -0.43779   1.314  3.856  0.000
   110H     0.02927  0.08824   0.971  0.000  0.000
   111H     0.03124  0.08787   0.969  0.000  0.000
   112H     0.02512  0.08397   0.975  0.000  0.000
   113H     0.03177  0.08975   0.968  0.000  0.000
   114H     0.04166  0.10258   0.958  0.000  0.000
   115H     0.22612  0.40427   0.774  0.000  0.000
   116H     0.04312  0.10404   0.957  0.000  0.000
   117H     0.03333  0.09132   0.967  0.000  0.000
   118H     0.02622  0.08509   0.974  0.000  0.000
   119H     0.02913  0.08727   0.971  0.000  0.000
   120H     0.02891  0.08701   0.971  0.000  0.000
   121H     0.02683  0.08569   0.973  0.000  0.000
   122H     0.03205  0.09006   0.968  0.000  0.000
   123H     0.04141  0.10243   0.959  0.000  0.000
   124H     0.22698  0.40523   0.773  0.000  0.000
   125H     0.04320  0.10403   0.957  0.000  0.000
   126H     0.03298  0.09094   0.967  0.000  0.000
   127H     0.02451  0.08337   0.975  0.000  0.000
   128H     0.03142  0.08806   0.969  0.000  0.000
   129C    -0.01850 -0.01927   1.063  2.955  0.000
   130C    -0.01586 -0.01747   1.091  2.925  0.000
   131C    -0.01875 -0.01950   1.063  2.956  0.000
   132C    -0.01535 -0.01688   1.091  2.924  0.000
   133C    -0.01800 -0.01876   1.063  2.955  0.000
   134C    -0.01455 -0.01611   1.092  2.923  0.000
   135C    -0.01753 -0.01834   1.063  2.954  0.000
   136C    -0.01521 -0.01689   1.091  2.924  0.000
   137Fe   -0.06538  0.38156   0.549  1.395  6.121
   138C     0.02364  0.03059   1.078  2.899  0.000
   139C     0.06850  0.13360   1.114  2.818  0.000
   140C    -0.03546 -0.08098   1.083  2.953  0.000
   141C    -0.03523 -0.08129   1.077  2.958  0.000
   142C     0.06415  0.12748   1.101  2.835  0.000
   143N    -0.16701 -0.43792   1.314  3.853  0.000
   144C     0.01395  0.01919   1.081  2.905  0.000
   145C     0.01689  0.00821   1.092  2.891  0.000
   146C    -0.01591 -0.06906   1.080  2.936  0.000
   147C    -0.01077 -0.06140   1.096  2.915  0.000
   148C     0.03135  0.04030   1.151  2.817  0.000
   149S     0.45030  0.53742   1.582  2.658  1.310
   150O    -0.28291 -0.33367   1.698  4.585  0.000
   151O    -0.29176 -0.48645   1.691  4.601  0.000
   152O    -0.28014 -0.33026   1.702  4.578  0.000
   153C    -0.01110 -0.06173   1.096  2.915  0.000
   154C    -0.01608 -0.06915   1.081  2.935  0.000
   155C     0.06456  0.12792   1.101  2.834  0.000
   156C    -0.03495 -0.08106   1.078  2.957  0.000
   157C    -0.03527 -0.08082   1.083  2.952  0.000
   158N    -0.16687 -0.43680   1.313  3.854  0.000
   159C     0.06866  0.13361   1.113  2.818  0.000
   160C     0.02369  0.03061   1.077  2.899  0.000
   161C     0.06846  0.13340   1.113  2.818  0.000
   162C    -0.03542 -0.08096   1.083  2.952  0.000
   163C    -0.03508 -0.08116   1.077  2.958  0.000
   164C     0.06432  0.12773   1.101  2.835  0.000
   165N    -0.16714 -0.43795   1.314  3.853  0.000
   166C     0.01385  0.01911   1.081  2.905  0.000
   167C     0.01694  0.00826   1.092  2.891  0.000
   168C    -0.01595 -0.06908   1.081  2.935  0.000
   169C    -0.01079 -0.06141   1.096  2.915  0.000
   170C     0.03131  0.04026   1.151  2.817  0.000
   171S     0.45026  0.53736   1.582  2.658  1.309
   172O    -0.28293 -0.33363   1.699  4.584  0.000
   173O    -0.29202 -0.48668   1.691  4.601  0.000
   174O    -0.28031 -0.33047   1.702  4.579  0.000
   175C    -0.01114 -0.06176   1.096  2.915  0.000
   176C    -0.01604 -0.06912   1.081  2.935  0.000
   177C     0.06419  0.12742   1.101  2.835  0.000
   178C    -0.03534 -0.08141   1.078  2.958  0.000
   179C    -0.03557 -0.08109   1.083  2.953  0.000
   180C     0.06863  0.13382   1.113  2.818  0.000
   181N    -0.16676 -0.43692   1.313  3.854  0.000
   182H     0.02881  0.08681   0.971  0.000  0.000
   183H     0.02664  0.08537   0.973  0.000  0.000
   184H     0.03307  0.09114   0.967  0.000  0.000
   185H     0.04264  0.10360   0.957  0.000  0.000
   186H     0.22671  0.40484   0.773  0.000  0.000
   187H     0.04273  0.10362   0.957  0.000  0.000
   188H     0.03264  0.09070   0.967  0.000  0.000
   189H     0.02589  0.08471   0.974  0.000  0.000
   190H     0.02861  0.08666   0.971  0.000  0.000
   191H     0.02848  0.08647   0.972  0.000  0.000
   192H     0.02582  0.08461   0.974  0.000  0.000
   193H     0.03305  0.09109   0.967  0.000  0.000
   194H     0.04268  0.10362   0.957  0.000  0.000
   195H     0.22654  0.40465   0.773  0.000  0.000
   196H     0.04262  0.10353   0.957  0.000  0.000
   197H     0.03280  0.09089   0.967  0.000  0.000
   198H     0.02631  0.08505   0.974  0.000  0.000
   199H     0.02859  0.08659   0.971  0.000  0.000

Wiberg/Mayer (AO) data.
largest (>0.10) Wiberg bond orders for each atom

 ---------------------------------------------------------------------------
     #   Z sym  total        # sym  WBO       # sym  WBO       # sym  WBO
 ---------------------------------------------------------------------------
     1  26 Fe   4.377 --    45 N    0.876     7 N    0.873    22 N    0.869
                            29 N    0.867
     2   6 C    3.838 --    44 C    1.396     3 C    1.392    46 H    0.996
     3   6 C    3.944 --     2 C    1.392     7 N    1.222     4 C    1.205
     4   6 C    3.854 --     5 C    1.636     3 C    1.205    47 H    0.993
     5   6 C    3.831 --     4 C    1.636     6 C    1.210    48 H    0.998
     6   6 C    3.924 --     8 C    1.362     7 N    1.226     5 C    1.210
     7   7 N    3.119 --     6 C    1.226     3 C    1.222     1 Fe   0.873
     8   6 C    3.842 --    19 C    1.368     6 C    1.362     9 C    1.052
     9   6 C    3.894 --    10 C    1.422    18 C    1.422     8 C    1.052
    10   6 C    3.869 --    11 C    1.454     9 C    1.422    49 H    0.988
    11   6 C    3.915 --    10 C    1.454    12 C    1.418    50 H    0.985
    12   6 C    3.938 --    11 C    1.418    17 C    1.418    13 S    0.891
    13  16 S    5.801 --    16 O    1.894    14 O    1.892    15 O    1.078
                            12 C    0.891
    14   8 O    2.226 --    13 S    1.892    16 O    0.135
    15   8 O    2.281 --    13 S    1.078    51 H    0.938
    16   8 O    2.231 --    13 S    1.894    14 O    0.135
    17   6 C    3.915 --    18 C    1.454    12 C    1.418    52 H    0.985
    18   6 C    3.869 --    17 C    1.454     9 C    1.422    53 H    0.987
    19   6 C    3.916 --     8 C    1.368    22 N    1.218    20 C    1.215
    20   6 C    3.828 --    21 C    1.625    19 C    1.215    54 H    0.997
    21   6 C    3.845 --    20 C    1.625    23 C    1.225    55 H    0.998
    22   7 N    3.125 --    23 C    1.242    19 C    1.218     1 Fe   0.869
    23   6 C    3.924 --    24 C    1.310    22 N    1.242    21 C    1.225
    24   6 C    3.864 --    23 C    1.310    25 C    1.307   130 C    1.203
    25   6 C    3.925 --    24 C    1.307    29 N    1.242    26 C    1.227
    26   6 C    3.846 --    27 C    1.623    25 C    1.227    56 H    0.998
    27   6 C    3.828 --    26 C    1.623    28 C    1.216    57 H    0.997
    28   6 C    3.916 --    30 C    1.366    29 N    1.218    27 C    1.216
    29   7 N    3.124 --    25 C    1.242    28 C    1.218     1 Fe   0.867
    30   6 C    3.843 --    28 C    1.366    41 C    1.364    31 C    1.052
    31   6 C    3.894 --    32 C    1.422    40 C    1.422    30 C    1.052
    32   6 C    3.868 --    33 C    1.453    31 C    1.422    58 H    0.988
    33   6 C    3.915 --    32 C    1.453    34 C    1.419    59 H    0.985
    34   6 C    3.937 --    33 C    1.419    39 C    1.418    35 S    0.890
    35  16 S    5.803 --    38 O    1.897    36 O    1.889    37 O    1.081
                            34 C    0.890
    36   8 O    2.220 --    35 S    1.889    38 O    0.134
    37   8 O    2.283 --    35 S    1.081    60 H    0.938    38 O    0.101
    38   8 O    2.236 --    35 S    1.897    36 O    0.134    37 O    0.101
    39   6 C    3.914 --    40 C    1.454    34 C    1.418    61 H    0.985
    40   6 C    3.869 --    39 C    1.454    31 C    1.422    62 H    0.988
    41   6 C    3.924 --    30 C    1.364    45 N    1.227    42 C    1.208
    42   6 C    3.832 --    43 C    1.638    41 C    1.208    63 H    0.998
    43   6 C    3.855 --    42 C    1.638    44 C    1.203    64 H    0.993
    44   6 C    3.943 --     2 C    1.396    45 N    1.221    43 C    1.203
    45   7 N    3.119 --    41 C    1.227    44 C    1.221     1 Fe   0.876
    46   1 H    1.032 --     2 C    0.996
    47   1 H    1.026 --     4 C    0.993
    48   1 H    1.038 --     5 C    0.998
    49   1 H    1.049 --    10 C    0.988
    50   1 H    1.044 --    11 C    0.985
    51   1 H    1.017 --    15 O    0.938
    52   1 H    1.042 --    17 C    0.985
    53   1 H    1.048 --    18 C    0.987
    54   1 H    1.039 --    20 C    0.997
    55   1 H    1.032 --    21 C    0.998
    56   1 H    1.033 --    26 C    0.998
    57   1 H    1.037 --    27 C    0.997
    58   1 H    1.049 --    32 C    0.988
    59   1 H    1.044 --    33 C    0.985
    60   1 H    1.017 --    37 O    0.938
    61   1 H    1.042 --    39 C    0.985
    62   1 H    1.049 --    40 C    0.988
    63   1 H    1.040 --    42 C    0.998
    64   1 H    1.026 --    43 C    0.993
    65  26 Fe   4.357 --   109 N    0.873    71 N    0.870    86 N    0.868
                            93 N    0.865
    66   6 C    3.838 --   108 C    1.397    67 C    1.392   110 H    0.996
    67   6 C    3.943 --    66 C    1.392    71 N    1.223    68 C    1.205
    68   6 C    3.855 --    69 C    1.636    67 C    1.205   111 H    0.993
    69   6 C    3.831 --    68 C    1.636    70 C    1.210   112 H    0.998
    70   6 C    3.924 --    72 C    1.363    71 N    1.227    69 C    1.210
    71   7 N    3.118 --    70 C    1.227    67 C    1.223    65 Fe   0.870
    72   6 C    3.843 --    83 C    1.369    70 C    1.363    73 C    1.050
    73   6 C    3.894 --    74 C    1.423    82 C    1.423    72 C    1.050
    74   6 C    3.869 --    75 C    1.454    73 C    1.423   113 H    0.988
    75   6 C    3.915 --    74 C    1.454    76 C    1.418   114 H    0.985
    76   6 C    3.938 --    81 C    1.418    75 C    1.418    77 S    0.891
    77  16 S    5.800 --    80 O    1.893    78 O    1.892    79 O    1.078
                            76 C    0.891
    78   8 O    2.228 --    77 S    1.892    80 O    0.135
    79   8 O    2.282 --    77 S    1.078   115 H    0.938
    80   8 O    2.229 --    77 S    1.893    78 O    0.135
    81   6 C    3.914 --    82 C    1.453    76 C    1.418   116 H    0.985
    82   6 C    3.869 --    81 C    1.453    73 C    1.423   117 H    0.987
    83   6 C    3.916 --    72 C    1.369    86 N    1.219    84 C    1.213
    84   6 C    3.829 --    85 C    1.628    83 C    1.213   118 H    0.997
    85   6 C    3.846 --    84 C    1.628    87 C    1.223   119 H    0.997
    86   7 N    3.124 --    87 C    1.240    83 C    1.219    65 Fe   0.868
    87   6 C    3.926 --    88 C    1.317    86 N    1.240    85 C    1.223
    88   6 C    3.865 --    87 C    1.317    89 C    1.313   136 C    1.190
    89   6 C    3.926 --    88 C    1.313    93 N    1.240    90 C    1.225
    90   6 C    3.846 --    91 C    1.625    89 C    1.225   120 H    0.998
    91   6 C    3.829 --    90 C    1.625    92 C    1.215   121 H    0.997
    92   6 C    3.917 --    94 C    1.366    93 N    1.219    91 C    1.215
    93   7 N    3.124 --    89 C    1.240    92 C    1.219    65 Fe   0.865
    94   6 C    3.843 --    92 C    1.366   105 C    1.366    95 C    1.050
    95   6 C    3.894 --    96 C    1.423   104 C    1.423    94 C    1.050
    96   6 C    3.869 --    97 C    1.453    95 C    1.423   122 H    0.988
    97   6 C    3.915 --    96 C    1.453    98 C    1.419   123 H    0.985
    98   6 C    3.938 --    97 C    1.419   103 C    1.418    99 S    0.890
    99  16 S    5.803 --   102 O    1.897   100 O    1.889   101 O    1.081
                            98 C    0.890
   100   8 O    2.221 --    99 S    1.889   102 O    0.134
   101   8 O    2.283 --    99 S    1.081   124 H    0.938   102 O    0.101
   102   8 O    2.236 --    99 S    1.897   100 O    0.134   101 O    0.101
   103   6 C    3.914 --   104 C    1.454    98 C    1.418   125 H    0.985
   104   6 C    3.869 --   103 C    1.454    95 C    1.423   126 H    0.988
   105   6 C    3.924 --    94 C    1.366   109 N    1.227   106 C    1.208
   106   6 C    3.832 --   107 C    1.638   105 C    1.208   127 H    0.998
   107   6 C    3.855 --   106 C    1.638   108 C    1.203   128 H    0.993
   108   6 C    3.943 --    66 C    1.397   109 N    1.221   107 C    1.203
   109   7 N    3.118 --   105 C    1.227   108 C    1.221    65 Fe   0.873
   110   1 H    1.032 --    66 C    0.996
   111   1 H    1.025 --    68 C    0.993
   112   1 H    1.040 --    69 C    0.998
   113   1 H    1.049 --    74 C    0.988
   114   1 H    1.044 --    75 C    0.985
   115   1 H    1.017 --    79 O    0.938
   116   1 H    1.043 --    81 C    0.985
   117   1 H    1.049 --    82 C    0.987
   118   1 H    1.041 --    84 C    0.997
   119   1 H    1.032 --    85 C    0.997
   120   1 H    1.032 --    90 C    0.998
   121   1 H    1.039 --    91 C    0.997
   122   1 H    1.049 --    96 C    0.988
   123   1 H    1.045 --    97 C    0.985
   124   1 H    1.017 --   101 O    0.938
   125   1 H    1.042 --   103 C    0.985
   126   1 H    1.049 --   104 C    0.988
   127   1 H    1.042 --   106 C    0.998
   128   1 H    1.025 --   107 C    0.993
   129   6 C    3.822 --   130 C    2.520   131 C    1.315
   130   6 C    3.801 --   129 C    2.520    24 C    1.203   132 C    0.187
   131   6 C    3.820 --   132 C    2.518   129 C    1.315
   132   6 C    3.802 --   131 C    2.518   138 C    1.205   130 C    0.187
   133   6 C    3.819 --   134 C    2.531   135 C    1.303
   134   6 C    3.800 --   133 C    2.531   160 C    1.193   136 C    0.185
   135   6 C    3.821 --   136 C    2.534   133 C    1.303
   136   6 C    3.799 --   135 C    2.534    88 C    1.190   134 C    0.185
   137  26 Fe   4.341 --   158 N    0.873   181 N    0.871   165 N    0.869
                           143 N    0.868
   138   6 C    3.858 --   180 C    1.307   139 C    1.305   132 C    1.205
   139   6 C    3.923 --   138 C    1.305   143 N    1.241   140 C    1.228
   140   6 C    3.843 --   141 C    1.621   139 C    1.228   182 H    0.998
   141   6 C    3.828 --   140 C    1.621   142 C    1.219   183 H    0.998
   142   6 C    3.913 --   144 C    1.362   141 C    1.219   143 N    1.218
   143   7 N    3.119 --   139 C    1.241   142 C    1.218   137 Fe   0.868
   144   6 C    3.838 --   155 C    1.367   142 C    1.362   145 C    1.053
   145   6 C    3.892 --   146 C    1.422   154 C    1.421   144 C    1.053
   146   6 C    3.867 --   147 C    1.453   145 C    1.422   184 H    0.988
   147   6 C    3.915 --   146 C    1.453   148 C    1.419   185 H    0.985
   148   6 C    3.938 --   147 C    1.419   153 C    1.418   149 S    0.890
   149  16 S    5.803 --   152 O    1.898   150 O    1.889   151 O    1.081
                           148 C    0.890
   150   8 O    2.220 --   149 S    1.889   152 O    0.134
   151   8 O    2.284 --   149 S    1.081   186 H    0.938   152 O    0.101
   152   8 O    2.237 --   149 S    1.898   150 O    0.134   151 O    0.101
   153   6 C    3.914 --   154 C    1.454   148 C    1.418   187 H    0.985
   154   6 C    3.869 --   153 C    1.454   145 C    1.421   188 H    0.988
   155   6 C    3.913 --   144 C    1.367   158 N    1.217   156 C    1.215
   156   6 C    3.829 --   157 C    1.626   155 C    1.215   189 H    0.997
   157   6 C    3.844 --   156 C    1.626   159 C    1.225   190 H    0.998
   158   7 N    3.119 --   159 C    1.239   155 C    1.217   137 Fe   0.873
   159   6 C    3.924 --   160 C    1.313   158 N    1.239   157 C    1.225
   160   6 C    3.859 --   159 C    1.313   161 C    1.310   134 C    1.193
   161   6 C    3.925 --   160 C    1.310   165 N    1.239   162 C    1.227
   162   6 C    3.844 --   163 C    1.622   161 C    1.227   191 H    0.998
   163   6 C    3.829 --   162 C    1.622   164 C    1.218   192 H    0.998
   164   6 C    3.913 --   166 C    1.362   165 N    1.218   163 C    1.218
   165   7 N    3.118 --   161 C    1.239   164 C    1.218   137 Fe   0.869
   166   6 C    3.838 --   177 C    1.367   164 C    1.362   167 C    1.053
   167   6 C    3.893 --   168 C    1.422   176 C    1.421   166 C    1.053
   168   6 C    3.868 --   169 C    1.453   167 C    1.422   193 H    0.988
   169   6 C    3.915 --   168 C    1.453   170 C    1.419   194 H    0.985
   170   6 C    3.938 --   169 C    1.419   175 C    1.418   171 S    0.890
   171  16 S    5.802 --   174 O    1.897   172 O    1.889   173 O    1.080
                           170 C    0.890
   172   8 O    2.221 --   171 S    1.889   174 O    0.134
   173   8 O    2.283 --   171 S    1.080   195 H    0.938   174 O    0.101
   174   8 O    2.236 --   171 S    1.897   172 O    0.134   173 O    0.101
   175   6 C    3.914 --   176 C    1.454   170 C    1.418   196 H    0.985
   176   6 C    3.868 --   175 C    1.454   167 C    1.421   197 H    0.988
   177   6 C    3.913 --   166 C    1.367   178 C    1.216   181 N    1.216
   178   6 C    3.828 --   179 C    1.623   177 C    1.216   198 H    0.998
   179   6 C    3.844 --   178 C    1.623   180 C    1.226   199 H    0.998
   180   6 C    3.923 --   138 C    1.307   181 N    1.242   179 C    1.226
   181   7 N    3.120 --   180 C    1.242   177 C    1.216   137 Fe   0.871
   182   1 H    1.033 --   140 C    0.998
   183   1 H    1.037 --   141 C    0.998
   184   1 H    1.048 --   146 C    0.988
   185   1 H    1.043 --   147 C    0.985
   186   1 H    1.017 --   151 O    0.938
   187   1 H    1.042 --   153 C    0.985
   188   1 H    1.049 --   154 C    0.988
   189   1 H    1.039 --   156 C    0.997
   190   1 H    1.032 --   157 C    0.998
   191   1 H    1.032 --   162 C    0.998
   192   1 H    1.039 --   163 C    0.998
   193   1 H    1.049 --   168 C    0.988
   194   1 H    1.043 --   169 C    0.985
   195   1 H    1.017 --   173 O    0.938
   196   1 H    1.042 --   175 C    0.985
   197   1 H    1.048 --   176 C    0.988
   198   1 H    1.038 --   178 C    0.998
   199   1 H    1.033 --   179 C    0.998
 ---------------------------------------------------------------------------

Topologies differ in total number of bonds
Writing topology from bond orders to xtbtopo.mol

 dipole moment from electron density (au)
     X       Y       Z   
 -90.6453  -1.5807  -0.2940  total (Debye):  230.434


           -------------------------------------------------
          | TOTAL ENERGY             -444.319762980368 Eh   |
          | GRADIENT NORM               0.162050615189 Eh/α |
          | HOMO-LUMO GAP               0.001540961917 eV   |
           -------------------------------------------------
########################################################################
[WARNING] Runtime exception occurred
-1- restart_readRestart: Dimension missmatch in restart file.
########################################################################

------------------------------------------------------------------------
 * finished run on 2022/07/29 at 21:12:28.041     
------------------------------------------------------------------------
 total:
 * wall-time:     0 d,  0 h,  0 min, 52.816 sec
 *  cpu-time:     0 d,  0 h,  0 min, 52.518 sec
 * ratio c/w:     0.994 speedup
 SCF:
 * wall-time:     0 d,  0 h,  0 min, 52.235 sec
 *  cpu-time:     0 d,  0 h,  0 min, 51.943 sec
 * ratio c/w:     0.994 speedup

