180
 energy: -310.547517682554 gnorm: 0.670989965704 xtb: 6.5.1 (b24c23e)
C           32.32528800000000        0.12590400000000        0.27209200000000
C           33.05873300000000        1.29857200000000       -0.44860500000000
C           32.46176600000000        2.42628700000000       -0.96404700000000
C           33.48600900000000        3.19556900000000       -1.57530400000000
C           34.67370600000000        2.50651400000000       -1.41852500000000
N           34.40735100000000        1.37581500000000       -0.68752200000000
C           36.08719900000000        2.91854500000000       -1.99286000000000
C           36.11639099999999        3.97690900000000       -2.95954900000000
C           36.12654800000000        4.86377400000000       -3.77040700000000
C           36.13670500000000        5.91526400000000       -4.73676400000000
C           35.33822800000000        5.82717500000000       -5.87168600000000
C           35.38264000000000        6.87168100000000       -6.77856100000000
N           36.15447900000000        7.97213400000000       -6.62781700000000
C           36.91812600000000        8.02223300000000       -5.51246800000000
C           36.94472900000000        7.03073800000000       -4.54707800000000
C           37.21529200000000        2.26502700000000       -1.61000500000000
C           38.51104000000000        2.60061700000000       -2.16510900000000
C           39.41807699999999        1.79099400000000       -1.63107300000000
N           37.42191900000000        1.23817000000000       -0.72629600000000
C           38.75139400000000        0.90443400000000       -0.69745100000000
C           39.42560800000000       -0.04043700000000        0.01066600000000
C           38.65664600000000       -0.97181000000000        1.03946300000000
C           39.20691700000000       -1.61195400000000        2.13257300000000
C           38.17949800000000       -2.37389300000000        2.74309000000000
C           37.02876100000000       -2.17024300000000        2.01135300000000
N           37.31753900000000       -1.27591800000000        1.00772400000000
C           35.61632100000000       -2.82214600000000        2.28806500000000
C           35.58532600000000       -4.06264000000000        3.00239300000000
C           35.56995900000000       -5.10679300000000        3.59665900000000
C           35.54649100000000       -6.35165900000000        4.29637400000000
C           36.58671200000000       -6.69168200000000        5.15400200000000
C           36.51651399999999       -7.90981500000000        5.80764400000000
N           35.49853800000000       -8.78857500000000        5.66332100000000
C           34.50562300000000       -8.42427800000000        4.82012800000000
C           34.48286800000000       -7.23005700000000        4.12090500000000
C           34.48879100000000       -2.21512700000000        1.84078900000000
C           33.16218900000000       -2.75285500000000        2.08732000000000
C           32.27097800000000       -1.93217400000000        1.53865700000000
C           32.99329200000000       -0.85020800000000        0.91517100000000
N           34.32019300000000       -1.06500600000000        1.12109700000000
H           31.24301200000000        0.09883700000000        0.22770400000000
H           31.40931500000000        2.66122000000000       -0.91885200000000
H           33.36559000000000        4.13615400000000       -2.09129200000000
H           35.09933700000000        0.69909000000000       -0.37415200000000
H           34.70074000000000        4.96658200000000       -6.04273600000000
H           34.77804800000000        6.84918500000000       -7.67972500000000
H           37.53112800000000        8.91222300000000       -5.41007100000000
H           37.57717200000000        7.12206000000000       -3.67062900000000
H           38.71286900000000        3.36588600000000       -2.89303200000000
H           40.46732600000000        1.81119300000000       -1.86283800000000
H           40.23582600000000       -1.54747300000000        2.45256900000000
H           38.26887600000000       -3.00074700000000        3.61718800000000
H           36.63179500000000       -0.85955100000000        0.38321000000000
H           37.42833400000000       -6.02491000000000        5.30659900000000
H           37.30431700000000       -8.22061500000000        6.48692000000000
H           33.69844900000000       -9.14283300000000        4.71570500000000
H           33.66062600000000       -6.98827500000000        3.45594700000000
H           32.93561100000000       -3.65387100000000        2.62776200000000
H           31.20242199999999       -2.04905000000000        1.55066500000000
C           62.59878300000000        0.20133100000000        0.20447300000000
C           61.86533900000000       -0.64271600000000        1.29173500000000
C           62.46230500000000       -1.27783500000000        2.35665000000000
C           61.43806200000000       -1.96918800000000        3.05483400000000
C           60.25036500000000       -1.73834500000000        2.38693600000000
N           60.51672000000000       -0.88862000000000        1.34251500000000
C           58.83687200000000       -2.35411300000000        2.73400900000000
C           58.80768000000000       -3.43025000000000        3.68087400000000
C           58.79752299999999       -4.33281600000000        4.47421800000000
C           58.78736700000000       -5.40787500000000        5.41428400000000
C           59.58584300000000       -6.52646800000000        5.20319500000000
C           59.54143100000000       -7.54163700000000        6.14279300000000
N           58.76959300000000       -7.51156000000000        7.25311600000000
C           58.00594500000000       -6.40829100000000        7.42431000000000
C           57.97934200000000       -5.34072200000000        6.54377700000000
C           57.70877899999999       -1.90240500000000        2.12604300000000
C           56.41303199999999       -2.49073600000000        2.39922300000000
C           55.50599400000000       -1.87175400000000        1.65253400000000
N           57.50215299999999       -0.91218300000000        1.20146800000000
C           56.17267699999999       -0.84718700000000        0.87285400000000
C           55.49846299999999       -0.04043700000000        0.01066600000000
C           56.26742500000000        1.08361700000000       -0.80320100000000
C           55.71715499999999        2.23990600000000       -1.32056900000000
C           56.74457400000000        2.92972400000000       -2.01153400000000
C           57.89531000000000        2.18016900000000       -1.88873600000000
N           57.60653300000000        1.08516500000000       -1.10895700000000
C           59.30775000000000        2.52618900000000       -2.50664900000000
C           59.33874500000000        3.37128700000000       -3.66202800000000
C           59.35411199999999        4.07566700000000       -4.63529800000000
C           59.37758000000000        4.90671500000000       -5.79661300000000
C           58.33735899999999        5.79625600000000       -6.04127300000000
C           58.40755700000000        6.57859400000000       -7.18102800000000
N           59.42553300000000        6.53077200000000       -8.07027600000000
C           60.41844900000000        5.65293800000000       -7.79991500000000
C           60.44120399999999        4.82789200000000       -6.68889100000000
C           60.43527999999999        2.01550400000000       -1.95191700000000
C           61.76188200000000        2.31909500000000       -2.45961800000000
C           62.65309299999999        1.68437000000000       -1.70352900000000
C           61.93077900000000        0.94682900000000       -0.69584900000000
N           60.60387800000000        1.17490900000000       -0.88695800000000
H           63.68105900000000        0.16015200000000        0.17273600000000
H           63.51475600000000       -1.25847800000000        2.59510700000000
H           61.55848099999999       -2.58448300000000        3.93367300000000
H           59.82473400000000       -0.50345900000000        0.70391700000000
H           60.22333199999999       -6.60283600000000        4.32909700000000
H           60.14602300000000       -8.43499900000000        6.02235000000000
H           57.39294400000000       -6.40336600000000        8.32015800000000
H           57.34689899999999       -4.47941900000000        6.72994800000000
H           56.21120200000000       -3.29762500000000        3.08072000000000
H           54.45674499999999       -2.10434100000000        1.64738700000000
H           54.68824599999999        2.55098300000000       -1.22164400000000
H           56.65519600000000        3.86685500000000       -2.53953000000000
H           58.29227600000000        0.41904400000000       -0.76303400000000
H           57.49573699999999        5.87537600000000       -5.36185400000000
H           57.61975399999999        7.28766200000000       -7.41605000000000
H           61.22562300000000        5.62734200000000       -8.52556700000000
H           61.26344500000000        4.14056900000000       -6.52091800000000
H           61.98846000000000        2.95439200000000       -3.29646100000000
H           63.72165000000000        1.70902800000000       -1.81840300000000
C           41.42133999999999       -0.04043700000000        0.01066600000000
C           42.64325800000000       -0.04043700000000        0.01066600000000
C           52.28081300000000       -0.04043700000000        0.01066600000000
C           53.50273100000000       -0.04043700000000        0.01066600000000
C           43.89448800000000        0.08505800000000       -0.02243600000000
C           44.69210300000000        0.15215700000000       -1.38940900000000
C           44.20256599999999        0.55936700000000       -2.61304600000000
C           45.24494500000000        0.39463400000000       -3.56138300000000
C           46.33882300000000       -0.10374600000000       -2.88580900000000
N           46.01387900000000       -0.17933000000000       -1.55501700000000
C           47.72347700000000       -0.51678700000000       -3.51618500000000
C           47.71158800000000       -0.99732500000000       -4.86553700000000
C           47.68517400000000       -1.40875200000000       -5.99421700000000
C           47.65620300000000       -1.91390900000000       -7.32956000000000
C           48.41395800000000       -3.02973600000000       -7.66783800000000
C           48.35121300000000       -3.48497300000000       -8.97302600000000
N           47.59843299999999       -2.91067200000000       -9.93880900000000
C           46.87414999999999       -1.82902800000000       -9.57270400000000
C           46.86854799999999       -1.29701600000000       -8.29502700000000
C           48.86021200000000       -0.45198400000000       -2.77792800000000
C           50.14877400000000       -0.83647700000000       -3.31648800000000
C           51.06381999999999       -0.67393600000000       -2.36683200000000
N           49.07545300000000       -0.06445700000000       -1.48400900000000
C           50.40476600000000       -0.17746200000000       -1.17510900000000
C           51.07520600000000        0.08505800000000       -0.02243600000000
C           50.28104400000000        0.61578600000000        1.24380800000000
C           50.79009800000000        1.37111200000000        2.28037400000000
C           49.74934500000000        1.54546100000000        3.22833600000000
C           48.63420500000000        0.89843100000000        2.73757200000000
N           48.94832500000000        0.40040000000000        1.49750500000000
C           47.24125599999999        0.74902000000000        3.46418800000000
C           47.23479099999999        0.82074400000000        4.89488600000000
C           47.22646199999999        0.90384100000000        6.09388300000000
C           47.19948900000000        1.02042700000000        7.51716700000000
C           46.10801800000000        1.61079900000000        8.14553000000000
C           46.12841300000000        1.70826300000000        9.52610100000000
N           47.14472900000000        1.26464300000000       10.30057800000000
C           48.18808599999999        0.69489000000000        9.65453100000000
C           48.26295500000000        0.55034600000000        8.27970400000000
C           46.10721999999999        0.54350700000000        2.74781800000000
C           44.81640300000000        0.37807500000000        3.38522000000000
C           43.90297099999999        0.19218300000000        2.43845600000000
C           44.56448600000000        0.23552500000000        1.14998900000000
N           45.89529499999999        0.44118200000000        1.40091300000000
H           43.20342600000000        0.91834800000000       -2.80668000000000
H           45.19891500000000        0.60143800000000       -4.61958100000000
H           46.66326100000000       -0.39198100000000       -0.80349700000000
H           49.03447300000000       -3.52986200000000       -6.93182300000000
H           48.92396099999999       -4.35268100000000       -9.28515100000000
H           46.27526999999999       -1.38411000000000      -10.36119600000000
H           46.26710700000000       -0.42696900000000       -8.05601900000000
H           50.33929400000000       -1.19221600000000       -4.31320100000000
H           52.11249800000000       -0.88322600000000       -2.48148500000000
H           51.80219500000000        1.73932600000000        2.35835600000000
H           49.81155900000000        2.07038200000000        4.16972000000000
H           48.29043099999999       -0.03140100000000        0.85378100000000
H           45.26663300000000        1.98605900000000        7.57249700000000
H           45.29985099999999        2.16168900000000       10.06194000000000
H           48.99312600000000        0.34433400000000       10.29351900000000
H           49.12524800000000        0.08556200000000        7.81381400000000
H           44.62294700000000        0.39590900000000        4.44258200000000
H           42.85404600000000        0.03964400000000        2.61679700000000
180
 energy: -310.761247375088 gnorm: 0.344718341115 xtb: 6.5.1 (b24c23e)
C           32.35407803156137        0.15488815663438        0.25394072155075
C           33.05604751886936        1.28397256992888       -0.43877950321598
C           32.46695175403271        2.42814033829680       -0.97035507714693
C           33.48313798781899        3.19041661435780       -1.57761621016110
C           34.69007503682121        2.50726158080382       -1.42155276494058
N           34.40876163899165        1.37357777303275       -0.68957288981753
C           36.05429119737718        2.90312808338385       -1.97540900935852
C           36.10252322123217        3.96126625632977       -2.93920468709133
C           36.12583867612373        4.85758562003778       -3.76517166747337
C           36.13701427394513        5.90778958854340       -4.73016437598488
C           35.33894904427152        5.82998493826892       -5.87189196830865
C           35.38504143883069        6.87534116933462       -6.77800491262178
N           36.15450516594470        7.96309233670372       -6.61954562793672
C           36.91571224973457        8.02209674808309       -5.51607808640424
C           36.94425759271346        7.03117632044919       -4.54990058203069
C           37.22117980034741        2.25239433061791       -1.60246689175005
C           38.51432248970693        2.60394495869219       -2.16970188140219
C           39.43107710353017        1.79229006541936       -1.63282173214461
N           37.42219660655267        1.22250564403986       -0.72165613848159
C           38.76578225272882        0.89942866943555       -0.69560783391486
C           39.44712956252640       -0.05137934867564        0.04843236798951
C           38.67530016210792       -0.95598854458711        1.02555428398133
C           39.20764393456169       -1.61859884243342        2.12999309507133
C           38.18451889406711       -2.37360379582353        2.73615284045150
C           37.01574361087218       -2.17024119285547        2.00984001812980
N           37.32462192345095       -1.27435352376554        1.00286633945814
C           35.65117086845900       -2.80558629463943        2.27757887446609
C           35.60031895148003       -4.03991653259960        2.99318681465138
C           35.57125164847643       -5.09977151967818        3.59560458533036
C           35.54662500520168       -6.34291980671708        4.29077603130702
C           36.58559617660642       -6.69444194531330        5.15392395362549
C           36.51333885558370       -7.91255316490894        5.80714789804837
N           35.49874230212752       -8.77795444428044        5.65719366461063
C           34.50857806433623       -8.42538074042620        4.82270954939075
C           34.48364144308694       -7.23154298253928        4.12298112653360
C           34.48632369287492       -2.20976102870193        1.83212166830703
C           33.16056380379877       -2.75997773778888        2.09191146175654
C           32.26454627691705       -1.93533512704664        1.54053174397256
C           33.00250530718239       -0.85162296561747        0.91396360728198
N           34.33332257037507       -1.06030966108026        1.11563564941387
H           31.26277785794324        0.11606036740417        0.22109262843139
H           31.41396208172680        2.66433399423221       -0.92140464712338
H           33.36335508272100        4.13358381698886       -2.08980423360204
H           35.09922914186556        0.69978325885257       -0.37509409918857
H           34.70184588103406        4.96931172533374       -6.04345698409175
H           34.77921309781672        6.85089384070099       -7.67963124266300
H           37.52994504308855        8.91228503248035       -5.41172323894559
H           37.57605232197015        7.12307929183576       -3.67327190433708
H           38.70799630077599        3.37186046322193       -2.89733019311436
H           40.47902574329022        1.80740843237573       -1.86086943448646
H           40.23439593263434       -1.55084920865998        2.45406677852498
H           38.27167656062244       -2.99826234853189        3.61358340677116
H           36.63640419626307       -0.85947437507454        0.38297495449770
H           37.42683665158951       -6.02741939844764        5.30718345654377
H           37.30275704129873       -8.22187435336540        6.48680445875649
H           33.69990471802970       -9.14346412305858        4.71702302214263
H           33.66181008053286       -6.99012857740665        3.45790345549447
H           32.93974024181761       -3.66158390571869        2.63281333515477
H           31.19543799081262       -2.04720513338299        1.54932470054816
C           62.56998492311811        0.18011695467807        0.23132305241929
C           61.86802333876778       -0.63135404041123        1.27827334787396
C           62.45711841063280       -1.28432285412229        2.35780708626591
C           61.44095390940254       -1.97092086219361        3.04946158190940
C           60.23398002101668       -1.74143493443476        2.38736342703427
N           60.51530044811365       -0.89041033232118        1.34007360496420
C           58.86988010486524       -2.33517140546743        2.72058911225938
C           58.82157669755166       -3.40832847534716        3.66755943654162
C           58.79822500175722       -4.32695215563701        4.46864412310530
C           58.78706053829967       -5.40050617720940        5.40756649693164
C           59.58512366685158       -6.52698395232855        5.20596669530644
C           59.53903161545327       -7.54148611055519        6.14649092961208
N           58.76956375926019       -7.50236041227001        7.24502818549056
C           58.00836209293116       -6.41186961609262        7.42377981454985
C           57.97981536807679       -5.34358583890657        6.54390480081060
C           57.70297779479962       -1.89362791044830        2.11424296938312
C           56.40974399884247       -2.49553025517497        2.40198855640752
C           55.49312512270784       -1.87331123895870        1.65345227885264
N           57.50229629851622       -0.90583382166728        1.18671274741971
C           56.15880370791329       -0.84394775511467        0.86833603282070
C           55.47906705484755       -0.00079168951075        0.00288713880863
C           56.24897274264167        1.06798499048965       -0.78999394815451
C           55.71641046166224        2.23813293817637       -1.32767520463737
C           56.73956044933963        2.92284611162652       -2.01205011192613
C           57.90841764773592        2.17874080011883       -1.88894717528172
N           57.59964110593402        1.08018220156051       -1.10812779261159
C           59.27291109400933        2.51399444748161       -2.49130841727246
C           59.32375704851403        3.35967058517429       -3.64044876329142
C           59.35281754127063        4.07385107757771       -4.62843853813014
C           59.37744262577581        4.90020252445054       -5.78854632757762
C           58.33847263950924        5.79647546305641       -6.04402386540520
C           58.41072938920011        6.57839678818371       -7.18380813888930
N           59.42533201665990        6.52352236522260       -8.06037942370316
C           60.41549169456692        5.65562092058132       -7.80073576560902
C           60.44042929483193        4.83011254507171       -6.69014401001340
C           60.43775666988157        2.00629746401784       -1.94752675214101
C           61.76350744593464        2.32443038238870       -2.46620203634892
C           62.65952515635770        1.68657091542537       -1.70646832387660
C           61.92155962878763        0.94578001945386       -0.69739251122371
N           60.59075512772753        1.16895845859769       -0.88289103230089
H           63.66128824633838        0.15169907511623        0.18914107102696
H           63.51010875771003       -1.26136114028133        2.59792313400414
H           61.56072618166466       -2.58272542965490        3.93127783699524
H           59.82483465784104       -0.50447603710327        0.70450112548775
H           60.22222425074767       -6.60385231442735        4.33173179332297
H           60.14485674019252       -8.43509574856689        6.02405746057629
H           57.39412733705002       -6.40501760813683        8.32004083002026
H           57.34802012264468       -4.48215905516484        6.73067267728696
H           56.21604261118697       -3.30249096944504        3.08613510384852
H           54.44514585033306       -2.10175956235959        1.64360998117818
H           54.68969696079274        2.55279912961007       -1.22484012767413
H           56.65239615472989        3.86303729564703       -2.53745346641365
H           58.28772960007219        0.41879676520161       -0.76300911525631
H           57.49723420669449        5.87622626348554       -5.36428745975104
H           57.62131452227840        7.28768008290994       -7.41731766933302
H           61.22416629600652        5.62871756191516       -8.52605405045094
H           61.26226098372564        4.14271047835493       -6.52255054034206
H           61.98432970924154        2.96024933817520       -3.30357995341448
H           63.72863320972879        1.70748975333970       -1.81671669177153
C           41.32858433209578       -0.03890648553805        0.01019242756826
C           42.56745072107752       -0.04171174956702       -0.01479889011483
C           52.37212132488110       -0.03381231680836        0.03477406337993
C           53.60894667658089       -0.03558296052323        0.01160375480783
C           43.92283143224089        0.09095653804577       -0.04888028038996
C           44.69117259108587        0.15445442664906       -1.37564317106813
C           44.20438201885115        0.55157886826862       -2.61553907308044
C           45.24027631367410        0.38800272007103       -3.55878952256065
C           46.35330580327975       -0.10519973291393       -2.88849965135480
N           46.01483693869292       -0.18215342320575       -1.55486965921819
C           47.69116090517016       -0.50963160642970       -3.49900110311852
C           47.69834176678257       -0.98466023674690       -4.84502848423031
C           47.68514304246575       -1.40478977836182       -5.98891880757296
C           47.65634616498610       -1.91080260825599       -7.32035715374659
C           48.41363189887211       -3.02915013287327       -7.67057899437763
C           48.34898639303259       -3.48322342765806       -8.97620380082233
N           47.59863392586590       -2.90654111871565       -9.92756725966270
C           46.87637409121830       -1.83253013283105       -9.57398282229160
C           46.86894598241043       -1.29960702207644       -8.29664370257078
C           48.86100752413929       -0.45497052800198       -2.77064898364998
C           50.14956928730491       -0.83949449606792       -3.32541938265494
C           51.06834463403054       -0.67527169378808       -2.36859831830514
N           49.05765202557820       -0.06535090030005       -1.47686264259147
C           50.37950069356474       -0.18185606694184       -1.18493906990537
C           51.03427999093953        0.09983445311087        0.00130070127735
C           50.27753673583028        0.61397449656131        1.23122802347648
C           50.78714966210784        1.36438514998929        2.28521336663305
C           49.75309816958058        1.53874926251765        3.22777840648617
C           48.61882963463949        0.89730075381502        2.74170513312697
N           48.94546681805151        0.39649704925187        1.49996361253457
C           47.27400039652622        0.75135228749499        3.44567619801216
C           47.24601733621519        0.82466704471080        4.87124839255321
C           47.22784719201503        0.90455219640607        6.08742997975000
C           47.19951513581014        1.01933352211414        7.50724350558199
C           46.10902614441064        1.60972981141968        8.14796414322152
C           46.13163381498676        1.70685462719813        9.52844214523867
N           47.14496867698196        1.26334350576893       10.28834754458997
C           48.18487775283996        0.69675266949953        9.65664838367929
C           48.26175646054438        0.55191593623235        8.28216960668621
C           46.10578659954456        0.53958402677712        2.74091494533324
C           44.81556298542347        0.37823532266281        3.39443205083795
C           43.89772212563066        0.19154921245481        2.44114754846121
C           44.58454691201387        0.23275422170429        1.15930884579162
N           45.91048361135596        0.43800293859296        1.39356983808685
H           43.20640758252779        0.91653176375169       -2.80847094066934
H           45.19552154813657        0.60085422259226       -4.61647908343812
H           46.66250445791899       -0.39260574336153       -0.80461562429060
H           49.03346985915449       -3.52951119353296       -6.93462835495462
H           48.92286536236903       -4.35196725251152       -9.28679583813689
H           46.27637984962813       -1.38555920989843      -10.36188750747183
H           46.26816606048387       -0.42898662218694       -8.05788580803333
H           50.33560161881673       -1.19429532449534       -4.32206135225166
H           52.11908625545411       -0.88168708583117       -2.47484321389909
H           51.79848907034842        1.73767488009172        2.36010271246910
H           49.81464336492345        2.06881352003295        4.16673123141863
H           48.29036566148954       -0.03145576806160        0.85557245305118
H           45.26810954393939        1.98539730369477        7.57511388869026
H           45.30156542541655        2.16101801261138       10.06310930091645
H           48.99149608801496        0.34517741958284       10.29449065057141
H           49.12361992716128        0.08659721638615        7.81635011770383
H           44.62692741916942        0.39739389762580        4.45168757463333
H           42.84685410761220        0.03868298332584        2.61101605569575
180
 energy: -310.883815455416 gnorm: 0.139970317167 xtb: 6.5.1 (b24c23e)
C           32.39635857484026        0.18987889748283        0.23219246851551
C           33.05688403406135        1.26567520644617       -0.42832715860787
C           32.47692239473218        2.43000448627508       -0.98071299539274
C           33.47996560031399        3.18110537821836       -1.58060981530222
C           34.71337302647319        2.50522543221980       -1.42580593824232
N           34.41366518352982        1.37185551491255       -0.69001738368733
C           36.01717980644138        2.88013484502348       -1.95221761551474
C           36.08544816160195        3.94580746899430       -2.91635724040015
C           36.12220809118810        4.84137273047815       -3.74866948452631
C           36.13810032714891        5.89267777896605       -4.71737590755345
C           35.34084860863529        5.83047589782073       -5.86833626733336
C           35.38761980755101        6.87727716681598       -6.77532176597175
N           36.15457397162429        7.95322604125660       -6.61055153690601
C           36.91309181999150        8.01976526365799       -5.51813527569912
C           36.94303114040265        7.02751457221903       -4.55097509788761
C           37.22930517049032        2.23334679981965       -1.59344152114205
C           38.51585133287246        2.60402510764666       -2.17148702754098
C           39.44532330419615        1.79306525642797       -1.63359836788433
N           37.43324002389801        1.20145423604960       -0.71779886510553
C           38.79212251542273        0.89157606024595       -0.69524749804554
C           39.49616064736203       -0.05962838433702        0.08799140805563