556
 energy: -848.951623465168 gnorm: 0.000976996376 xtb: 6.5.1 (b24c23e)
C           88.68434614903187       -0.14686296910605       -0.01165660239397
C           89.30929973673716       -1.38598162493130       -0.06893714615546
C           88.68456139776357       -2.66357688791870       -0.13351240493846
C           89.66830200342758       -3.61123158325567       -0.17824069770484
C           90.92530099308881       -2.94238446208546       -0.14144856475821
N           90.65811893203016       -1.60446168520701       -0.07545266695445
C           92.19372498261991       -3.52700463667442       -0.16536061847058
C           92.23336589077398       -5.01689341875443       -0.24892625784413
C           92.24324478991426       -5.64336997152490       -1.49845776305971
C           92.22001066318114       -4.81483015671817       -2.75529555304059
C           92.27711277754365       -7.03123448995995       -1.56694378982115
C           92.30217768190401       -7.80344628770144       -0.41029108613452
C           92.31813766625211       -9.30576012893713       -0.49661736052007
C           92.29200443543850       -7.16932792422522        0.82785479325449
C           92.25832649162078       -5.78283707262963        0.92001110173189
C           92.25091214521801       -5.10410097441419        2.26385016216877
C           93.40651614271933       -2.84137981408286       -0.12197462778730
C           94.69942758377594       -3.50168775577118       -0.14380869271601
C           95.62813221568271       -2.52432953637217       -0.08958767706999
N           93.57089880530739       -1.49106254211012       -0.05623208008672
C           94.90041866580435       -1.27053462648522       -0.03693543280948
C           95.53892133258393       -0.01410486155874        0.01538201544189
C           94.88834400988726        1.23320982695441        0.06053733876240
C           95.50711860174904        2.51074052894558        0.11582120297162
C           94.51948606109562        3.45590062625881        0.15459118288591
C           93.26655116904638        2.78231823942269        0.12356218947829
N           93.54165871434441        1.44136999276780        0.06630391926402
C           91.99936912091516        3.36720417503682        0.14868038914113
C           91.95402595562294        4.85742113215955        0.21558005466997
C           91.95171867507217        5.60942988916698       -0.96271192594015
C           91.99683309069552        4.91517662533463       -2.29787446353681
C           91.90572757191318        6.99661599206585       -0.88804918878283
C           91.86282611888704        7.64527619953032        0.34176970259237
C           91.79119283920090        9.14691628284699        0.40915486015250
C           91.86461661979209        6.88689247438600        1.50786732067035
C           91.91011327799330        5.49861616232974        1.45691520656963
C           91.91106179912643        4.68517668792687        2.72377706891473
C           90.78544468667718        2.67819963941306        0.11791956785273
C           89.48628488622509        3.33186709260318        0.14562841530030
C           88.56374509711819        2.34935949230214        0.10147660397114
C           89.29904222204351        1.09761829961582        0.04637846324724
N           90.63376521994398        1.33384002676336        0.05819030831398
H           87.59935645522518       -0.16179882603562       -0.01460440142426
H           87.61798644603660       -2.82244279066658       -0.14410767857200
H           89.54677133624104       -4.68125717605223       -0.23114073706484
H           91.36324538341979       -0.87625908234732       -0.03816614956728
H           91.31096768048717       -4.21148389206169       -2.79492107038336
H           92.25645242283491       -5.44913807779499       -3.64044900711374
H           93.07314175021781       -4.13425963340125       -2.77628105284459
H           92.28612207912445       -7.51709964639230       -2.53718164076421
H           91.29504875112580       -9.68911118492596       -0.49057740569524
H           92.79891449099496       -9.63715994073378       -1.41728300018818
H           92.84667517001778       -9.73806724677395        0.35337229515633
H           92.31253708162434       -7.76377994019023        1.73544540857287
H           91.35039112850754       -4.49740160750189        2.37734825077216
H           92.28251061648251       -5.83638596966658        3.07004546459182
H           93.11340195132280       -4.44173383347831        2.35830911305245
H           94.84675137741888       -4.56863538075465       -0.19401606656060
H           96.70263102324022       -2.61496608036513       -0.08565178371569
H           96.57281605304250        2.67384811286073        0.12523656089900
H           94.63776834493328        4.52642193743446        0.20154377733924
H           92.83922883381673        0.71001549890666        0.03441708478485
H           91.96635796250469        5.63723169801753       -3.11327574892922
H           92.91079458063560        4.32485009908782       -2.38780810207959
H           91.14911566821945        4.23510052439191       -2.39995502985907
H           91.90403066121455        7.58007994260910       -1.80296771326373
H           92.25191445862124        9.51737218374186        1.32520167564991
H           90.74742142235360        9.46960808676477        0.39951845229446
H           92.29327305389782        9.59873899616814       -0.44668153639168
H           91.83092861360997        7.38424087154437        2.47172619661097
H           91.87428991265051        5.33060226703848        3.60084750644337
H           91.04848869800747        4.01648107071596        2.74482837776246
H           92.81128701680790        4.07013754550094        2.77925974240956
H           89.33367325810327        4.39844323912827        0.19186750024495
H           87.48800687939911        2.43108703215327        0.10406124475142
C          192.04197219306400        0.10514632176659       -0.01931204227801
C          191.42352259887238        1.34220340437560       -0.14781912717154
C          192.05515293244778        2.61204227551157       -0.27113447110218
C          191.07661519319697        3.56010215406396       -0.37816978064451
C          189.81604237790458        2.89922920406104       -0.32376523971017
N          190.07593354997539        1.56561930005550       -0.18328048684550
C          188.55095609727036        3.48674687486883       -0.40070867903160
C          188.52109805328217        4.97058183882510       -0.56116659168121
C          188.54359929515223        5.53399572129295       -1.84015529963335
C          188.58990566287957        4.64362006179229       -3.05332219859652
C          188.52097041651609        6.91691864899902       -1.97835054104322
C          188.47560960339121        7.74604416405834       -0.86241004612086
C          188.47313749710275        9.24225975589016       -1.02362964336509
C          188.45327151542193        7.17442183976163        0.40562092107625
C          188.47507945223825        5.79409831449552        0.56737385600088
C          188.44796632679629        5.18348991861181        1.94324692035000
C          187.33427375189331        2.80930040188134       -0.34145212581038
C          186.04499313670880        3.47128752116059       -0.42881390964626
C          185.11093103344339        2.50254542656512       -0.32911016792113
N          187.16241060480993        1.46629635967427       -0.19390438022404
C          185.83180319230098        1.25248046007509       -0.18136053955853
C          185.18675251716411        0.00638119937416       -0.03880455107527
C          185.83123086777243       -1.23693442973228        0.10526134406336
C          185.20550599076913       -2.50447574789663        0.24556782494759
C          186.18795899830968       -3.45067863568601        0.34432715296180
C          187.44442661970487       -2.78760638716782        0.26752422638028
N          187.17667071308210       -1.45147622221282        0.12519053023918
C          188.70824103499848       -3.37760528797586        0.32370449865865
C          188.74412762399558       -4.86212209745476        0.47229003120940
C          188.73792051860843       -5.67657469768938       -0.66377436865352
C          188.69434465539760       -5.05508420839981       -2.03438440063054
C          188.77354030718428       -7.05799571834149       -0.51449885281840
C          188.81418617737287       -7.63968363637689        0.74845577257025
C          188.87393926663435       -9.13605282623592        0.89640211976440
C          188.82091365681671       -6.81953594675232        1.87195105411750
C          188.78594082270470       -5.43569098678900        1.74629366763648
C          188.79339147184155       -4.55497855258037        2.96730604000408
C          189.92596972457505       -2.69849792422833        0.25284755419839
C          191.22153623501461       -3.35643481068095        0.31886941880652
C          192.14935820347856       -2.38240161775232        0.22504449633916
C          191.42081565861554       -1.13171946795439        0.10024300610499
N          190.08487019731649       -1.36020936818347        0.11989731710385
H          193.12700831004256        0.11518090343426       -0.01372922226909
H          193.12252275550031        2.76576269828593       -0.27594486961972
H          191.20407153845306        4.62537286505787       -0.48525910129758
H          189.36688871096715        0.84336796809040       -0.11647863700008
H          189.49912104796766        4.03924223793865       -3.04537735239835
H          188.57098693030349        5.23287266128255       -3.96961900883882
H          187.73683053058491        3.96269015509999       -3.05650339209211
H          188.53730259574877        7.35383759045539       -2.97150010299102
H          189.49902596519073        9.61808733593063       -1.01846131093899
H          188.01121354350877        9.53077522859197       -1.96808201315727
H          187.93336265119012        9.72020776982733       -0.20575726933380
H          188.41678129037729        7.81349923165974        1.28184146691322
H          189.33955269560443        4.57476705585196        2.10574409069037
H          188.40748814009177        5.95552784330432        2.71104053267136
H          187.57682207757301        4.53487987590090        2.05256955825966
H          185.90360736604549        4.53334021462671       -0.55001869225973
H          184.03689922604210        2.59666507310657       -0.35005646327722
H          184.13899117431836       -2.66093317208890        0.26622300188747
H          186.06377595825458       -4.51520559138302        0.46070755468248
H          187.88306332562738       -0.72781315513928        0.04387189995813
H          188.71773581427883       -5.82030399068347       -2.80966904585586
H          187.78424667284497       -4.46406485249937       -2.15412212779744
H          189.54646470377989       -4.38748670237918       -2.17489537323308
H          188.76850916060812       -7.68994223841372       -1.39661380021062
H          188.41316651856121       -9.45290931711866        1.83231045746698
H          189.91502717002646       -9.46739380476528        0.90119696545223
H          188.36546518263904       -9.62906674575258        0.06749370436162
H          188.85274622243338       -7.26444843921085        2.86116565097704
H          188.82775639187000       -5.15225723150399        3.87793615875567
H          189.66046758441860       -3.89202352253447        2.95050049529530
H          187.89743831561361       -3.93170606701650        2.99110172866446
H          191.36830026768567       -4.41975926104594        0.42289631465941
H          193.22463787645523       -2.46936448105476        0.23540166335259
C          100.74152717345187        0.01884545867098        0.01724845665479
C           99.51298059269170        0.01907068615326        0.01507834224301
C           98.16832832938957        0.01773988808620        0.01743825012677
C           96.94428669398184        0.00718955434748        0.02079912103550
C          102.08598899856381        0.01180241735990        0.00835281111990
C          103.31012541347052        0.00040958972278       -0.00207180272979
C          116.83840414601666       -0.04940869715160       -0.04457330331909
C          115.60918527702709       -0.05402261543541       -0.03880207987673
C          114.26601065278274       -0.05146496463359       -0.03987751256335
C          113.04116883878403       -0.05260097437419       -0.03858069779483
C          118.18157607448877       -0.05020603847040       -0.04941337549668
C          119.40640894619716       -0.05003863984900       -0.05411427265904
C          132.93174118187940       -0.04216097879335       -0.04162828320100
C          131.70245848930131       -0.04113751001580       -0.03978965991628
C          130.35942745277799       -0.04235152068138       -0.04004263252591
C          129.13460619895500       -0.04762736211631       -0.04193308484236
C          134.27477526890894       -0.04406529580843       -0.04543842680469
C          135.49965787713913       -0.04113434062203       -0.04887441050311
C          149.02425716946880       -0.03607694068884       -0.04175508557415
C          147.79500124917641       -0.03716349717893       -0.04044678556945
C          146.45196068171711       -0.03940462630687       -0.04256075362158
C          145.22709278638166       -0.04495927282402       -0.04261285574164
C          150.36729945522836       -0.03734808828897       -0.04243107526847
C          151.59217578762835       -0.03799667783340       -0.04629954374604
C          165.11760905636640       -0.05811282587605       -0.05645505617853
C          163.88834819212494       -0.05689076223745       -0.05446663530498
C          162.54519934735094       -0.05617631469237       -0.05276189434556
C          161.32034301240105       -0.05821222418440       -0.05221849655569
C          166.46076990591453       -0.06262945703421       -0.05791129034555
C          167.68561886987280       -0.06486335895811       -0.06156615746015
C          181.21345176736423       -0.04892708472018       -0.04277124868697
C          179.98491629527271       -0.06821419768153       -0.04649501450474
C          178.64079719092678       -0.08191693366829       -0.04918152786066
C          177.41643728038221       -0.09252839199344       -0.05228366097296
C          182.55769180506311       -0.03168784575842       -0.03996195881924
C          183.78173016871554       -0.01173485044954       -0.03993677341987
C          104.71457590292448       -0.01379611019570       -0.01088999251304
C          105.34455299431832       -0.96011681249000        0.82037884026505
C          104.70878473411706       -1.90359097299103        1.66880629756610
C          105.68496785024981       -2.62534528628090        2.30039924448967
C          106.94529528325076       -2.14126801667327        1.85488446986903
N          106.68857688173716       -1.13627999840200        0.96112639499169
C          108.20483946638427       -2.59781273638376        2.25369004749418
C          108.21663133870354       -3.71112118496392        3.24854157343466
C          108.20132075774556       -5.03861289158063        2.81039824277991
C          108.16917256379831       -5.34369870154769        1.33648147960211
C          108.21859117873556       -6.06655290817745        3.74539078792539
C          108.24988427611427       -5.79235199620320        5.10919173050325
C          108.29152595965067       -6.91691055499614        6.10825223751993
C          108.26372460616871       -4.46808998312741        5.53346868233185
C          108.24694666624927       -3.42377040041968        4.61596260654702
C          108.26311301465057       -1.99288041640256        5.08374301439808
C          109.43397700396133       -2.11146911358277        1.81440637444501
C          110.70899470991330       -2.63117968179369        2.27543400354271
C          111.66371649638893       -1.92004751377402        1.64000217975033
N          109.63453718438311       -1.10690141779248        0.91657527266452
C          110.96942508280617       -0.97072722914236        0.79225234349215
C          111.63813524182946       -0.04855773590085       -0.03961853945099
C          111.00724236939084        0.88400297353574       -0.88624240845967
C          111.64279653538981        1.81744222388473       -1.74558327271243
C          110.66628757127594        2.52414189468898       -2.39343678812622
C          109.40608855457717        2.04220890184228       -1.94516342967609
N          109.66339365597942        1.05222950649863       -1.03468755804622
C          108.14680603752149        2.49251760337178       -2.35117500070176
C          108.14070280965541        3.58130520959773       -3.37277993805891
C          108.14846793218311        3.25792358720375       -4.73257695352671
C          108.15154738944554        1.81516840670627       -5.16270978426188
C          108.15103050874853        4.27753850443155       -5.67741370491673
C          108.14500098403562        5.61264391424703       -5.28800624035115
C          108.17124824270083        6.70945286871185       -6.31795237374182
C          108.13486803072509        5.92270941940719       -3.93169619161011
C          108.13207237097619        4.91975563707513       -2.96961391151098
C          108.11933337535484        5.26353011016266       -1.50394325280945
C          106.91752102226377        2.02040526909242       -1.89644594213052
C          105.64257157840761        2.54288564479093       -2.35439740235848
C          104.68813898297631        1.85028238354582       -1.69840156774262
C          105.38240429348124        0.90505249504160       -0.84595375898037
N          106.71770058860670        1.03030519495566       -0.98321665330138
H          103.64118008758088       -2.00888372959133        1.77557051090040
H          105.55231654802624       -3.42279353405508        3.01354348995010
H          107.39742498807220       -0.59824807829578        0.47408291095473
H          107.27117529664967       -4.92156514608560        0.88120916059851
H          109.03461752478503       -4.90170752155842        0.83931646182576
H          108.17651317531001       -6.41907368402258        1.16140481687417
H          108.20736623320057       -7.09704130579938        3.40558570030482
H          107.92145041484864       -6.58923860590850        7.07983423176367
H          107.69028680565981       -7.76034676614204        5.76731845365222
H          109.31980798414408       -7.26379895686934        6.23422789281683
H          108.28765818502204       -4.24426906607745        6.59497427580157
H          107.37559185460117       -1.46689414996949        4.72673732829266
H          108.28687096408163       -1.93932185218280        6.17172725277961
H          109.13916767132942       -1.47526797930669        4.68853240449381
H          110.82826721981365       -3.43142928606379        2.98809153302664
H          112.73554948689080       -2.00915329338580        1.71769625173333
H          112.71038949407502        1.92610826466850       -1.84894843807597
H          110.79889296667452        3.31147631415217       -3.11770409050291
H          108.95484228196209        0.51823900343552       -0.54277408487166
H          108.13439389218485        1.73288302593556       -6.24902708820597
H          107.27986198213488        1.29750036826024       -4.75813301190789
H          109.04358632277126        1.30944758029540       -4.78798177096080
H          108.15664194815002        4.02584493902805       -6.73291410338857
H          107.75820866076832        6.36375967079048       -7.26572153595680
H          109.20087276714314        7.03071055129667       -6.49207038929694
H          107.60047005426367        7.57416248121112       -5.97819026288228
H          108.12802348365581        6.96177123131385       -3.61897087265798
H          109.00980802472982        4.86554713638466       -1.01342695205696
H          108.09315585128320        6.34290596248408       -1.35759391159953
H          107.24627762127135        4.82297178794831       -1.01901434086146
H          105.52346335388923        3.33231270126367       -3.07908671804506
H          103.61638741012679        1.94699255887064       -1.76761426906754
C          120.80941568995421       -0.05244251447807       -0.05299275937231
C          121.44104504841198       -0.98015477562478        0.79888179418765
C          120.80584294839480       -1.91482824194084        1.65705828008682
C          121.78259999586912       -2.62409503010643        2.30209046605277
C          123.04241691205297       -2.14110721411786        1.85462043671856
N          122.78496459074486       -1.14805379220221        0.94755893335161
C          124.30239062190539       -2.59088292049761        2.26000706482510
C          124.31345827413031       -3.69625818900799        3.26361476346712
C          124.29885857900592       -5.02698757027158        2.83524726255781
C          124.27363552994373       -5.34307837975318        1.36350461170869
C          124.30987249686765       -6.04796002861753        3.77790234951189
C          124.33420013495211       -5.76369890554641        5.13978982611204
C          124.36625822657213       -6.88102733839565        6.14726982747282
C          124.34937115287484       -4.43635327756783        5.55423783269300
C          124.33886228710892       -3.39881478198998        4.62894594837487
C          124.35553555044473       -1.96454271049396        5.08618172529763
C          125.53087312540983       -2.10608769516460        1.81754799179113
C          126.80660360883419       -2.61995135857758        2.28277529740701
C          127.76019509230207       -1.91127386153082        1.64283742445059
N          125.72978398426142       -1.10733096953431        0.91272380705191
C          127.06440047084119       -0.96871196503926        0.78883068881516
C          127.73174333195350       -0.04777780252195       -0.04556630908878
C          127.10009941031237        0.88043849546173       -0.89668114506909
C          127.73528191570971        1.81727017352203       -1.75245533679172
C          126.75847088802209        2.51835674820778       -2.40618956625612
C          125.49868225952700        2.02834650322031       -1.96619202597097
N          125.75621975138203        1.04041146682539       -1.05360601328919
C          124.23890813005396        2.46754286821767       -2.38350061131880
C          124.23144032638825        3.55868970305059       -3.40260181304159
C          124.24746461026571        3.24031426308961       -4.76347009399796
C          124.26454918137836        1.79921566241426       -5.19876196448093
C          124.24501764719933        4.26335737292849       -5.70462955928983
C          124.22611652494811        5.59698267481827       -5.31053318773028
C          124.24511028892147        6.69766015925529       -6.33650381968342
C          124.20965899817202        5.90205302210535       -3.95317727383007
C          124.21162672059350        4.89564639937923       -2.99472467216892
C          124.19202283192733        5.23425728219472       -1.52793495512850
C          123.01025749200123        1.98357252846434       -1.94056641047947
C          121.73460426479777        2.48918229185689       -2.41477283919245
C          120.78098567181566        1.78968917216919       -1.76478039776549
C          121.47669944836252        0.85919405378395       -0.89756890061570
N          122.81138216805250        0.99642462575232       -1.02308676964906
H          119.73829857586061       -2.02344606190187        1.76091179295393
H          121.65029816832744       -3.41269123209023        3.02505539280108
H          123.49362250896240       -0.61403196547439        0.45584241656855
H          123.37774431003139       -4.92454883350463        0.90078993857928
H          125.14137770372156       -4.90467401761600        0.86715716698418
H          124.28200660351335       -6.41973968863599        1.19653329542861
H          124.29845511317190       -7.08091416114729        3.44568280659636
H          123.99364337112846       -6.54440406515724        7.11481266007516
H          123.76214486622914       -7.72386410542127        5.80992083752788
H          125.39218104930855       -7.23224024872175        6.28015712986447
H          124.36868331269908       -4.20468089856692        6.61414678293980
H          123.46735103643080       -1.44133992763313        4.72672287063846
H          124.38088791972412       -1.90302956371518        6.17370493307268
H          125.23088044688433       -1.44970988867233        4.68584203788678
H          126.92699255524957       -3.41501630324704        3.00103180786382
H          128.83216967160172       -1.99764944230649        1.72165700383395
H          128.80280297345197        1.93248568806383       -1.84920010128397
H          126.89079656729801        3.30641592973126       -3.12972165919647
H          125.04766296546576        0.50286601809892       -0.56559204525316
H          124.25969601060042        1.72087094711197       -6.28549453508548
H          123.39184558553391        1.27444826862123       -4.80565590619872
H          125.15569472279975        1.29789323208605       -4.81612402442997
H          124.25651371499373        4.01554364209501       -6.76099771928730
H          123.83203840615566        6.35333477648661       -7.28476700170220
H          125.27275502959674        7.02474873431666       -6.51140365089865
H          123.67057675598703        7.55820658925983       -5.99254331888853
H          124.19358840435083        6.93987523875948       -3.63670129300424
H          125.08510236834726        4.84303172567919       -1.03669341797174
H          124.15549495179799        6.31283654261610       -1.37801157776077
H          123.32205665446050        4.78387028331675       -1.04652852874737
H          121.61439255648058        3.27291826965478       -3.14541910139746
H          119.70900964413221        1.87426298426116       -1.84560126420125
C          136.90253197570729       -0.04550468946538       -0.05007256622784
C          137.53399629773153       -0.97282146495105        0.80226123477660
C          136.89855440421869       -1.90581406762893        1.66206408337192
C          137.87515398239836       -2.61626747084894        2.30597500423823
C          139.13505979915689       -2.13518709217437        1.85665261578640
N          138.87783667153289       -1.14216773761244        0.94951319475152
C          140.39482411528871       -2.58694495994528        2.26042470172129
C          140.40382966143747       -3.69323425955803        3.26302305535622
C          140.38985080115140       -5.02342883454161        2.83296016710774
C          140.37014327485159       -5.33765693222944        1.36074499611001
C          140.39516591342570       -6.04556775182177        3.77439475768318
C          140.41296829431593       -5.76299436748975        5.13672781895872
C          140.43738751596030       -6.88154285083032        6.14306855833329
C          140.42805723297619       -4.43615923548022        5.55286275673175
C          140.42317285678945       -3.39746337773041        4.62880732192759
C          140.43788673585621       -1.96375238992903        5.08790141417426
C          141.62341522379828       -2.10352101773840        1.81681591860582
C          142.89912096991219       -2.61814503319818        2.28112713190246
C          143.85268357233892       -1.90974177050884        1.64078870014453
N          141.82225214894817       -1.10481899861069        0.91187757254692
C          143.15686563695141       -0.96678909272252        0.78719962236972
C          143.82421928186707       -0.04625012421399       -0.04766527434230
C          143.19279070174770        0.88127391030073       -0.89975346356735
C          143.82818076065720        1.81676708233026       -1.75685390336818
C          142.85152822993146        2.51822376216406       -2.41047148907830
C          141.59165313501407        2.02978363719757       -1.96908103759295
N          141.84893404338365        1.04209215478903       -1.05616890093693
C          140.33191221010625        2.47039322716128       -2.38502298608951
C          140.32325425638408        3.56307227365894       -3.40244401540662
C          140.33738723082476        3.24746458649522       -4.76395475029429
C          140.35704114109561        1.80727314507382       -5.20216259186229
C          140.33011870265395        4.27241223298864       -5.70303490032728
C          140.30824913449052        5.60519569471969       -5.30621209582945
C          140.32029110176336        6.70798810363665       -6.33002166934178
C          140.29491003670412        5.90750546495667       -3.94821010942485
C          140.30170388360918        4.89918081945326       -2.99181659952946
C          140.28485821991228        5.23481243156906       -1.52431381481143
C          139.10329455148948        1.98745369296128       -1.94096168882782
C          137.82759074454870        2.49376040512743       -2.41435334961419
C          136.87401932371441        1.79538278824222       -1.76312250938864
C          137.56982581099982        0.86472669307854       -0.89615931142185
N          138.90445275102232        1.00088913612878       -1.02281770301071
H          135.83099490615564       -2.01285866302754        1.76740136771526
H          137.74265523626320       -3.40443096168505        3.02936806709159
H          139.58660104012390       -0.60946233255365        0.45651203733531
H          139.47790893156093       -4.91521344179823        0.89455080559098
H          141.24171799030660       -4.90190460894678        0.86881736098818
H          140.37526136005599       -6.41413828684683        1.19250369241857
H          140.38373881891016       -7.07809308090722        3.44084729248605