      -----------------------------------------------------------      
     |                   =====================                   |     
     |                           x T B                           |     
     |                   =====================                   |     
     |                         S. Grimme                         |     
     |          Mulliken Center for Theoretical Chemistry        |     
     |                    University of Bonn                     |     
      -----------------------------------------------------------      

   * xtb version 6.5.1 (b24c23e) compiled by 'conda@728c89f4b128' on 2022-07-12

   xtb is free software: you can redistribute it and/or modify it under
   the terms of the GNU Lesser General Public License as published by
   the Free Software Foundation, either version 3 of the License, or
   (at your option) any later version.
   
   xtb is distributed in the hope that it will be useful,
   but WITHOUT ANY WARRANTY; without even the implied warranty of
   MERCHANTABILITY or FITNESS FOR A PARTICULAR PURPOSE.  See the
   GNU Lesser General Public License for more details.
   
   Cite this work as:
   * C. Bannwarth, E. Caldeweyher, S. Ehlert, A. Hansen, P. Pracht,
     J. Seibert, S. Spicher, S. Grimme, WIREs Comput. Mol. Sci., 2020, 11,
     e01493. DOI: 10.1002/wcms.1493
   
   for GFN2-xTB:
   * C. Bannwarth, S. Ehlert and S. Grimme., J. Chem. Theory Comput., 2019,
     15, 1652-1671. DOI: 10.1021/acs.jctc.8b01176
   for GFN1-xTB:
   * S. Grimme, C. Bannwarth, P. Shushkov, J. Chem. Theory Comput., 2017,
     13, 1989-2009. DOI: 10.1021/acs.jctc.7b00118
   for GFN0-xTB:
   * P. Pracht, E. Caldeweyher, S. Ehlert, S. Grimme, ChemRxiv, 2019, preprint.
     DOI: 10.26434/chemrxiv.8326202.v1
   for GFN-FF:
   * S. Spicher and S. Grimme, Angew. Chem. Int. Ed., 2020, 59, 15665-15673.
     DOI: 10.1002/anie.202004239
   
   for ALPB and GBSA implicit solvation:
   * S. Ehlert, M. Stahn, S. Spicher, S. Grimme, J. Chem. Theory Comput.,
     2021, 17, 4250-4261. DOI: 10.1021/acs.jctc.1c00471
   
   for DFT-D4:
   * E. Caldeweyher, C. Bannwarth and S. Grimme, J. Chem. Phys., 2017,
     147, 034112. DOI: 10.1063/1.4993215
   * E. Caldeweyher, S. Ehlert, A. Hansen, H. Neugebauer, S. Spicher,
     C. Bannwarth and S. Grimme, J. Chem. Phys., 2019, 150, 154122.
     DOI: 10.1063/1.5090222
   * E. Caldeweyher, J.-M. Mewes, S. Ehlert and S. Grimme, Phys. Chem. Chem. Phys.
     2020, 22, 8499-8512. DOI: 10.1039/D0CP00502A
   
   for sTDA-xTB:
   * S. Grimme and C. Bannwarth, J. Chem. Phys., 2016, 145, 054103.
     DOI: 10.1063/1.4959605
   
   in the mass-spec context:
   * V. Asgeirsson, C. Bauer and S. Grimme, Chem. Sci., 2017, 8, 4879.
     DOI: 10.1039/c7sc00601b
   * J. Koopman and S. Grimme, ACS Omega 2019, 4, 12, 15120-15133.
     DOI: 10.1021/acsomega.9b02011
   
   for metadynamics refer to:
   * S. Grimme, J. Chem. Theory Comput., 2019, 155, 2847-2862
     DOI: 10.1021/acs.jctc.9b00143
   
   for SPH calculations refer to:
   * S. Spicher and S. Grimme, J. Chem. Theory Comput., 2021, 17, 1701-1714
     DOI: 10.1021/acs.jctc.0c01306
   
   with help from (in alphabetical order)
   P. Atkinson, C. Bannwarth, F. Bohle, G. Brandenburg, E. Caldeweyher
   M. Checinski, S. Dohm, S. Ehlert, S. Ehrlich, I. Gerasimov, C. Hölzer
   A. Katbashev, J. Koopman, C. Lavigne, S. Lehtola, F. März, M. Müller,
   F. Musil, H. Neugebauer, J. Pisarek, C. Plett, P. Pracht, F. Pultar,
   J. Seibert, P. Shushkov, S. Spicher, M. Stahn, M. Steiner, T. Strunk,
   J. Stückrath, T. Rose, and J. Unsleber
   
 * started run on 2022/07/28 at 12:21:56.737     

           -------------------------------------------------
          |                Calculation Setup                |
           -------------------------------------------------

          program call               : xtb xtbopt.xyz --gfn 1 --vipea
          hostname                   : cx3-14-14.cx3.hpc.ic.ac.uk
          coordinate file            : xtbopt.xyz
          omp threads                :                     1

   ID    Z sym.   atoms
    1    6 C      1-5, 7-10, 12-16, 18-23, 25-28, 30-35, 60-64, 66-69, 71-75,
                  77-82, 84-87, 89-94, 119-187, 189-192, 194-198, 200-205,
                  207-210, 212-217, 241-245, 247-250, 252-256, 258-263,
                  265-268, 270-275, 299-303, 305-308, 310-314, 316-321,
                  323-326, 328-333, 357-361, 363-366, 368-372, 374-379,
                  381-384, 386-391, 415-419, 421-424, 426-430, 432-437,
                  439-442, 444-449, 473-477, 479-482, 484-488, 490-495,
                  497-500, 502-507, 531-535, 537-540, 542-546, 548-553,
                  555-558, 560-565
    2    7 N      6, 11, 17, 24, 29, 36, 65, 70, 76, 83, 88, 95, 188, 193,
                  199, 206, 211, 218, 246, 251, 257, 264, 269, 276, 304, 309,
                  315, 322, 327, 334, 362, 367, 373, 380, 385, 392, 420, 425,
                  431, 438, 443, 450, 478, 483, 489, 496, 501, 508, 536, 541,
                  547, 554, 559, 566
    3    1 H      37-59, 96-118, 219-240, 277-298, 335-356, 393-414, 451-472,
                  509-530, 567-588

           -------------------------------------------------
          |                 I P E A - x T B                 |
           -------------------------------------------------

        Reference                      10.1039/c7sc00601b
      * Hamiltonian:
        H0-scaling (s, p, d)           2.150000    2.300000    2.000000
        zeta-weighting                 0.000000
      * Dispersion:
        s8                             2.400000
        a1                             0.630000
        a2                             5.000000
        s9                             0.000000
      * Repulsion:
        kExp                           1.500000
        rExp                           1.000000
      * Coulomb:
        alpha                          1.000000
        third order                    atomic
        anisotropic                    false
      * Halogen bond correction:
        rad-scale                      1.300000
        damping                        0.440000


          ...................................................
          :                      SETUP                      :
          :.................................................:
          :  # basis functions                2340          :
          :  # atomic orbitals                2340          :
          :  # shells                         1564          :
          :  # electrons                      1806          :
          :  # halogen bonds                     0          :
          :  max. iterations                   250          :
          :  Hamiltonian                  GFN1-xTB          :
          :  restarted?                      false          :
          :  GBSA solvation                  false          :
          :  PC potential                    false          :
          :  electronic temp.          300.0000000     K    :
          :  accuracy                    1.0000000          :
          :  -> integral cutoff          0.2500000E+02      :
          :  -> integral neglect         0.1000000E-07      :
          :  -> SCF convergence          0.1000000E-05 Eh   :
          :  -> wf. convergence          0.2000000E-04 e    :
          :  Broyden damping             0.4000000          :
          ...................................................

 iter      E             dE          RMSdq      gap      omega  full diag
   1  -1139.9341194 -0.113993E+04  0.102E+01    0.48       0.0  T
   2  -1141.3617931 -0.142767E+01  0.629E+00    1.12       1.0  T
   3  -1122.6706373  0.186912E+02  0.471E+00    0.15       1.0  T
   4  -1143.9511389 -0.212805E+02  0.106E+00    0.79       1.0  T
   5  -1145.4125137 -0.146137E+01  0.304E-01    0.78       1.0  T
   6  -1145.5164901 -0.103976E+00  0.117E-01    0.84       1.0  T
   7  -1145.5304310 -0.139409E-01  0.452E-02    0.83       1.0  T
   8  -1145.5314917 -0.106071E-02  0.322E-02    0.84       1.0  T
   9  -1145.5320138 -0.522068E-03  0.203E-02    0.84       1.0  T
  10  -1145.5323437 -0.329896E-03  0.713E-03    0.84       1.0  T
  11  -1145.5323759 -0.321909E-04  0.378E-03    0.84       1.1  T
  12  -1145.5323908 -0.148843E-04  0.137E-03    0.84       3.0  T
  13  -1145.5323929 -0.211248E-05  0.532E-04    0.84       7.8  T
  14  -1145.5323932 -0.305354E-06  0.180E-04    0.84      22.8  T
  15  -1145.5323932 -0.328378E-07  0.680E-05    0.84      60.7  T

   *** convergence criteria satisfied after 15 iterations ***

         #    Occupation            Energy/Eh            Energy/eV
      -------------------------------------------------------------
         1        2.0000           -1.0378677             -28.2418
       ...           ...                  ...                  ...
       897        2.0000           -0.3539233              -9.6307
       898        2.0000           -0.3535726              -9.6212
       899        2.0000           -0.3530500              -9.6070
       900        2.0000           -0.3524451              -9.5905
       901        2.0000           -0.3524157              -9.5897
       902        2.0000           -0.3522689              -9.5857
       903        2.0000           -0.3516195              -9.5681 (HOMO)
       904        0.0000           -0.3207059              -8.7269 (LUMO)
       905                         -0.3184523              -8.6655
       906                         -0.3153346              -8.5807
       907                         -0.3117052              -8.4819
       908                         -0.3079423              -8.3795
       ...                                ...                  ...
      2340                        519.3590968           14132.4804
      -------------------------------------------------------------
                  HL-Gap            0.0309137 Eh            0.8412 eV
             Fermi-level           -0.3356528 Eh           -9.1336 eV

 SCC (total)                   0 d,  0 h,  1 min, 34.939 sec
 SCC setup                      ...        0 min,  0.052 sec (  0.055%)
 Dispersion                     ...        0 min,  0.045 sec (  0.047%)
 classical contributions        ...        0 min,  0.009 sec (  0.009%)
 integral evaluation            ...        0 min,  2.563 sec (  2.699%)
 iterations                     ...        1 min, 27.481 sec ( 92.145%)
 molecular gradient             ...        0 min,  3.983 sec (  4.195%)
 printout                       ...        0 min,  0.805 sec (  0.848%)

         :::::::::::::::::::::::::::::::::::::::::::::::::::::
         ::                     SUMMARY                     ::
         :::::::::::::::::::::::::::::::::::::::::::::::::::::
         :: total energy           -1121.478199970874 Eh    ::
         :: gradient norm              0.131415025431 Eh/a0 ::
         :: HOMO-LUMO gap              0.841203859626 eV    ::
         ::.................................................::
         :: SCC energy             -1145.532393226910 Eh    ::
         :: -> electrostatic           0.800683862053 Eh    ::
         :: repulsion energy          24.541785371492 Eh    ::
         :: dispersion energy         -0.487592115455 Eh    ::
         :: halogen bond corr.         0.000000000000 Eh    ::
         :: add. restraining           0.000000000000 Eh    ::
         :: total charge               0.000000000020 e     ::
         :::::::::::::::::::::::::::::::::::::::::::::::::::::

           ------------------------------------------------- 
          |        vertical delta SCC IP calculation        |
           ------------------------------------------------- 
   1  -1145.1705146 -0.114517E+04  0.360E-02    0.84       0.0  T
   2  -1145.1690455  0.146917E-02  0.334E-02    0.86       1.0  T
   3  -1145.1646308  0.441462E-02  0.466E-02    0.83       1.0  T
   4  -1145.1714632 -0.683233E-02  0.185E-02    0.85       1.0  T
   5  -1145.1717196 -0.256382E-03  0.136E-02    0.85       1.0  T
   6  -1145.1716177  0.101854E-03  0.129E-02    0.85       1.0  T
   7  -1145.1719704 -0.352670E-03  0.730E-03    0.85       1.0  T
   8  -1145.1719147  0.556394E-04  0.749E-03    0.85       1.0  T
   9  -1145.1721368 -0.222041E-03  0.328E-03    0.85       1.3  T
  10  -1145.1721706 -0.338258E-04  0.956E-04    0.85       4.3  T
  11  -1145.1721723 -0.170377E-05  0.633E-04    0.85       6.5  T
  12  -1145.1721732 -0.848259E-06  0.321E-04    0.85      12.9  T
  13  -1145.1721734 -0.234865E-06  0.141E-04    0.85      29.2  T
  14  -1145.1721734 -0.357948E-07  0.836E-05    0.85      49.4  T
     SCC iter.                  ...        1 min, 14.741 sec
     gradient                   ...        0 min,  4.275 sec
------------------------------------------------------------------------
empirical IP shift (eV):    4.8455
delta SCC IP (eV):    4.9566
------------------------------------------------------------------------
           ------------------------------------------------- 
          |        vertical delta SCC EA calculation        |
           ------------------------------------------------- 
   1  -1145.8339554 -0.114583E+04  0.538E-02    0.07       0.0  T
   2  -1145.8321412  0.181422E-02  0.551E-02    0.01       1.0  T
   3  -1145.8382511 -0.610992E-02  0.319E-02    0.06       1.0  T
   4  -1145.8397089 -0.145778E-02  0.216E-02    0.03       1.0  T
   5  -1145.8400268 -0.317949E-03  0.141E-02    0.04       1.0  T
   6  -1145.8400981 -0.712453E-04  0.922E-03    0.03       1.0  T
   7  -1145.8402170 -0.118958E-03  0.398E-03    0.04       1.0  T
   8  -1145.8402351 -0.180655E-04  0.152E-03    0.04       2.7  T
   9  -1145.8402311  0.393808E-05  0.129E-03    0.04       3.2  T
  10  -1145.8402276  0.353560E-05  0.130E-03    0.04       3.2  T
  11  -1145.8402384 -0.107848E-04  0.313E-04    0.04      13.2  T
  12  -1145.8402388 -0.408599E-06  0.131E-04    0.04      31.4  T
  13  -1145.8402388 -0.154114E-07  0.645E-05    0.04      64.0  T
     SCC iter.                  ...        1 min,  8.834 sec
     gradient                   ...        0 min,  4.063 sec
------------------------------------------------------------------------
empirical EA shift (eV):    4.8455
delta SCC EA (eV):    3.5314
------------------------------------------------------------------------
           -------------------------------------------------
          |                Property Printout                |
           -------------------------------------------------

    * Orbital Energies and Occupations

         #    Occupation            Energy/Eh            Energy/eV
      -------------------------------------------------------------
         1        2.0000           -1.0208792             -27.7795
       ...           ...                  ...                  ...
       892        2.0000           -0.3333347              -9.0705
       893        2.0000           -0.3333080              -9.0698
       894        2.0000           -0.3330969              -9.0640
       895        2.0000           -0.3330755              -9.0634
       896        2.0000           -0.3328625              -9.0576
       897        2.0000           -0.3328092              -9.0562
       898        2.0000           -0.3327956              -9.0558
       899        2.0000           -0.3316069              -9.0235
       900        2.0000           -0.3312738              -9.0144
       901        2.0000           -0.3303741              -8.9899
       902        2.0000           -0.3285900              -8.9414
       903        2.0000           -0.3267806              -8.8922
       904        0.6390           -0.2943870              -8.0107 (HOMO)
       905        0.3016           -0.2930467              -7.9742 (LUMO)
       906        0.0303           -0.2905531              -7.9064
       907        0.0169           -0.2899840              -7.8909
       908        0.0117           -0.2896303              -7.8812
       909        0.0004           -0.2865157              -7.7965
       910        0.0000           -0.2825413              -7.6883
       911        0.0000           -0.2823230              -7.6824
       912        0.0000           -0.2821806              -7.6785
       913        0.0000           -0.2785676              -7.5802
       914                         -0.2755894              -7.4992
       915                         -0.2751876              -7.4882
       ...                                ...                  ...
      2340                        519.3757907           14132.9346
      -------------------------------------------------------------
                  HL-Gap            0.0013404 Eh            0.0365 eV
             Fermi-level           -0.3022297 Eh           -8.2241 eV

  Mulliken/CM5 charges         n(s)   n(p)   n(d)
     1C    -0.02101 -0.06184   1.089  2.932  0.000
     2C     0.06229  0.12269   1.105  2.833  0.000
     3C    -0.03443 -0.07972   1.081  2.954  0.000
     4C    -0.03138 -0.07631   1.076  2.955  0.000
     5C     0.06436  0.12824   1.103  2.833  0.000
     6N    -0.15869 -0.51153   1.312  3.847  0.000
     7C     0.01123  0.01705   1.096  2.893  0.000
     8C     0.00336 -0.00344   1.077  2.919  0.000
     9C    -0.03777 -0.08981   1.069  2.968  0.000
    10C     0.03035 -0.01481   1.102  2.868  0.000
    11N    -0.23787 -0.59768   1.304  3.934  0.000
    12C     0.03749  0.04933   1.097  2.865  0.000
    13C    -0.05960 -0.10813   1.041  3.019  0.000
    14C     0.06084  0.12891   1.120  2.819  0.000
    15C    -0.03570 -0.08162   1.087  2.949  0.000
    16C    -0.03763 -0.08306   1.091  2.947  0.000
    17N    -0.28458 -0.47125   1.293  3.992  0.000
    18C     0.06495  0.13576   1.129  2.806  0.000
    19C     0.01849  0.02568   1.084  2.897  0.000
    20C     0.06725  0.13220   1.109  2.824  0.000
    21C    -0.03236 -0.07678   1.080  2.953  0.000
    22C    -0.03035 -0.07525   1.077  2.953  0.000
    23C     0.06346  0.12676   1.102  2.835  0.000
    24N    -0.15647 -0.50862   1.314  3.843  0.000
    25C     0.01125  0.01713   1.097  2.892  0.000
    26C     0.00282 -0.00395   1.077  2.920  0.000
    27C    -0.03603 -0.08815   1.072  2.964  0.000
    28C     0.03033 -0.01491   1.102  2.867  0.000
    29N    -0.23840 -0.59798   1.305  3.934  0.000
    30C     0.03704  0.04878   1.097  2.866  0.000
    31C    -0.06017 -0.10866   1.039  3.021  0.000
    32C     0.06163  0.13093   1.122  2.817  0.000
    33C    -0.03678 -0.08275   1.086  2.951  0.000
    34C    -0.03990 -0.08625   1.091  2.949  0.000
    35C     0.05916  0.12491   1.125  2.816  0.000
    36N    -0.28660 -0.47357   1.293  3.993  0.000
    37H     0.02892  0.08794   0.971  0.000  0.000
    38H     0.03957  0.09623   0.960  0.000  0.000
    39H     0.03019  0.08881   0.970  0.000  0.000
    40H     0.16382  0.37216   0.836  0.000  0.000
    41H     0.02295  0.08083   0.977  0.000  0.000
    42H     0.02802  0.09005   0.972  0.000  0.000
    43H     0.02144  0.08504   0.979  0.000  0.000
    44H     0.17017  0.36307   0.830  0.000  0.000
    45H     0.04334  0.10884   0.957  0.000  0.000
    46H     0.01496  0.07331   0.985  0.000  0.000
    47H     0.02081  0.07987   0.979  0.000  0.000
    48H     0.02463  0.08271   0.975  0.000  0.000
    49H     0.03491  0.09302   0.965  0.000  0.000
    50H     0.03043  0.08953   0.970  0.000  0.000
    51H     0.16256  0.37089   0.837  0.000  0.000
    52H     0.02280  0.08072   0.977  0.000  0.000
    53H     0.02878  0.09083   0.971  0.000  0.000
    54H     0.02135  0.08498   0.979  0.000  0.000
    55H     0.16993  0.36277   0.830  0.000  0.000
    56H     0.04319  0.10867   0.957  0.000  0.000
    57H     0.01552  0.07388   0.984  0.000  0.000
    58H     0.02044  0.07900   0.980  0.000  0.000
    59H     0.02928  0.08569   0.971  0.000  0.000
    60C    -0.02096 -0.06179   1.089  2.932  0.000
    61C     0.06230  0.12270   1.105  2.833  0.000
    62C    -0.03440 -0.07969   1.081  2.954  0.000
    63C    -0.03135 -0.07629   1.076  2.955  0.000
    64C     0.06439  0.12827   1.103  2.833  0.000
    65N    -0.15867 -0.51151   1.312  3.847  0.000
    66C     0.01124  0.01706   1.096  2.893  0.000
    67C     0.00335 -0.00344   1.077  2.919  0.000
    68C    -0.03778 -0.08982   1.069  2.968  0.000
    69C     0.03034 -0.01482   1.102  2.868  0.000
    70N    -0.23788 -0.59768   1.304  3.934  0.000
    71C     0.03750  0.04934   1.097  2.865  0.000
    72C    -0.05957 -0.10809   1.041  3.019  0.000
    73C     0.06086  0.12894   1.121  2.819  0.000
    74C    -0.03567 -0.08160   1.087  2.949  0.000
    75C    -0.03760 -0.08303   1.091  2.947  0.000
    76N    -0.28455 -0.47123   1.293  3.992  0.000
    77C     0.06497  0.13578   1.129  2.806  0.000
    78C     0.01853  0.02573   1.084  2.897  0.000
    79C     0.06725  0.13221   1.109  2.824  0.000
    80C    -0.03233 -0.07675   1.080  2.953  0.000
    81C    -0.03032 -0.07522   1.077  2.953  0.000
    82C     0.06349  0.12679   1.102  2.835  0.000
    83N    -0.15646 -0.50861   1.314  3.843  0.000
    84C     0.01126  0.01714   1.097  2.892  0.000
    85C     0.00282 -0.00396   1.077  2.920  0.000
    86C    -0.03601 -0.08813   1.072  2.964  0.000
    87C     0.03034 -0.01490   1.102  2.867  0.000
    88N    -0.23838 -0.59797   1.305  3.934  0.000
    89C     0.03704  0.04879   1.097  2.866  0.000
    90C    -0.06020 -0.10869   1.039  3.021  0.000
    91C     0.06165  0.13095   1.122  2.817  0.000
    92C    -0.03676 -0.08274   1.086  2.951  0.000
    93C    -0.03988 -0.08623   1.091  2.949  0.000
    94C     0.05918  0.12492   1.125  2.816  0.000
    95N    -0.28657 -0.47354   1.293  3.993  0.000
    96H     0.02896  0.08798   0.971  0.000  0.000
    97H     0.03961  0.09627   0.960  0.000  0.000
    98H     0.03023  0.08885   0.970  0.000  0.000
    99H     0.16383  0.37218   0.836  0.000  0.000
   100H     0.02294  0.08081   0.977  0.000  0.000
   101H     0.02804  0.09007   0.972  0.000  0.000
   102H     0.02141  0.08502   0.979  0.000  0.000
   103H     0.17017  0.36306   0.830  0.000  0.000
   104H     0.04339  0.10890   0.957  0.000  0.000
   105H     0.01503  0.07337   0.985  0.000  0.000
   106H     0.02084  0.07990   0.979  0.000  0.000
   107H     0.02467  0.08274   0.975  0.000  0.000
   108H     0.03494  0.09305   0.965  0.000  0.000
   109H     0.03047  0.08956   0.970  0.000  0.000
   110H     0.16258  0.37090   0.837  0.000  0.000
   111H     0.02284  0.08077   0.977  0.000  0.000
   112H     0.02880  0.09085   0.971  0.000  0.000
   113H     0.02139  0.08502   0.979  0.000  0.000
   114H     0.16996  0.36280   0.830  0.000  0.000
   115H     0.04318  0.10866   0.957  0.000  0.000
   116H     0.01549  0.07384   0.985  0.000  0.000
   117H     0.02046  0.07903   0.980  0.000  0.000
   118H     0.02932  0.08573   0.971  0.000  0.000
   119C    -0.01509 -0.01674   1.093  2.923  0.000
   120C    -0.01798 -0.01875   1.061  2.957  0.000
   121C    -0.01437 -0.01447   1.075  2.939  0.000
   122C    -0.01342 -0.01343   1.077  2.936  0.000
   123C    -0.01634 -0.01635   1.075  2.942  0.000
   124C    -0.01152 -0.01161   1.078  2.933  0.000
   125C    -0.02092 -0.02167   1.059  2.962  0.000
   126C    -0.01258 -0.01417   1.096  2.916  0.000
   127C    -0.01576 -0.01735   1.093  2.923  0.000
   128C    -0.01996 -0.02070   1.060  2.960  0.000
   129C    -0.01506 -0.01515   1.076  2.939  0.000
   130C    -0.01578 -0.01579   1.076  2.940  0.000
   131C    -0.01683 -0.01684   1.075  2.942  0.000
   132C    -0.01393 -0.01402   1.077  2.937  0.000
   133C    -0.02098 -0.02173   1.059  2.962  0.000
   134C    -0.01461 -0.01620   1.094  2.920  0.000
   135C    -0.01508 -0.01667   1.094  2.921  0.000
   136C    -0.02057 -0.02131   1.060  2.961  0.000
   137C    -0.01439 -0.01449   1.076  2.938  0.000
   138C    -0.01631 -0.01632   1.076  2.941  0.000
   139C    -0.01622 -0.01623   1.076  2.940  0.000
   140C    -0.01441 -0.01451   1.076  2.938  0.000
   141C    -0.02041 -0.02115   1.060  2.961  0.000
   142C    -0.01501 -0.01661   1.094  2.921  0.000
   143C    -0.01480 -0.01640   1.094  2.921  0.000
   144C    -0.02036 -0.02111   1.060  2.961  0.000
   145C    -0.01412 -0.01421   1.077  2.938  0.000
   146C    -0.01609 -0.01610   1.076  2.940  0.000
   147C    -0.01597 -0.01598   1.076  2.940  0.000
   148C    -0.01420 -0.01430   1.076  2.938  0.000
   149C    -0.02022 -0.02097   1.060  2.961  0.000
   150C    -0.01486 -0.01646   1.094  2.921  0.000
   151C    -0.01486 -0.01646   1.094  2.921  0.000
   152C    -0.02022 -0.02097   1.060  2.960  0.000
   153C    -0.01421 -0.01430   1.076  2.938  0.000
   154C    -0.01597 -0.01598   1.076  2.940  0.000
   155C    -0.01609 -0.01610   1.076  2.940  0.000
   156C    -0.01411 -0.01421   1.077  2.938  0.000
   157C    -0.02037 -0.02112   1.060  2.961  0.000
   158C    -0.01481 -0.01640   1.094  2.921  0.000
   159C    -0.01502 -0.01662   1.094  2.921  0.000
   160C    -0.02041 -0.02116   1.060  2.961  0.000
   161C    -0.01441 -0.01451   1.076  2.938  0.000
   162C    -0.01622 -0.01623   1.076  2.940  0.000
   163C    -0.01632 -0.01633   1.076  2.941  0.000
   164C    -0.01440 -0.01449   1.076  2.938  0.000
   165C    -0.02057 -0.02132   1.060  2.961  0.000
   166C    -0.01508 -0.01668   1.094  2.922  0.000
   167C    -0.01460 -0.01619   1.094  2.920  0.000
   168C    -0.02099 -0.02174   1.059  2.962  0.000
   169C    -0.01392 -0.01401   1.077  2.937  0.000
   170C    -0.01685 -0.01686   1.075  2.942  0.000
   171C    -0.01576 -0.01577   1.076  2.940  0.000
   172C    -0.01507 -0.01517   1.076  2.939  0.000
   173C    -0.01994 -0.02068   1.060  2.960  0.000
   174C    -0.01578 -0.01737   1.093  2.923  0.000
   175C    -0.01252 -0.01412   1.096  2.916  0.000
   176C    -0.02092 -0.02166   1.059  2.962  0.000
   177C    -0.01146 -0.01155   1.078  2.933  0.000
   178C    -0.01632 -0.01633   1.075  2.942  0.000
   179C    -0.01336 -0.01337   1.077  2.936  0.000
   180C    -0.01434 -0.01444   1.075  2.939  0.000
   181C    -0.01793 -0.01870   1.061  2.957  0.000
   182C    -0.01507 -0.01671   1.093  2.923  0.000
   183C     0.01456  0.02180   1.081  2.904  0.000
   184C     0.06650  0.13145   1.109  2.825  0.000
   185C    -0.03533 -0.07974   1.078  2.957  0.000
   186C    -0.03219 -0.07704   1.078  2.955  0.000
   187C     0.06151  0.12488   1.099  2.840  0.000
   188N    -0.15651 -0.50885   1.313  3.843  0.000
   189C     0.01382  0.01954   1.098  2.888  0.000
   190C     0.00486 -0.00204   1.077  2.918  0.000
   191C    -0.03704 -0.08908   1.067  2.970  0.000
   192C     0.03062 -0.01454   1.102  2.867  0.000
   193N    -0.23883 -0.59857   1.305  3.934  0.000
   194C     0.03735  0.04925   1.098  2.865  0.000
   195C    -0.05914 -0.10758   1.040  3.019  0.000
   196C     0.05898  0.12692   1.117  2.824  0.000
   197C    -0.03687 -0.08285   1.086  2.951  0.000
   198C    -0.03919 -0.08462   1.090  2.950  0.000
   199N    -0.28428 -0.47053   1.293  3.992  0.000
   200C     0.06422  0.13515   1.129  2.807  0.000
   201C     0.01664  0.02388   1.083  2.900  0.000
   202C     0.06660  0.13160   1.109  2.825  0.000
   203C    -0.03461 -0.07902   1.078  2.956  0.000
   204C    -0.03223 -0.07709   1.077  2.955  0.000
   205C     0.06175  0.12509   1.099  2.839  0.000
   206N    -0.15595 -0.50832   1.314  3.842  0.000
   207C     0.01347  0.01919   1.097  2.889  0.000
   208C     0.00477 -0.00212   1.077  2.918  0.000
   209C    -0.03695 -0.08900   1.067  2.970  0.000
   210C     0.03064 -0.01452   1.102  2.867  0.000
   211N    -0.23871 -0.59845   1.305  3.934  0.000
   212C     0.03726  0.04916   1.098  2.865  0.000
   213C    -0.05923 -0.10768   1.040  3.019  0.000
   214C     0.05916  0.12719   1.117  2.824  0.000
   215C    -0.03676 -0.08275   1.086  2.951  0.000
   216C    -0.03959 -0.08503   1.089  2.950  0.000
   217C     0.06407  0.13487   1.129  2.807  0.000
   218N    -0.28510 -0.47131   1.292  3.993  0.000
   219H     0.03248  0.09055   0.968  0.000  0.000
   220H     0.02814  0.08695   0.972  0.000  0.000
   221H     0.16249  0.37046   0.838  0.000  0.000
   222H     0.02418  0.08196   0.976  0.000  0.000
   223H     0.02791  0.08992   0.972  0.000  0.000
   224H     0.02163  0.08524   0.978  0.000  0.000
   225H     0.16949  0.36234   0.831  0.000  0.000
   226H     0.04248  0.10800   0.958  0.000  0.000
   227H     0.01525  0.07371   0.985  0.000  0.000
   228H     0.01889  0.07771   0.981  0.000  0.000
   229H     0.02314  0.08116   0.977  0.000  0.000
   230H     0.03346  0.09154   0.967  0.000  0.000
   231H     0.02843  0.08725   0.972  0.000  0.000
   232H     0.16241  0.37039   0.838  0.000  0.000
   233H     0.02440  0.08219   0.976  0.000  0.000
   234H     0.02765  0.08965   0.972  0.000  0.000
   235H     0.02207  0.08569   0.978  0.000  0.000
   236H     0.16946  0.36231   0.831  0.000  0.000
   237H     0.04224  0.10777   0.958  0.000  0.000
   238H     0.01495  0.07341   0.985  0.000  0.000
   239H     0.01869  0.07751   0.981  0.000  0.000
   240H     0.02239  0.08042   0.978  0.000  0.000
   241C     0.01530  0.02253   1.082  2.903  0.000
   242C     0.06645  0.13146   1.109  2.825  0.000
   243C    -0.03531 -0.07972   1.078  2.957  0.000
   244C    -0.03244 -0.07730   1.077  2.955  0.000
   245C     0.06127  0.12462   1.098  2.840  0.000
   246N    -0.15621 -0.50857   1.314  3.843  0.000
   247C     0.01381  0.01953   1.098  2.888  0.000
   248C     0.00491 -0.00199   1.077  2.918  0.000
   249C    -0.03697 -0.08902   1.067  2.970  0.000
   250C     0.03065 -0.01451   1.102  2.867  0.000
   251N    -0.23887 -0.59862   1.305  3.934  0.000
   252C     0.03728  0.04918   1.098  2.865  0.000
   253C    -0.05909 -0.10754   1.040  3.019  0.000
   254C     0.05874  0.12666   1.117  2.824  0.000
   255C    -0.03695 -0.08294   1.086  2.951  0.000
   256C    -0.03947 -0.08491   1.089  2.950  0.000
   257N    -0.28462 -0.47087   1.292  3.992  0.000
   258C     0.06414  0.13508   1.129  2.807  0.000
   259C     0.01576  0.02300   1.083  2.902  0.000
   260C     0.06653  0.13154   1.109  2.825  0.000
   261C    -0.03505 -0.07946   1.078  2.957  0.000
   262C    -0.03235 -0.07721   1.077  2.955  0.000
   263C     0.06137  0.12471   1.099  2.840  0.000
   264N    -0.15614 -0.50851   1.314  3.843  0.000
   265C     0.01377  0.01949   1.098  2.888  0.000
   266C     0.00488 -0.00201   1.077  2.918  0.000
   267C    -0.03695 -0.08899   1.067  2.970  0.000
   268C     0.03065 -0.01451   1.102  2.867  0.000
   269N    -0.23883 -0.59858   1.305  3.934  0.000
   270C     0.03723  0.04913   1.098  2.865  0.000
   271C    -0.05910 -0.10755   1.040  3.019  0.000
   272C     0.05869  0.12662   1.117  2.825  0.000
   273C    -0.03702 -0.08300   1.086  2.951  0.000
   274C    -0.03968 -0.08512   1.089  2.950  0.000
   275C     0.06404  0.13495   1.129  2.807  0.000
   276N    -0.28476 -0.47098   1.292  3.992  0.000
   277H     0.03259  0.09068   0.967  0.000  0.000
   278H     0.02790  0.08671   0.972  0.000  0.000
   279H     0.16234  0.37032   0.838  0.000  0.000
   280H     0.02420  0.08198   0.976  0.000  0.000
   281H     0.02767  0.08968   0.972  0.000  0.000
   282H     0.02162  0.08524   0.978  0.000  0.000
   283H     0.16929  0.36214   0.831  0.000  0.000
   284H     0.04223  0.10775   0.958  0.000  0.000
   285H     0.01510  0.07356   0.985  0.000  0.000
   286H     0.01856  0.07738   0.981  0.000  0.000
   287H     0.02266  0.08069   0.977  0.000  0.000
   288H     0.03294  0.09102   0.967  0.000  0.000
   289H     0.02807  0.08689   0.972  0.000  0.000
   290H     0.16233  0.37031   0.838  0.000  0.000
   291H     0.02426  0.08205   0.976  0.000  0.000
   292H     0.02755  0.08956   0.972  0.000  0.000
   293H     0.02181  0.08543   0.978  0.000  0.000
   294H     0.16926  0.36211   0.831  0.000  0.000
   295H     0.04214  0.10767   0.958  0.000  0.000
   296H     0.01502  0.07348   0.985  0.000  0.000
   297H     0.01840  0.07721   0.982  0.000  0.000
   298H     0.02232  0.08034   0.978  0.000  0.000
   299C     0.01600  0.02324   1.083  2.901  0.000
   300C     0.06656  0.13157   1.109  2.825  0.000
   301C    -0.03490 -0.07932   1.078  2.957  0.000
   302C    -0.03225 -0.07711   1.077  2.955  0.000
   303C     0.06155  0.12490   1.099  2.840  0.000
   304N    -0.15607 -0.50845   1.314  3.842  0.000
   305C     0.01383  0.01956   1.098  2.888  0.000
   306C     0.00488 -0.00201   1.077  2.918  0.000
   307C    -0.03693 -0.08898   1.067  2.970  0.000
   308C     0.03065 -0.01450   1.102  2.867  0.000
   309N    -0.23881 -0.59856   1.305  3.934  0.000
   310C     0.03731  0.04921   1.098  2.865  0.000
   311C    -0.05913 -0.10757   1.040  3.019  0.000
   312C     0.05895  0.12688   1.117  2.824  0.000
   313C    -0.03683 -0.08282   1.086  2.951  0.000
   314C    -0.03935 -0.08478   1.089  2.950  0.000
   315N    -0.28453 -0.47080   1.292  3.992  0.000
   316C     0.06421  0.13514   1.129  2.807  0.000
   317C     0.01593  0.02317   1.083  2.901  0.000
   318C     0.06660  0.13162   1.109  2.825  0.000
   319C    -0.03489 -0.07930   1.078  2.957  0.000
   320C    -0.03220 -0.07706   1.077  2.955  0.000
   321C     0.06155  0.12490   1.099  2.840  0.000
   322N    -0.15608 -0.50846   1.314  3.843  0.000
   323C     0.01387  0.01959   1.098  2.888  0.000
   324C     0.00488 -0.00201   1.077  2.918  0.000
   325C    -0.03692 -0.08897   1.067  2.970  0.000
   326C     0.03066 -0.01450   1.102  2.867  0.000
   327N    -0.23878 -0.59853   1.305  3.934  0.000
   328C     0.03732  0.04922   1.098  2.865  0.000
   329C    -0.05912 -0.10757   1.040  3.019  0.000
   330C     0.05891  0.12683   1.117  2.824  0.000
   331C    -0.03687 -0.08286   1.086  2.951  0.000
   332C    -0.03938 -0.08482   1.089  2.950  0.000
   333C     0.06417  0.13510   1.129  2.807  0.000
   334N    -0.28450 -0.47074   1.293  3.992  0.000
   335H     0.03302  0.09110   0.967  0.000  0.000
   336H     0.02819  0.08700   0.972  0.000  0.000
   337H     0.16244  0.37043   0.838  0.000  0.000
   338H     0.02431  0.08209   0.976  0.000  0.000
   339H     0.02772  0.08973   0.972  0.000  0.000
   340H     0.02179  0.08541   0.978  0.000  0.000
   341H     0.16936  0.36221   0.831  0.000  0.000
   342H     0.04230  0.10783   0.958  0.000  0.000
   343H     0.01513  0.07359   0.985  0.000  0.000
   344H     0.01871  0.07752   0.981  0.000  0.000
   345H     0.02277  0.08080   0.977  0.000  0.000
   346H     0.03307  0.09115   0.967  0.000  0.000
   347H     0.02824  0.08705   0.972  0.000  0.000
   348H     0.16245  0.37044   0.838  0.000  0.000
   349H     0.02432  0.08211   0.976  0.000  0.000
   350H     0.02769  0.08970   0.972  0.000  0.000
   351H     0.02184  0.08546   0.978  0.000  0.000
   352H     0.16938  0.36223   0.831  0.000  0.000
   353H     0.04230  0.10782   0.958  0.000  0.000
   354H     0.01513  0.07359   0.985  0.000  0.000
   355H     0.01866  0.07747   0.981  0.000  0.000
   356H     0.02272  0.08075   0.977  0.000  0.000
   357C     0.01613  0.02336   1.083  2.901  0.000
   358C     0.06663  0.13165   1.109  2.825  0.000
   359C    -0.03478 -0.07920   1.078  2.957  0.000
   360C    -0.03215 -0.07701   1.077  2.955  0.000
   361C     0.06165  0.12500   1.099  2.840  0.000
   362N    -0.15604 -0.50842   1.314  3.842  0.000
   363C     0.01389  0.01962   1.098  2.888  0.000
   364C     0.00487 -0.00202   1.077  2.918  0.000
   365C    -0.03691 -0.08896   1.067  2.970  0.000
   366C     0.03065 -0.01451   1.102  2.867  0.000
   367N    -0.23878 -0.59852   1.305  3.934  0.000
   368C     0.03732  0.04922   1.098  2.865  0.000
   369C    -0.05914 -0.10757   1.040  3.019  0.000
   370C     0.05903  0.12696   1.117  2.824  0.000
   371C    -0.03679 -0.08278   1.086  2.951  0.000
   372C    -0.03928 -0.08472   1.089  2.950  0.000
   373N    -0.28443 -0.47070   1.292  3.992  0.000
   374C     0.06423  0.13517   1.129  2.807  0.000
   375C     0.01613  0.02337   1.083  2.901  0.000
   376C     0.06662  0.13164   1.109  2.825  0.000
   377C    -0.03479 -0.07920   1.078  2.957  0.000
   378C    -0.03215 -0.07700   1.077  2.955  0.000
   379C     0.06165  0.12500   1.099  2.840  0.000
   380N    -0.15603 -0.50841   1.314  3.842  0.000
   381C     0.01390  0.01962   1.098  2.888  0.000
   382C     0.00487 -0.00202   1.077  2.918  0.000
   383C    -0.03692 -0.08896   1.067  2.970  0.000
   384C     0.03066 -0.01450   1.102  2.867  0.000
   385N    -0.23875 -0.59851   1.305  3.934  0.000
   386C     0.03735  0.04925   1.098  2.865  0.000
   387C    -0.05915 -0.10759   1.040  3.019  0.000
   388C     0.05902  0.12694   1.117  2.824  0.000
   389C    -0.03679 -0.08278   1.086  2.951  0.000
   390C    -0.03928 -0.08472   1.089  2.950  0.000
   391C     0.06424  0.13518   1.129  2.807  0.000
   392N    -0.28444 -0.47069   1.292  3.992  0.000
   393H     0.03317  0.09125   0.967  0.000  0.000
   394H     0.02833  0.08714   0.972  0.000  0.000
   395H     0.16250  0.37049   0.838  0.000  0.000
   396H     0.02436  0.08215   0.976  0.000  0.000
   397H     0.02776  0.08977   0.972  0.000  0.000
   398H     0.02187  0.08549   0.978  0.000  0.000
   399H     0.16940  0.36225   0.831  0.000  0.000
   400H     0.04236  0.10788   0.958  0.000  0.000
   401H     0.01516  0.07363   0.985  0.000  0.000
   402H     0.01879  0.07760   0.981  0.000  0.000
   403H     0.02286  0.08089   0.977  0.000  0.000
   404H     0.03316  0.09124   0.967  0.000  0.000
   405H     0.02832  0.08713   0.972  0.000  0.000
   406H     0.16250  0.37049   0.837  0.000  0.000
   407H     0.02436  0.08215   0.976  0.000  0.000
   408H     0.02775  0.08976   0.972  0.000  0.000
   409H     0.02187  0.08549   0.978  0.000  0.000
   410H     0.16944  0.36229   0.831  0.000  0.000
   411H     0.04237  0.10789   0.958  0.000  0.000
   412H     0.01517  0.07363   0.985  0.000  0.000
   413H     0.01879  0.07760   0.981  0.000  0.000
   414H     0.02286  0.08089   0.977  0.000  0.000
   415C     0.01592  0.02316   1.083  2.901  0.000
   416C     0.06661  0.13162   1.109  2.825  0.000
   417C    -0.03489 -0.07930   1.078  2.957  0.000
   418C    -0.03220 -0.07706   1.077  2.955  0.000
   419C     0.06155  0.12490   1.099  2.840  0.000
   420N    -0.15609 -0.50847   1.314  3.843  0.000
   421C     0.01387  0.01959   1.098  2.888  0.000
   422C     0.00488 -0.00201   1.077  2.918  0.000
   423C    -0.03693 -0.08898   1.067  2.970  0.000
   424C     0.03065 -0.01451   1.102  2.867  0.000
   425N    -0.23879 -0.59854   1.305  3.934  0.000
   426C     0.03730  0.04920   1.098  2.865  0.000
   427C    -0.05911 -0.10755   1.040  3.019  0.000
   428C     0.05891  0.12684   1.117  2.824  0.000
   429C    -0.03688 -0.08286   1.086  2.951  0.000
   430C    -0.03939 -0.08482   1.089  2.950  0.000
   431N    -0.28450 -0.47075   1.292  3.992  0.000
   432C     0.06416  0.13509   1.129  2.807  0.000
   433C     0.01600  0.02324   1.083  2.901  0.000
   434C     0.06656  0.13157   1.109  2.825  0.000
   435C    -0.03491 -0.07932   1.078  2.957  0.000
   436C    -0.03226 -0.07711   1.077  2.955  0.000
   437C     0.06155  0.12490   1.099  2.840  0.000
   438N    -0.15607 -0.50844   1.314  3.842  0.000
   439C     0.01384  0.01956   1.098  2.888  0.000
   440C     0.00488 -0.00201   1.077  2.918  0.000
   441C    -0.03694 -0.08898   1.067  2.970  0.000
   442C     0.03066 -0.01450   1.102  2.867  0.000
   443N    -0.23880 -0.59855   1.305  3.934  0.000
   444C     0.03732  0.04922   1.098  2.865  0.000
   445C    -0.05913 -0.10757   1.040  3.019  0.000
   446C     0.05894  0.12687   1.117  2.824  0.000
   447C    -0.03683 -0.08282   1.086  2.951  0.000
   448C    -0.03935 -0.08479   1.089  2.950  0.000
   449C     0.06421  0.13515   1.129  2.807  0.000
   450N    -0.28454 -0.47079   1.292  3.992  0.000
   451H     0.03306  0.09115   0.967  0.000  0.000
   452H     0.02824  0.08705   0.972  0.000  0.000
   453H     0.16245  0.37043   0.838  0.000  0.000
   454H     0.02432  0.08211   0.976  0.000  0.000
   455H     0.02769  0.08970   0.972  0.000  0.000
   456H     0.02183  0.08546   0.978  0.000  0.000
   457H     0.16935  0.36219   0.831  0.000  0.000
   458H     0.04229  0.10781   0.958  0.000  0.000
   459H     0.01513  0.07359   0.985  0.000  0.000
   460H     0.01866  0.07747   0.981  0.000  0.000
   461H     0.02272  0.08074   0.977  0.000  0.000
   462H     0.03301  0.09109   0.967  0.000  0.000
   463H     0.02819  0.08700   0.972  0.000  0.000
   464H     0.16245  0.37043   0.838  0.000  0.000
   465H     0.02431  0.08209   0.976  0.000  0.000
   466H     0.02771  0.08972   0.972  0.000  0.000
   467H     0.02179  0.08541   0.978  0.000  0.000
   468H     0.16937  0.36222   0.831  0.000  0.000
   469H     0.04231  0.10783   0.958  0.000  0.000
   470H     0.01514  0.07360   0.985  0.000  0.000
   471H     0.01871  0.07752   0.981  0.000  0.000
   472H     0.02278  0.08080   0.977  0.000  0.000
   473C     0.01575  0.02299   1.083  2.902  0.000
   474C     0.06653  0.13154   1.109  2.825  0.000
   475C    -0.03505 -0.07947   1.078  2.957  0.000
   476C    -0.03235 -0.07721   1.077  2.955  0.000
   477C     0.06136  0.12471   1.099  2.840  0.000
   478N    -0.15614 -0.50851   1.314  3.843  0.000
   479C     0.01377  0.01949   1.098  2.888  0.000
   480C     0.00488 -0.00201   1.077  2.918  0.000
   481C    -0.03695 -0.08900   1.067  2.970  0.000
   482C     0.03064 -0.01451   1.102  2.867  0.000
   483N    -0.23883 -0.59857   1.305  3.934  0.000
   484C     0.03723  0.04913   1.098  2.865  0.000
   485C    -0.05909 -0.10754   1.040  3.019  0.000
   486C     0.05868  0.12661   1.117  2.825  0.000
   487C    -0.03702 -0.08301   1.086  2.951  0.000
   488C    -0.03969 -0.08512   1.089  2.950  0.000
   489N    -0.28476 -0.47098   1.292  3.992  0.000
   490C     0.06405  0.13496   1.129  2.807  0.000
   491C     0.01528  0.02252   1.082  2.903  0.000
   492C     0.06644  0.13145   1.109  2.825  0.000
   493C    -0.03532 -0.07973   1.078  2.957  0.000
   494C    -0.03245 -0.07730   1.077  2.955  0.000
   495C     0.06126  0.12461   1.098  2.840  0.000
   496N    -0.15622 -0.50858   1.314  3.843  0.000
   497C     0.01380  0.01953   1.098  2.888  0.000
   498C     0.00491 -0.00199   1.077  2.918  0.000
   499C    -0.03698 -0.08902   1.067  2.970  0.000
   500C     0.03065 -0.01451   1.102  2.867  0.000
   501N    -0.23888 -0.59862   1.305  3.934  0.000
   502C     0.03728  0.04918   1.098  2.865  0.000
   503C    -0.05909 -0.10753   1.040  3.019  0.000
   504C     0.05873  0.12666   1.117  2.824  0.000
   505C    -0.03695 -0.08294   1.086  2.951  0.000
   506C    -0.03948 -0.08491   1.089  2.950  0.000
   507C     0.06414  0.13508   1.129  2.807  0.000
   508N    -0.28462 -0.47087   1.292  3.992  0.000
   509H     0.03293  0.09101   0.967  0.000  0.000
   510H     0.02807  0.08689   0.972  0.000  0.000
   511H     0.16233  0.37031   0.838  0.000  0.000
   512H     0.02426  0.08205   0.976  0.000  0.000
   513H     0.02755  0.08956   0.972  0.000  0.000
   514H     0.02180  0.08542   0.978  0.000  0.000
   515H     0.16925  0.36210   0.831  0.000  0.000
   516H     0.04214  0.10766   0.958  0.000  0.000
   517H     0.01503  0.07348   0.985  0.000  0.000
   518H     0.01839  0.07720   0.982  0.000  0.000
   519H     0.02231  0.08033   0.978  0.000  0.000
   520H     0.03259  0.09067   0.967  0.000  0.000
   521H     0.02790  0.08671   0.972  0.000  0.000
   522H     0.16234  0.37032   0.838  0.000  0.000
   523H     0.02419  0.08198   0.976  0.000  0.000
   524H     0.02767  0.08968   0.972  0.000  0.000
   525H     0.02161  0.08523   0.978  0.000  0.000
   526H     0.16928  0.36213   0.831  0.000  0.000
   527H     0.04223  0.10775   0.958  0.000  0.000
   528H     0.01510  0.07356   0.985  0.000  0.000
   529H     0.01856  0.07738   0.981  0.000  0.000
   530H     0.02266  0.08068   0.977  0.000  0.000
   531C     0.01666  0.02390   1.083  2.900  0.000
   532C     0.06660  0.13160   1.109  2.825  0.000
   533C    -0.03460 -0.07901   1.078  2.956  0.000
   534C    -0.03223 -0.07708   1.077  2.955  0.000
   535C     0.06176  0.12510   1.099  2.839  0.000
   536N    -0.15595 -0.50831   1.314  3.842  0.000
   537C     0.01346  0.01918   1.097  2.889  0.000
   538C     0.00477 -0.00213   1.077  2.918  0.000
   539C    -0.03695 -0.08900   1.067  2.970  0.000
   540C     0.03063 -0.01452   1.102  2.867  0.000
   541N    -0.23870 -0.59845   1.305  3.934  0.000
   542C     0.03727  0.04916   1.098  2.865  0.000
   543C    -0.05923 -0.10768   1.040  3.019  0.000
   544C     0.05917  0.12720   1.117  2.824  0.000
   545C    -0.03675 -0.08274   1.086  2.951  0.000
   546C    -0.03958 -0.08502   1.089  2.950  0.000
   547N    -0.28511 -0.47131   1.292  3.993  0.000
   548C     0.06406  0.13486   1.129  2.807  0.000
   549C     0.01455  0.02179   1.081  2.904  0.000
   550C     0.06651  0.13146   1.109  2.825  0.000
   551C    -0.03533 -0.07974   1.078  2.957  0.000
   552C    -0.03219 -0.07704   1.078  2.955  0.000
   553C     0.06151  0.12488   1.099  2.840  0.000
   554N    -0.15651 -0.50885   1.313  3.843  0.000
   555C     0.01383  0.01955   1.098  2.888  0.000
   556C     0.00486 -0.00204   1.077  2.918  0.000
   557C    -0.03704 -0.08909   1.067  2.970  0.000
   558C     0.03062 -0.01454   1.102  2.867  0.000
   559N    -0.23883 -0.59857   1.305  3.934  0.000
   560C     0.03735  0.04926   1.098  2.865  0.000
   561C    -0.05914 -0.10758   1.040  3.019  0.000
   562C     0.05898  0.12692   1.117  2.824  0.000
   563C    -0.03686 -0.08285   1.086  2.951  0.000
   564C    -0.03918 -0.08462   1.090  2.950  0.000
   565C     0.06423  0.13515   1.129  2.807  0.000
   566N    -0.28427 -0.47052   1.293  3.992  0.000
   567H     0.03347  0.09154   0.967  0.000  0.000
   568H     0.02844  0.08726   0.972  0.000  0.000
   569H     0.16241  0.37039   0.838  0.000  0.000
   570H     0.02440  0.08218   0.976  0.000  0.000
   571H     0.02764  0.08965   0.972  0.000  0.000
   572H     0.02208  0.08570   0.978  0.000  0.000
   573H     0.16947  0.36231   0.831  0.000  0.000
   574H     0.04226  0.10779   0.958  0.000  0.000
   575H     0.01496  0.07342   0.985  0.000  0.000
   576H     0.01871  0.07752   0.981  0.000  0.000
   577H     0.02239  0.08041   0.978  0.000  0.000
   578H     0.03249  0.09056   0.968  0.000  0.000
   579H     0.02815  0.08696   0.972  0.000  0.000
   580H     0.16249  0.37047   0.838  0.000  0.000
   581H     0.02417  0.08196   0.976  0.000  0.000
   582H     0.02791  0.08992   0.972  0.000  0.000
   583H     0.02162  0.08524   0.978  0.000  0.000
   584H     0.16950  0.36235   0.830  0.000  0.000
   585H     0.04249  0.10802   0.958  0.000  0.000
   586H     0.01525  0.07371   0.985  0.000  0.000
   587H     0.01890  0.07772   0.981  0.000  0.000
   588H     0.02317  0.08118   0.977  0.000  0.000

Wiberg/Mayer (AO) data.
largest (>0.10) Wiberg bond orders for each atom

 ---------------------------------------------------------------------------
     #   Z sym  total        # sym  WBO       # sym  WBO       # sym  WBO
 ---------------------------------------------------------------------------
     1   6 C    3.819 --    35 C    1.384     2 C    1.375    37 H    0.996
     2   6 C    3.926 --     1 C    1.375     3 C    1.239     6 N    1.229
     3   6 C    3.842 --     4 C    1.601     2 C    1.239    38 H    0.993
     4   6 C    3.825 --     3 C    1.601     5 C    1.251    39 H    0.999
     5   6 C    3.901 --     7 C    1.344     4 C    1.251     6 N    1.231
     6   7 N    3.251 --     5 C    1.231     2 C    1.229    40 H    0.960
     7   6 C    3.852 --    14 C    1.368     5 C    1.344     8 C    1.047
     8   6 C    3.874 --     9 C    1.797    13 C    1.119     7 C    1.047
     9   6 C    3.826 --     8 C    1.797    10 C    1.010    41 H    0.986
    10   6 C    3.936 --     9 C    1.010    43 H    0.986    42 H    0.979
                            11 N    0.966
    11   7 N    3.090 --    12 C    1.186    10 C    0.966    44 H    0.954
    12   6 C    3.942 --    13 C    1.704    11 N    1.186    45 H    0.979
    13   6 C    3.815 --    12 C    1.704     8 C    1.119    46 H    0.986
    14   6 C    3.929 --     7 C    1.368    17 N    1.356    15 C    1.161
    15   6 C    3.841 --    16 C    1.696    14 C    1.161    47 H    1.000
    16   6 C    3.854 --    15 C    1.696    18 C    1.163    48 H    0.999
    17   7 N    2.570 --    18 C    1.410    14 C    1.356
    18   6 C    3.943 --    17 N    1.410    19 C    1.292    16 C    1.163
    19   6 C    3.859 --    18 C    1.292    20 C    1.291   119 C    1.213
    20   6 C    3.904 --    19 C    1.291    21 C    1.263    24 N    1.250
    21   6 C    3.838 --    22 C    1.589    20 C    1.263    49 H    0.998
    22   6 C    3.821 --    21 C    1.589    23 C    1.257    50 H    0.999
    23   6 C    3.898 --    25 C    1.349    22 C    1.257    24 N    1.221
    24   7 N    3.259 --    20 C    1.250    23 C    1.221    51 H    0.959
    25   6 C    3.842 --    32 C    1.355    23 C    1.349    26 C    1.050
    26   6 C    3.874 --    27 C    1.796    31 C    1.117    25 C    1.050
    27   6 C    3.831 --    26 C    1.796    28 C    1.011    52 H    0.986
    28   6 C    3.936 --    27 C    1.011    54 H    0.987    53 H    0.979
                            29 N    0.966
    29   7 N    3.088 --    30 C    1.185    28 C    0.966    55 H    0.955
    30   6 C    3.942 --    31 C    1.705    29 N    1.185    56 H    0.979
    31   6 C    3.813 --    30 C    1.705    26 C    1.117    57 H    0.986
    32   6 C    3.946 --    36 N    1.382    25 C    1.355    33 C    1.155
    33   6 C    3.842 --    34 C    1.706    32 C    1.155    58 H    1.000
    34   6 C    3.864 --    33 C    1.706    35 C    1.148    59 H    0.993
    35   6 C    3.970 --     1 C    1.384    36 N    1.375    34 C    1.148
    36   7 N    2.561 --    32 C    1.382    35 C    1.375
    37   1 H    1.033 --     1 C    0.996
    38   1 H    1.015 --     3 C    0.993
    39   1 H    1.031 --     4 C    0.999
    40   1 H    1.083 --     6 N    0.960
    41   1 H    1.043 --     9 C    0.986
    42   1 H    1.014 --    10 C    0.979
    43   1 H    1.057 --    10 C    0.986
    44   1 H    1.036 --    11 N    0.954
    45   1 H    1.023 --    12 C    0.979
    46   1 H    1.056 --    13 C    0.986
    47   1 H    1.040 --    15 C    1.000
    48   1 H    1.033 --    16 C    0.999
    49   1 H    1.029 --    21 C    0.998
    50   1 H    1.036 --    22 C    0.999
    51   1 H    1.086 --    24 N    0.959
    52   1 H    1.047 --    27 C    0.986
    53   1 H    1.015 --    28 C    0.979
    54   1 H    1.057 --    28 C    0.987
    55   1 H    1.037 --    29 N    0.955
    56   1 H    1.025 --    30 C    0.979
    57   1 H    1.053 --    31 C    0.986
    58   1 H    1.037 --    33 C    1.000
    59   1 H    1.018 --    34 C    0.993
    60   6 C    3.819 --    94 C    1.384    61 C    1.375    96 H    0.996
    61   6 C    3.926 --    60 C    1.375    62 C    1.239    65 N    1.229
    62   6 C    3.842 --    63 C    1.601    61 C    1.239    97 H    0.993
    63   6 C    3.825 --    62 C    1.601    64 C    1.251    98 H    0.999
    64   6 C    3.901 --    66 C    1.344    63 C    1.251    65 N    1.231
    65   7 N    3.251 --    64 C    1.231    61 C    1.229    99 H    0.960
    66   6 C    3.853 --    73 C    1.368    64 C    1.344    67 C    1.047
    67   6 C    3.874 --    68 C    1.797    72 C    1.119    66 C    1.047
    68   6 C    3.826 --    67 C    1.797    69 C    1.010   100 H    0.986
    69   6 C    3.936 --    68 C    1.010   102 H    0.986   101 H    0.979
                            70 N    0.966
    70   7 N    3.090 --    71 C    1.186    69 C    0.966   103 H    0.954
    71   6 C    3.942 --    72 C    1.704    70 N    1.186   104 H    0.979
    72   6 C    3.815 --    71 C    1.704    67 C    1.119   105 H    0.986
    73   6 C    3.929 --    66 C    1.368    76 N    1.356    74 C    1.161
    74   6 C    3.841 --    75 C    1.696    73 C    1.161   106 H    1.000
    75   6 C    3.855 --    74 C    1.696    77 C    1.163   107 H    0.999
    76   7 N    2.570 --    77 C    1.410    73 C    1.356
    77   6 C    3.943 --    76 N    1.410    78 C    1.292    75 C    1.163
    78   6 C    3.859 --    77 C    1.292    79 C    1.291   182 C    1.213
    79   6 C    3.904 --    78 C    1.291    80 C    1.263    83 N    1.249
    80   6 C    3.838 --    81 C    1.589    79 C    1.263   108 H    0.998
    81   6 C    3.821 --    80 C    1.589    82 C    1.257   109 H    0.999
    82   6 C    3.898 --    84 C    1.349    81 C    1.257    83 N    1.221
    83   7 N    3.259 --    79 C    1.249    82 C    1.221   110 H    0.959
    84   6 C    3.842 --    91 C    1.355    82 C    1.349    85 C    1.050
    85   6 C    3.874 --    86 C    1.796    90 C    1.117    84 C    1.050
    86   6 C    3.831 --    85 C    1.796    87 C    1.011   111 H    0.986
    87   6 C    3.936 --    86 C    1.011   113 H    0.987   112 H    0.979
                            88 N    0.966
    88   7 N    3.088 --    89 C    1.185    87 C    0.966   114 H    0.955
    89   6 C    3.942 --    90 C    1.705    88 N    1.185   115 H    0.979
    90   6 C    3.813 --    89 C    1.705    85 C    1.117   116 H    0.986
    91   6 C    3.946 --    95 N    1.382    84 C    1.355    92 C    1.155
    92   6 C    3.842 --    93 C    1.706    91 C    1.155   117 H    1.000
    93   6 C    3.864 --    92 C    1.706    94 C    1.148   118 H    0.993
    94   6 C    3.970 --    60 C    1.384    95 N    1.375    93 C    1.148
    95   7 N    2.561 --    91 C    1.382    94 C    1.375
    96   1 H    1.033 --    60 C    0.996
    97   1 H    1.015 --    62 C    0.993
    98   1 H    1.031 --    63 C    0.999
    99   1 H    1.083 --    65 N    0.960
   100   1 H    1.043 --    68 C    0.986
   101   1 H    1.014 --    69 C    0.979
   102   1 H    1.057 --    69 C    0.986
   103   1 H    1.036 --    70 N    0.954
   104   1 H    1.023 --    71 C    0.979
   105   1 H    1.056 --    72 C    0.986
   106   1 H    1.040 --    74 C    1.000
   107   1 H    1.033 --    75 C    0.999
   108   1 H    1.029 --    80 C    0.998
   109   1 H    1.036 --    81 C    0.999
   110   1 H    1.086 --    83 N    0.959
   111   1 H    1.047 --    86 C    0.986
   112   1 H    1.015 --    87 C    0.979
   113   1 H    1.057 --    87 C    0.987
   114   1 H    1.037 --    88 N    0.955
   115   1 H    1.025 --    89 C    0.979
   116   1 H    1.053 --    90 C    0.986
   117   1 H    1.037 --    92 C    1.000
   118   1 H    1.018 --    93 C    0.993
   119   6 C    3.756 --   120 C    2.473    19 C    1.213   122 C    0.169
   120   6 C    3.815 --   119 C    2.473   121 C    1.357
   121   6 C    3.803 --   122 C    2.353   120 C    1.357   124 C    0.163
   122   6 C    3.842 --   121 C    2.353   123 C    1.385   119 C    0.169
   123   6 C    3.838 --   124 C    2.351   122 C    1.385   126 C    0.168
   124   6 C    3.806 --   123 C    2.351   125 C    1.360   121 C    0.163
   125   6 C    3.808 --   126 C    2.465   124 C    1.360
   126   6 C    3.758 --   125 C    2.465   183 C    1.220   123 C    0.168
   127   6 C    3.755 --   128 C    2.454   201 C    1.229   130 C    0.167
   128   6 C    3.807 --   127 C    2.454   129 C    1.370
   129   6 C    3.802 --   130 C    2.336   128 C    1.370   132 C    0.161
   130   6 C    3.837 --   129 C    2.336   131 C    1.397   127 C    0.167
   131   6 C    3.837 --   132 C    2.336   130 C    1.397   134 C    0.167
   132   6 C    3.803 --   131 C    2.336   133 C    1.371   129 C    0.161
   133   6 C    3.806 --   134 C    2.453   132 C    1.371
   134   6 C    3.756 --   133 C    2.453   241 C    1.230   131 C    0.167
   135   6 C    3.755 --   136 C    2.453   259 C    1.229   138 C    0.167
   136   6 C    3.806 --   135 C    2.453   137 C    1.370
   137   6 C    3.803 --   138 C    2.336   136 C    1.370   140 C    0.161
   138   6 C    3.837 --   137 C    2.336   139 C    1.397   135 C    0.167
   139   6 C    3.838 --   140 C    2.336   138 C    1.397   142 C    0.167
   140   6 C    3.803 --   139 C    2.336   141 C    1.370   137 C    0.161
   141   6 C    3.807 --   142 C    2.454   140 C    1.370
   142   6 C    3.755 --   141 C    2.454   299 C    1.229   139 C    0.167
   143   6 C    3.756 --   144 C    2.454   317 C    1.229   146 C    0.167
   144   6 C    3.807 --   143 C    2.454   145 C    1.370
   145   6 C    3.803 --   146 C    2.337   144 C    1.370   148 C    0.162
   146   6 C    3.838 --   145 C    2.337   147 C    1.397   143 C    0.167
   147   6 C    3.838 --   148 C    2.337   146 C    1.397   150 C    0.167
   148   6 C    3.803 --   147 C    2.337   149 C    1.370   145 C    0.162
   149   6 C    3.807 --   150 C    2.455   148 C    1.370
   150   6 C    3.756 --   149 C    2.455   357 C    1.228   147 C    0.167
   151   6 C    3.756 --   152 C    2.455   375 C    1.228   154 C    0.167
   152   6 C    3.807 --   151 C    2.455   153 C    1.370
   153   6 C    3.803 --   154 C    2.337   152 C    1.370   156 C    0.162
   154   6 C    3.838 --   153 C    2.337   155 C    1.397   151 C    0.167
   155   6 C    3.838 --   156 C    2.337   154 C    1.397   158 C    0.167
   156   6 C    3.803 --   155 C    2.337   157 C    1.370   153 C    0.162
   157   6 C    3.807 --   158 C    2.454   156 C    1.370
   158   6 C    3.756 --   157 C    2.454   415 C    1.229   155 C    0.167
   159   6 C    3.755 --   160 C    2.454   433 C    1.229   162 C    0.167
   160   6 C    3.807 --   159 C    2.454   161 C    1.370
   161   6 C    3.803 --   162 C    2.336   160 C    1.370   164 C    0.161
   162   6 C    3.838 --   161 C    2.336   163 C    1.397   159 C    0.167
   163   6 C    3.837 --   164 C    2.336   162 C    1.397   166 C    0.167
   164   6 C    3.803 --   163 C    2.336   165 C    1.370   161 C    0.161
   165   6 C    3.806 --   166 C    2.453   164 C    1.370
   166   6 C    3.755 --   165 C    2.453   473 C    1.229   163 C    0.167
   167   6 C    3.756 --   168 C    2.453   491 C    1.230   170 C    0.167
   168   6 C    3.806 --   167 C    2.453   169 C    1.371
   169   6 C    3.803 --   170 C    2.336   168 C    1.371   172 C    0.161
   170   6 C    3.837 --   169 C    2.336   171 C    1.397   167 C    0.167
   171   6 C    3.837 --   172 C    2.336   170 C    1.397   174 C    0.167
   172   6 C    3.802 --   171 C    2.336   173 C    1.370   169 C    0.161
   173   6 C    3.807 --   174 C    2.454   172 C    1.370
   174   6 C    3.755 --   173 C    2.454   531 C    1.229   171 C    0.167
   175   6 C    3.758 --   176 C    2.466   549 C    1.219   178 C    0.168
   176   6 C    3.808 --   175 C    2.466   177 C    1.360
   177   6 C    3.806 --   178 C    2.351   176 C    1.360   180 C    0.163
   178   6 C    3.838 --   177 C    2.351   179 C    1.385   175 C    0.168
   179   6 C    3.842 --   180 C    2.353   178 C    1.385   182 C    0.169
   180   6 C    3.803 --   179 C    2.353   181 C    1.356   177 C    0.163
   181   6 C    3.815 --   182 C    2.473   180 C    1.356
   182   6 C    3.756 --   181 C    2.473    78 C    1.213   179 C    0.169
   183   6 C    3.833 --   217 C    1.286   184 C    1.283   126 C    1.220
   184   6 C    3.906 --   183 C    1.283   185 C    1.268   188 N    1.251
   185   6 C    3.830 --   186 C    1.581   184 C    1.268   219 H    0.998
   186   6 C    3.826 --   185 C    1.581   187 C    1.262   220 H    1.000
   187   6 C    3.890 --   189 C    1.342   186 C    1.262   188 N    1.219
   188   7 N    3.251 --   184 C    1.251   187 C    1.219   221 H    0.961
   189   6 C    3.844 --   196 C    1.372   187 C    1.342   190 C    1.045
   190   6 C    3.873 --   191 C    1.797   195 C    1.120   189 C    1.045
   191   6 C    3.825 --   190 C    1.797   192 C    1.010   222 H    0.985
   192   6 C    3.935 --   191 C    1.010   224 H    0.987   223 H    0.977
                           193 N    0.967
   193   7 N    3.090 --   194 C    1.183   192 C    0.967   225 H    0.955
   194   6 C    3.943 --   195 C    1.703   193 N    1.183   226 H    0.979
   195   6 C    3.816 --   194 C    1.703   190 C    1.120   227 H    0.987
   196   6 C    3.924 --   189 C    1.372   199 N    1.351   197 C    1.164
   197   6 C    3.841 --   198 C    1.692   196 C    1.164   228 H    0.999
   198   6 C    3.849 --   197 C    1.692   200 C    1.167   229 H    0.999
   199   7 N    2.555 --   200 C    1.416   196 C    1.351
   200   6 C    3.942 --   199 N    1.416   201 C    1.282   198 C    1.167
   201   6 C    3.833 --   200 C    1.282   202 C    1.280   127 C    1.229
   202   6 C    3.905 --   201 C    1.280   203 C    1.271   206 N    1.252
   203   6 C    3.831 --   204 C    1.578   202 C    1.271   230 H    0.998
   204   6 C    3.824 --   203 C    1.578   205 C    1.264   231 H    1.000
   205   6 C    3.890 --   207 C    1.339   204 C    1.264   206 N    1.221
   206   7 N    3.254 --   202 C    1.252   205 C    1.221   232 H    0.961
   207   6 C    3.842 --   214 C    1.374   205 C    1.339   208 C    1.045
   208   6 C    3.873 --   209 C    1.797   213 C    1.120   207 C    1.045
   209   6 C    3.825 --   208 C    1.797   210 C    1.010   233 H    0.985
   210   6 C    3.935 --   209 C    1.010   235 H    0.987   234 H    0.977
                           211 N    0.967
   211   7 N    3.090 --   212 C    1.183   210 C    0.967   236 H    0.955
   212   6 C    3.943 --   213 C    1.703   211 N    1.183   237 H    0.979
   213   6 C    3.816 --   212 C    1.703   208 C    1.120   238 H    0.987
   214   6 C    3.925 --   207 C    1.374   218 N    1.351   215 C    1.162
   215   6 C    3.842 --   216 C    1.694   214 C    1.162   239 H    1.000
   216   6 C    3.849 --   215 C    1.694   217 C    1.165   240 H    0.999
   217   6 C    3.944 --   218 N    1.414   183 C    1.286   216 C    1.165
   218   7 N    2.551 --   217 C    1.414   214 C    1.351
   219   1 H    1.029 --   185 C    0.998
   220   1 H    1.037 --   186 C    1.000
   221   1 H    1.084 --   188 N    0.961
   222   1 H    1.042 --   191 C    0.985
   223   1 H    1.022 --   192 C    0.977
   224   1 H    1.053 --   192 C    0.987
   225   1 H    1.037 --   193 N    0.955
   226   1 H    1.026 --   194 C    0.979
   227   1 H    1.055 --   195 C    0.987
   228   1 H    1.042 --   197 C    0.999
   229   1 H    1.033 --   198 C    0.999
   230   1 H    1.029 --   203 C    0.998
   231   1 H    1.036 --   204 C    1.000
   232   1 H    1.084 --   206 N    0.961
   233   1 H    1.042 --   209 C    0.985
   234   1 H    1.022 --   210 C    0.977
   235   1 H    1.053 --   210 C    0.987
   236   1 H    1.038 --   211 N    0.955
   237   1 H    1.026 --   212 C    0.979
   238   1 H    1.055 --   213 C    0.987
   239   1 H    1.042 --   215 C    1.000
   240   1 H    1.033 --   216 C    0.999
   241   6 C    3.831 --   275 C    1.281   242 C    1.279   134 C    1.230
   242   6 C    3.905 --   241 C    1.279   243 C    1.271   246 N    1.252
   243   6 C    3.830 --   244 C    1.578   242 C    1.271   277 H    0.998
   244   6 C    3.824 --   243 C    1.578   245 C    1.264   278 H    1.000
   245   6 C    3.890 --   247 C    1.340   244 C    1.264   246 N    1.219
   246   7 N    3.252 --   242 C    1.252   245 C    1.219   279 H    0.961
   247   6 C    3.842 --   254 C    1.374   245 C    1.340   248 C    1.045
   248   6 C    3.873 --   249 C    1.797   253 C    1.120   247 C    1.045
   249   6 C    3.825 --   248 C    1.797   250 C    1.010   280 H    0.985
   250   6 C    3.935 --   249 C    1.010   282 H    0.987   281 H    0.977
                           251 N    0.967
   251   7 N    3.090 --   252 C    1.183   250 C    0.967   283 H    0.955
   252   6 C    3.943 --   253 C    1.703   251 N    1.183   284 H    0.979
   253   6 C    3.816 --   252 C    1.703   248 C    1.120   285 H    0.987
   254   6 C    3.924 --   247 C    1.374   257 N    1.350   255 C    1.164
   255   6 C    3.841 --   256 C    1.692   254 C    1.164   286 H    1.000
   256   6 C    3.849 --   255 C    1.692   258 C    1.167   287 H    0.999
   257   7 N    2.552 --   258 C    1.417   254 C    1.350
   258   6 C    3.942 --   257 N    1.417   259 C    1.282   256 C    1.167
   259   6 C    3.832 --   258 C    1.282   260 C    1.279   135 C    1.229
   260   6 C    3.905 --   259 C    1.279   261 C    1.271   264 N    1.252
   261   6 C    3.830 --   262 C    1.578   260 C    1.271   288 H    0.998
   262   6 C    3.824 --   261 C    1.578   263 C    1.264   289 H    1.000
   263   6 C    3.890 --   265 C    1.340   262 C    1.264   264 N    1.220
   264   7 N    3.252 --   260 C    1.252   263 C    1.220   290 H    0.961
   265   6 C    3.842 --   272 C    1.374   263 C    1.340   266 C    1.045
   266   6 C    3.873 --   267 C    1.797   271 C    1.120   265 C    1.045
   267   6 C    3.825 --   266 C    1.797   268 C    1.010   291 H    0.985
   268   6 C    3.935 --   267 C    1.010   293 H    0.987   292 H    0.977
                           269 N    0.967
   269   7 N    3.090 --   270 C    1.183   268 C    0.967   294 H    0.955
   270   6 C    3.943 --   271 C    1.703   269 N    1.183   295 H    0.979
   271   6 C    3.816 --   270 C    1.703   266 C    1.120   296 H    0.987
   272   6 C    3.924 --   265 C    1.374   276 N    1.349   273 C    1.164
   273   6 C    3.841 --   274 C    1.692   272 C    1.164   297 H    1.000
   274   6 C    3.849 --   273 C    1.692   275 C    1.167   298 H    0.999
   275   6 C    3.942 --   276 N    1.417   241 C    1.281   274 C    1.167
   276   7 N    2.552 --   275 C    1.417   272 C    1.349
   277   1 H    1.029 --   243 C    0.998
   278   1 H    1.037 --   244 C    1.000
   279   1 H    1.084 --   246 N    0.961
   280   1 H    1.042 --   249 C    0.985
   281   1 H    1.022 --   250 C    0.977
   282   1 H    1.053 --   250 C    0.987
   283   1 H    1.038 --   251 N    0.955
   284   1 H    1.026 --   252 C    0.979
   285   1 H    1.055 --   253 C    0.987
   286   1 H    1.042 --   255 C    1.000
   287   1 H    1.033 --   256 C    0.999
   288   1 H    1.029 --   261 C    0.998
   289   1 H    1.037 --   262 C    1.000
   290   1 H    1.084 --   264 N    0.961
   291   1 H    1.042 --   267 C    0.985
   292   1 H    1.022 --   268 C    0.977
   293   1 H    1.053 --   268 C    0.987
   294   1 H    1.038 --   269 N    0.955
   295   1 H    1.026 --   270 C    0.979
   296   1 H    1.055 --   271 C    0.987
   297   1 H    1.042 --   273 C    1.000
   298   1 H    1.033 --   274 C    0.999
   299   6 C    3.833 --   333 C    1.282   300 C    1.279   142 C    1.229
   300   6 C    3.905 --   299 C    1.279   301 C    1.271   304 N    1.252
   301   6 C    3.831 --   302 C    1.578   300 C    1.271   335 H    0.998
   302   6 C    3.824 --   301 C    1.578   303 C    1.264   336 H    1.000
   303   6 C    3.890 --   305 C    1.340   302 C    1.264   304 N    1.220
   304   7 N    3.252 --   300 C    1.252   303 C    1.220   337 H    0.961
   305   6 C    3.842 --   312 C    1.374   303 C    1.340   306 C    1.045
   306   6 C    3.873 --   307 C    1.797   311 C    1.120   305 C    1.045
   307   6 C    3.824 --   306 C    1.797   308 C    1.010   338 H    0.985
   308   6 C    3.935 --   307 C    1.010   340 H    0.987   339 H    0.977
                           309 N    0.968
   309   7 N    3.090 --   310 C    1.183   308 C    0.968   341 H    0.955
   310   6 C    3.943 --   311 C    1.703   309 N    1.183   342 H    0.979
   311   6 C    3.816 --   310 C    1.703   306 C    1.120   343 H    0.987
   312   6 C    3.925 --   305 C    1.374   315 N    1.350   313 C    1.163
   313   6 C    3.841 --   314 C    1.692   312 C    1.163   344 H    1.000
   314   6 C    3.849 --   313 C    1.692   316 C    1.166   345 H    0.999
   315   7 N    2.553 --   316 C    1.417   312 C    1.350
   316   6 C    3.942 --   315 N    1.417   317 C    1.282   314 C    1.166
   317   6 C    3.834 --   316 C    1.282   318 C    1.280   143 C    1.229
   318   6 C    3.905 --   317 C    1.280   319 C    1.270   322 N    1.252
   319   6 C    3.831 --   320 C    1.579   318 C    1.270   346 H    0.998
   320   6 C    3.825 --   319 C    1.579   321 C    1.264   347 H    1.000
   321   6 C    3.890 --   323 C    1.340   320 C    1.264   322 N    1.220
   322   7 N    3.252 --   318 C    1.252   321 C    1.220   348 H    0.960
   323   6 C    3.842 --   330 C    1.374   321 C    1.340   324 C    1.045
   324   6 C    3.873 --   325 C    1.797   329 C    1.120   323 C    1.045
   325   6 C    3.825 --   324 C    1.797   326 C    1.010   349 H    0.985
   326   6 C    3.935 --   325 C    1.010   351 H    0.987   350 H    0.977
                           327 N    0.967
   327   7 N    3.090 --   328 C    1.183   326 C    0.967   352 H    0.955
   328   6 C    3.943 --   329 C    1.703   327 N    1.183   353 H    0.979
   329   6 C    3.816 --   328 C    1.703   324 C    1.120   354 H    0.987
   330   6 C    3.925 --   323 C    1.374   334 N    1.350   331 C    1.164
   331   6 C    3.841 --   332 C    1.692   330 C    1.164   355 H    1.000
   332   6 C    3.849 --   331 C    1.692   333 C    1.166   356 H    0.999
   333   6 C    3.942 --   334 N    1.417   299 C    1.282   332 C    1.166
   334   7 N    2.553 --   333 C    1.417   330 C    1.350
   335   1 H    1.029 --   301 C    0.998
   336   1 H    1.037 --   302 C    1.000
   337   1 H    1.084 --   304 N    0.961
   338   1 H    1.042 --   307 C    0.985
   339   1 H    1.022 --   308 C    0.977
   340   1 H    1.053 --   308 C    0.987
   341   1 H    1.038 --   309 N    0.955
   342   1 H    1.026 --   310 C    0.979
   343   1 H    1.055 --   311 C    0.987
   344   1 H    1.042 --   313 C    1.000
   345   1 H    1.033 --   314 C    0.999
   346   1 H    1.029 --   319 C    0.998
   347   1 H    1.036 --   320 C    1.000
   348   1 H    1.084 --   322 N    0.960
   349   1 H    1.042 --   325 C    0.985
   350   1 H    1.022 --   326 C    0.977
   351   1 H    1.053 --   326 C    0.987
   352   1 H    1.038 --   327 N    0.955
   353   1 H    1.026 --   328 C    0.979
   354   1 H    1.055 --   329 C    0.987
   355   1 H    1.042 --   331 C    1.000
   356   1 H    1.033 --   332 C    0.999
   357   6 C    3.834 --   391 C    1.282   358 C    1.280   150 C    1.228
   358   6 C    3.905 --   357 C    1.280   359 C    1.270   362 N    1.252
   359   6 C    3.831 --   360 C    1.579   358 C    1.270   393 H    0.998
   360   6 C    3.825 --   359 C    1.579   361 C    1.264   394 H    1.000
   361   6 C    3.890 --   363 C    1.340   360 C    1.264   362 N    1.220
   362   7 N    3.252 --   358 C    1.252   361 C    1.220   395 H    0.960
   363   6 C    3.842 --   370 C    1.374   361 C    1.340   364 C    1.045
   364   6 C    3.873 --   365 C    1.797   369 C    1.120   363 C    1.045
   365   6 C    3.825 --   364 C    1.797   366 C    1.010   396 H    0.985
   366   6 C    3.935 --   365 C    1.010   398 H    0.987   397 H    0.977
                           367 N    0.968
   367   7 N    3.090 --   368 C    1.183   366 C    0.968   399 H    0.955
   368   6 C    3.943 --   369 C    1.703   367 N    1.183   400 H    0.979
   369   6 C    3.816 --   368 C    1.703   364 C    1.120   401 H    0.987
   370   6 C    3.925 --   363 C    1.374   373 N    1.350   371 C    1.163
   371   6 C    3.841 --   372 C    1.692   370 C    1.163   402 H    0.999
   372   6 C    3.849 --   371 C    1.692   374 C    1.166   403 H    0.999
   373   7 N    2.553 --   374 C    1.416   370 C    1.350
   374   6 C    3.942 --   373 N    1.416   375 C    1.282   372 C    1.166
   375   6 C    3.834 --   374 C    1.282   376 C    1.280   151 C    1.228
   376   6 C    3.905 --   375 C    1.280   377 C    1.270   380 N    1.252
   377   6 C    3.831 --   378 C    1.579   376 C    1.270   404 H    0.998
   378   6 C    3.825 --   377 C    1.579   379 C    1.264   405 H    1.000
   379   6 C    3.891 --   381 C    1.340   378 C    1.264   380 N    1.220
   380   7 N    3.252 --   376 C    1.252   379 C    1.220   406 H    0.960
   381   6 C    3.842 --   388 C    1.374   379 C    1.340   382 C    1.045
   382   6 C    3.873 --   383 C    1.797   387 C    1.120   381 C    1.045
   383   6 C    3.825 --   382 C    1.797   384 C    1.010   407 H    0.985
   384   6 C    3.935 --   383 C    1.010   409 H    0.987   408 H    0.977
                           385 N    0.967
   385   7 N    3.090 --   386 C    1.183   384 C    0.967   410 H    0.955
   386   6 C    3.943 --   387 C    1.703   385 N    1.183   411 H    0.979
   387   6 C    3.816 --   386 C    1.703   382 C    1.120   412 H    0.987
   388   6 C    3.925 --   381 C    1.374   392 N    1.350   389 C    1.163
   389   6 C    3.841 --   390 C    1.692   388 C    1.163   413 H    0.999
   390   6 C    3.849 --   389 C    1.692   391 C    1.166   414 H    0.999
   391   6 C    3.942 --   392 N    1.417   357 C    1.282   390 C    1.166
   392   7 N    2.553 --   391 C    1.417   388 C    1.350
   393   1 H    1.029 --   359 C    0.998
   394   1 H    1.036 --   360 C    1.000
   395   1 H    1.084 --   362 N    0.960
   396   1 H    1.042 --   365 C    0.985
   397   1 H    1.022 --   366 C    0.977
   398   1 H    1.053 --   366 C    0.987
   399   1 H    1.038 --   367 N    0.955
   400   1 H    1.026 --   368 C    0.979
   401   1 H    1.055 --   369 C    0.987
   402   1 H    1.042 --   371 C    0.999
   403   1 H    1.033 --   372 C    0.999
   404   1 H    1.029 --   377 C    0.998
   405   1 H    1.036 --   378 C    1.000
   406   1 H    1.084 --   380 N    0.960
   407   1 H    1.042 --   383 C    0.985
   408   1 H    1.022 --   384 C    0.977
   409   1 H    1.053 --   384 C    0.987
   410   1 H    1.038 --   385 N    0.955
   411   1 H    1.026 --   386 C    0.979
   412   1 H    1.055 --   387 C    0.987
   413   1 H    1.042 --   389 C    0.999
   414   1 H    1.033 --   390 C    0.999
   415   6 C    3.834 --   449 C    1.282   416 C    1.280   158 C    1.229
   416   6 C    3.905 --   415 C    1.280   417 C    1.270   420 N    1.252
   417   6 C    3.831 --   418 C    1.579   416 C    1.270   451 H    0.998
   418   6 C    3.825 --   417 C    1.579   419 C    1.264   452 H    1.000
   419   6 C    3.890 --   421 C    1.340   418 C    1.264   420 N    1.220
   420   7 N    3.252 --   416 C    1.252   419 C    1.220   453 H    0.961
   421   6 C    3.842 --   428 C    1.374   419 C    1.340   422 C    1.045
   422   6 C    3.873 --   423 C    1.797   427 C    1.120   421 C    1.045
   423   6 C    3.825 --   422 C    1.797   424 C    1.010   454 H    0.985
   424   6 C    3.936 --   423 C    1.010   456 H    0.987   455 H    0.977
                           425 N    0.968
   425   7 N    3.090 --   426 C    1.183   424 C    0.968   457 H    0.955
   426   6 C    3.943 --   427 C    1.703   425 N    1.183   458 H    0.979
   427   6 C    3.816 --   426 C    1.703   422 C    1.120   459 H    0.987
   428   6 C    3.925 --   421 C    1.374   431 N    1.350   429 C    1.164
   429   6 C    3.841 --   430 C    1.692   428 C    1.164   460 H    1.000
   430   6 C    3.849 --   429 C    1.692   432 C    1.166   461 H    0.999
   431   7 N    2.553 --   432 C    1.417   428 C    1.350
   432   6 C    3.942 --   431 N    1.417   433 C    1.282   430 C    1.166
   433   6 C    3.833 --   432 C    1.282   434 C    1.279   159 C    1.229
   434   6 C    3.905 --   433 C    1.279   435 C    1.271   438 N    1.252
   435   6 C    3.831 --   436 C    1.578   434 C    1.271   462 H    0.998
   436   6 C    3.824 --   435 C    1.578   437 C    1.264   463 H    1.000
   437   6 C    3.890 --   439 C    1.340   436 C    1.264   438 N    1.220
   438   7 N    3.252 --   434 C    1.252   437 C    1.220   464 H    0.961
   439   6 C    3.842 --   446 C    1.374   437 C    1.340   440 C    1.045
   440   6 C    3.873 --   441 C    1.797   445 C    1.120   439 C    1.045
   441   6 C    3.825 --   440 C    1.797   442 C    1.010   465 H    0.985
   442   6 C    3.935 --   441 C    1.010   467 H    0.987   466 H    0.977
                           443 N    0.967
   443   7 N    3.090 --   444 C    1.183   442 C    0.967   468 H    0.955
   444   6 C    3.943 --   445 C    1.703   443 N    1.183   469 H    0.979
   445   6 C    3.816 --   444 C    1.703   440 C    1.120   470 H    0.987
   446   6 C    3.925 --   439 C    1.374   450 N    1.350   447 C    1.163
   447   6 C    3.841 --   448 C    1.692   446 C    1.163   471 H    1.000
   448   6 C    3.849 --   447 C    1.692   449 C    1.166   472 H    0.999
   449   6 C    3.942 --   450 N    1.417   415 C    1.282   448 C    1.166
   450   7 N    2.553 --   449 C    1.417   446 C    1.350
   451   1 H    1.029 --   417 C    0.998
   452   1 H    1.036 --   418 C    1.000
   453   1 H    1.084 --   420 N    0.961
   454   1 H    1.042 --   423 C    0.985
   455   1 H    1.022 --   424 C    0.977
   456   1 H    1.053 --   424 C    0.987
   457   1 H    1.038 --   425 N    0.955
   458   1 H    1.026 --   426 C    0.979
   459   1 H    1.055 --   427 C    0.987
   460   1 H    1.042 --   429 C    1.000
   461   1 H    1.033 --   430 C    0.999
   462   1 H    1.029 --   435 C    0.998
   463   1 H    1.037 --   436 C    1.000
   464   1 H    1.084 --   438 N    0.961
   465   1 H    1.042 --   441 C    0.985
   466   1 H    1.022 --   442 C    0.977
   467   1 H    1.053 --   442 C    0.987
   468   1 H    1.038 --   443 N    0.955
   469   1 H    1.026 --   444 C    0.979
   470   1 H    1.055 --   445 C    0.987
   471   1 H    1.042 --   447 C    1.000
   472   1 H    1.033 --   448 C    0.999
   473   6 C    3.832 --   507 C    1.282   474 C    1.279   166 C    1.229
   474   6 C    3.905 --   473 C    1.279   475 C    1.271   478 N    1.252
   475   6 C    3.830 --   476 C    1.578   474 C    1.271   509 H    0.998
   476   6 C    3.824 --   475 C    1.578   477 C    1.264   510 H    1.000
   477   6 C    3.890 --   479 C    1.340   476 C    1.264   478 N    1.220
   478   7 N    3.252 --   474 C    1.252   477 C    1.220   511 H    0.961
   479   6 C    3.842 --   486 C    1.374   477 C    1.340   480 C    1.045
   480   6 C    3.873 --   481 C    1.797   485 C    1.120   479 C    1.045
   481   6 C    3.825 --   480 C    1.797   482 C    1.010   512 H    0.985
   482   6 C    3.936 --   481 C    1.010   514 H    0.987   513 H    0.977
                           483 N    0.968
   483   7 N    3.090 --   484 C    1.183   482 C    0.968   515 H    0.955
   484   6 C    3.943 --   485 C    1.703   483 N    1.183   516 H    0.979
   485   6 C    3.816 --   484 C    1.703   480 C    1.120   517 H    0.987
   486   6 C    3.924 --   479 C    1.374   489 N    1.349   487 C    1.164
   487   6 C    3.841 --   488 C    1.692   486 C    1.164   518 H    1.000
   488   6 C    3.849 --   487 C    1.692   490 C    1.167   519 H    0.999
   489   7 N    2.552 --   490 C    1.417   486 C    1.349
   490   6 C    3.942 --   489 N    1.417   491 C    1.281   488 C    1.167
   491   6 C    3.831 --   490 C    1.281   492 C    1.279   167 C    1.230
   492   6 C    3.905 --   491 C    1.279   493 C    1.271   496 N    1.252
   493   6 C    3.830 --   494 C    1.578   492 C    1.271   520 H    0.998
   494   6 C    3.824 --   493 C    1.578   495 C    1.264   521 H    1.000
   495   6 C    3.890 --   497 C    1.340   494 C    1.264   496 N    1.219
   496   7 N    3.252 --   492 C    1.252   495 C    1.219   522 H    0.961
   497   6 C    3.842 --   504 C    1.374   495 C    1.340   498 C    1.045
   498   6 C    3.873 --   499 C    1.797   503 C    1.120   497 C    1.045
   499   6 C    3.825 --   498 C    1.797   500 C    1.010   523 H    0.985
   500   6 C    3.935 --   499 C    1.010   525 H    0.987   524 H    0.977
                           501 N    0.967
   501   7 N    3.090 --   502 C    1.183   500 C    0.967   526 H    0.955
   502   6 C    3.943 --   503 C    1.703   501 N    1.183   527 H    0.979
   503   6 C    3.816 --   502 C    1.703   498 C    1.120   528 H    0.987
   504   6 C    3.924 --   497 C    1.374   508 N    1.350   505 C    1.164
   505   6 C    3.841 --   506 C    1.692   504 C    1.164   529 H    1.000
   506   6 C    3.849 --   505 C    1.692   507 C    1.167   530 H    0.999
   507   6 C    3.942 --   508 N    1.417   473 C    1.282   506 C    1.167
   508   7 N    2.552 --   507 C    1.417   504 C    1.350
   509   1 H    1.029 --   475 C    0.998
   510   1 H    1.037 --   476 C    1.000
   511   1 H    1.084 --   478 N    0.961
   512   1 H    1.042 --   481 C    0.985
   513   1 H    1.022 --   482 C    0.977
   514   1 H    1.053 --   482 C    0.987
   515   1 H    1.038 --   483 N    0.955
   516   1 H    1.026 --   484 C    0.979
   517   1 H    1.055 --   485 C    0.987
   518   1 H    1.042 --   487 C    1.000
   519   1 H    1.033 --   488 C    0.999
   520   1 H    1.029 --   493 C    0.998
   521   1 H    1.037 --   494 C    1.000
   522   1 H    1.084 --   496 N    0.961
   523   1 H    1.042 --   499 C    0.985
   524   1 H    1.022 --   500 C    0.977
   525   1 H    1.053 --   500 C    0.987
   526   1 H    1.038 --   501 N    0.955
   527   1 H    1.026 --   502 C    0.979
   528   1 H    1.055 --   503 C    0.987
   529   1 H    1.042 --   505 C    1.000
   530   1 H    1.033 --   506 C    0.999
   531   6 C    3.833 --   565 C    1.282   532 C    1.280   174 C    1.229
   532   6 C    3.905 --   531 C    1.280   533 C    1.271   536 N    1.252
   533   6 C    3.831 --   534 C    1.578   532 C    1.271   567 H    0.998
   534   6 C    3.824 --   533 C    1.578   535 C    1.264   568 H    1.000
   535   6 C    3.890 --   537 C    1.339   534 C    1.264   536 N    1.221
   536   7 N    3.254 --   532 C    1.252   535 C    1.221   569 H    0.961
   537   6 C    3.842 --   544 C    1.374   535 C    1.339   538 C    1.045
   538   6 C    3.873 --   539 C    1.797   543 C    1.120   537 C    1.045
   539   6 C    3.825 --   538 C    1.797   540 C    1.010   570 H    0.985
   540   6 C    3.935 --   539 C    1.010   572 H    0.987   571 H    0.977
                           541 N    0.967
   541   7 N    3.090 --   542 C    1.183   540 C    0.967   573 H    0.955
   542   6 C    3.943 --   543 C    1.703   541 N    1.183   574 H    0.979
   543   6 C    3.816 --   542 C    1.703   538 C    1.120   575 H    0.987
   544   6 C    3.925 --   537 C    1.374   547 N    1.351   545 C    1.162
   545   6 C    3.842 --   546 C    1.694   544 C    1.162   576 H    1.000
   546   6 C    3.849 --   545 C    1.694   548 C    1.165   577 H    0.999
   547   7 N    2.551 --   548 C    1.414   544 C    1.351
   548   6 C    3.944 --   547 N    1.414   549 C    1.286   546 C    1.165
   549   6 C    3.833 --   548 C    1.286   550 C    1.283   175 C    1.219
   550   6 C    3.906 --   549 C    1.283   551 C    1.268   554 N    1.251
   551   6 C    3.830 --   552 C    1.581   550 C    1.268   578 H    0.998
   552   6 C    3.826 --   551 C    1.581   553 C    1.262   579 H    1.000
   553   6 C    3.890 --   555 C    1.343   552 C    1.262   554 N    1.219
   554   7 N    3.251 --   550 C    1.251   553 C    1.219   580 H    0.961
   555   6 C    3.844 --   562 C    1.372   553 C    1.343   556 C    1.045
   556   6 C    3.873 --   557 C    1.797   561 C    1.120   555 C    1.045
   557   6 C    3.825 --   556 C    1.797   558 C    1.010   581 H    0.985
   558   6 C    3.935 --   557 C    1.010   583 H    0.987   582 H    0.977
                           559 N    0.967
   559   7 N    3.090 --   560 C    1.183   558 C    0.967   584 H    0.955
   560   6 C    3.943 --   561 C    1.703   559 N    1.183   585 H    0.979
   561   6 C    3.816 --   560 C    1.703   556 C    1.120   586 H    0.987
   562   6 C    3.924 --   555 C    1.372   566 N    1.351   563 C    1.164
   563   6 C    3.841 --   564 C    1.692   562 C    1.164   587 H    0.999
   564   6 C    3.849 --   563 C    1.692   565 C    1.167   588 H    0.999
   565   6 C    3.942 --   566 N    1.416   531 C    1.282   564 C    1.167
   566   7 N    2.555 --   565 C    1.416   562 C    1.351
   567   1 H    1.029 --   533 C    0.998
   568   1 H    1.036 --   534 C    1.000
   569   1 H    1.084 --   536 N    0.961
   570   1 H    1.042 --   539 C    0.985
   571   1 H    1.022 --   540 C    0.977
   572   1 H    1.053 --   540 C    0.987
   573   1 H    1.038 --   541 N    0.955
   574   1 H    1.026 --   542 C    0.979
   575   1 H    1.055 --   543 C    0.987
   576   1 H    1.042 --   545 C    1.000
   577   1 H    1.033 --   546 C    0.999
   578   1 H    1.029 --   551 C    0.998
   579   1 H    1.037 --   552 C    1.000
   580   1 H    1.084 --   554 N    0.961
   581   1 H    1.042 --   557 C    0.985
   582   1 H    1.022 --   558 C    0.977
   583   1 H    1.053 --   558 C    0.987
   584   1 H    1.037 --   559 N    0.955
   585   1 H    1.026 --   560 C    0.979
   586   1 H    1.055 --   561 C    0.987
   587   1 H    1.042 --   563 C    0.999
   588   1 H    1.033 --   564 C    0.999
 ---------------------------------------------------------------------------

Topologies differ in total number of bonds
Writing topology from bond orders to xtbtopo.mol

 dipole moment from electron density (au)
     X       Y       Z   
-319.3948   0.0673  -0.0732  total (Debye):  811.821


           -------------------------------------------------
          | TOTAL ENERGY            -1121.786045555823 Eh   |
          | GRADIENT NORM               0.134081618509 Eh/α |
          | HOMO-LUMO GAP               0.036473642623 eV   |
           -------------------------------------------------
########################################################################
[WARNING] Runtime exception occurred
-1- restart_readRestart: Dimension missmatch in restart file.
########################################################################

------------------------------------------------------------------------
 * finished run on 2022/07/28 at 12:26:13.009     
------------------------------------------------------------------------
 total:
 * wall-time:     0 d,  0 h,  4 min, 16.272 sec
 *  cpu-time:     0 d,  0 h,  4 min, 14.316 sec
 * ratio c/w:     0.992 speedup
 SCF:
 * wall-time:     0 d,  0 h,  4 min, 14.289 sec
 *  cpu-time:     0 d,  0 h,  4 min, 12.538 sec
 * ratio c/w:     0.993 speedup

