198
 energy: -329.358857600104 gnorm: 1.495024017028 xtb: 6.5.1 (b24c23e)
C           21.79840800000000        0.02628200000000       -0.00090100000000
C           22.52326200000000       -1.02765200000000        0.89038200000000
C           21.90781100000000       -2.01482800000000        1.62646700000000
C           22.92923800000000       -2.71896600000000        2.31426000000000
C           24.13491500000000       -2.13151500000000        1.98081200000000
N           23.87793500000000       -1.12800000000000        1.08092900000000
C           25.56296800000000       -2.51687600000000        2.55108000000000
C           25.61247000000000       -3.46416300000000        3.68983600000000
C           25.86185700000000       -4.82256200000000        3.47149400000000
C           25.91446300000000       -5.71315400000000        4.54792900000000
C           25.75991100000000       -5.25285100000000        5.85842100000000
N           25.72125300000000       -6.16407000000000        6.92848900000000
C           25.43632400000000       -3.90831900000000        6.06727900000000
C           25.38495400000000       -3.01400000000000        4.99375400000000
C           26.69161800000000       -1.95985500000000        2.03344100000000
C           28.00091300000000       -2.24023500000000        2.58618300000000
C           28.90244000000000       -1.54387700000000        1.90402500000000
N           26.88465700000000       -1.08223000000000        0.99807200000000
C           28.21882200000000       -0.79233900000000        0.86986200000000
C           28.88872800000000        0.01262100000000        0.00202500000000
C           28.11419600000000        0.79265400000000       -1.14451600000000
C           28.66857600000000        1.28581600000000       -2.30938300000000
C           27.64352100000000        1.95326300000000       -3.02354700000000
C           26.48682200000000        1.83731200000000       -2.28343300000000
N           26.77305800000000        1.09179000000000       -1.16344300000000
C           25.06977300000000        2.44015700000000       -2.66309600000000
C           25.01999200000000        3.52191900000000       -3.67139700000000
C           24.80017600000000        3.22201000000000       -5.01949300000000
C           24.75110300000000        4.24447900000000       -5.97133900000000
C           24.87424100000000        5.58160600000000       -5.58399000000000
N           24.91404500000000        6.59774900000000       -6.55492400000000
C           25.16422900000000        5.87249100000000       -4.24716300000000
C           25.21605700000000        4.85249900000000       -3.29182200000000
C           23.94760400000000        1.96518600000000       -2.06245200000000
C           22.62233500000000        2.47764600000000       -2.36330800000000
C           21.73875700000000        1.80689300000000       -1.63052500000000
C           22.46398200000000        0.84766100000000       -0.83436100000000
N           23.78644300000000        0.98807500000000       -1.11958400000000
H           20.71940600000000        0.09195900000000        0.06836200000000
H           20.84514900000000       -2.19898000000000        1.67368400000000
H           22.79721900000000       -3.54790000000000        2.99444700000000
H           24.58170500000000       -0.55011600000000        0.62797000000000
H           26.00968400000000       -5.17568900000000        2.45423600000000
H           26.08815600000000       -6.76504200000000        4.34626200000000
H           25.94972599999999       -5.72163100000000        7.81304200000000
H           26.28695200000000       -6.98758900000000        6.74882200000000
H           25.23016400000000       -3.53511800000000        7.06521800000000
H           25.16045400000000       -1.96238900000000        5.15999300000000
H           28.21697600000000       -2.88851000000000        3.41625500000000
H           29.95863900000000       -1.55717300000000        2.10029900000000
H           29.70003900000000        1.18967900000000       -2.61123600000000
H           27.73990000000000        2.46375700000000       -3.96979000000000
H           26.08433600000000        0.77507300000000       -0.48591200000000
H           24.67464200000000        2.18350900000000       -5.31636600000000
H           24.60680600000000        3.97985900000000       -7.01329000000000
H           24.36683800000000        6.36118700000000       -7.37531600000000
H           24.66330700000000        7.50174900000000       -6.16883200000000
H           25.34386900000000        6.89416700000000       -3.92844500000000
H           25.41415800000000        5.08202100000000       -2.24702300000000
H           22.39069700000000        3.26409400000000       -3.05861700000000
H           20.67373900000000        1.95037600000000       -1.62629000000000
C           68.29346900000000        0.01290200000000        0.01599300000000
C           67.56861400000000        0.63907900000000       -1.21407400000000
C           68.18406600000000        1.12947500000000       -2.34360900000000
C           67.16263800000000        1.63769600000000       -3.18657000000000
C           65.95696200000000        1.44767200000000       -2.53835800000000
N           66.21394100000001        0.80157400000000       -1.35540000000000
C           64.52890800000000        1.91450900000000       -3.04409700000000
C           64.47940699999999        2.80600700000000       -4.22703800000000
C           64.23002000000000        2.28232100000000       -5.49930900000000
C           64.17741300000000        3.12614200000000       -6.61278700000000
C           64.33196599999999        4.50722700000000       -6.46489800000000
N           64.37062400000001        5.34012500000000       -7.59699600000000
C           64.65555200000000        5.01850600000000       -5.20395200000000
C           64.70692300000000        4.17837100000000       -4.08751400000000
C           63.40025800000000        1.53822200000000       -2.38331700000000
C           62.09096300000000        2.01204500000000       -2.78285200000000
C           61.18943699999999        1.50752800000000       -1.94875500000000
N           63.20722000000000        0.73140500000000       -1.29186900000000
C           61.87305400000000        0.67300400000000       -0.98031700000000
C           61.20314800000000        0.01262100000000        0.00202500000000
C           61.97768099999999       -0.92476600000000        1.02394100000000
C           61.42330000000000       -1.94570200000000        1.77081100000000
C           62.44835499999999       -2.48799500000000        2.58409600000000
C           63.60505400000000       -1.79411800000000        2.30170100000000
N           63.31881799999999       -0.87467100000000        1.31945900000000
C           65.02210300000000       -2.02560100000000        2.97548200000000
C           65.07188499999999       -2.75931100000000        4.25944100000000
C           65.29170100000000       -4.14026200000000        4.27629500000000
C           65.34077300000000       -4.83259900000000        5.48960600000000
C           65.21763500000000       -4.14927100000000        6.70245800000000
N           65.17783100000000       -4.86163700000000        7.91398400000000
C           64.92764699999999       -2.78135700000000        6.67940200000000
C           64.87582000000000       -2.08505000000000        5.46770100000000
C           66.14427200000000       -1.54972100000000        2.37555800000000
C           67.46954200000000       -1.72519700000000        2.94330600000000
C           68.35312000000000       -1.16553600000000        2.12253800000000
C           67.62789400000000       -0.61025700000000        1.00644300000000
N           66.30543400000001       -0.85573400000000        1.20845500000000
H           69.37247099999999        0.09536700000000        0.06405900000000
H           69.24672700000001        1.13325600000000       -2.53368000000000
H           67.29465800000000        2.10992600000000       -4.14926600000000
H           65.51017200000000        0.49302600000000       -0.68912700000000
H           64.08219300000000        1.21122200000000       -5.61003900000000
H           64.00372100000000        2.68889500000000       -7.59051600000000
H           64.14215000000000        6.30250400000000       -7.36893200000000
H           63.80492500000000        4.97660400000000       -8.35746600000000
H           64.86171200000000        6.07539600000000       -5.06925700000000
H           64.93142200000000        4.58106800000000       -3.10194000000000
H           61.87490100000000        2.67155600000000       -3.60402400000000
H           60.13323800000000        1.69553800000000       -2.00665600000000
H           60.39183800000000       -2.26155000000000        1.74637200000000
H           62.35197599999999       -3.29214900000000        3.29776100000000
H           64.00754000000001       -0.28769900000000        0.85597100000000
H           65.41723500000001       -4.66711600000000        3.33340500000000
H           65.48506999999999       -5.90746000000000        5.47068600000000
H           65.72503900000000       -5.71440400000000        7.87162700000000
H           65.42856999999999       -4.27874400000000        8.70551200000000
H           64.74800700000000       -2.23709200000000        7.60091100000000
H           64.67771800000000       -1.01545600000000        5.45180300000000
H           67.70117999999999       -2.22187900000000        3.86811000000000
H           69.41813800000000       -1.12854800000000        2.26123700000000
C           31.39028700000000        0.02684700000000        0.01197600000000
C           32.84851300000000        0.00501100000000       -0.00589700000000
C           33.98244099999999       -0.01574300000000       -0.00738800000000
C           35.34382299999999       -0.02833300000000       -0.00957900000000
C           36.61804200000000       -0.01802600000000       -0.01434400000000
C           37.80650399999999        0.00077200000000       -0.02050000000000
C           39.15886500000000        0.02555600000000       -0.00463200000000
C           40.25913200000000        0.02684700000000        0.01197600000000
C           49.71263000000000        0.02684700000000        0.01197600000000
C           51.17085600000000        0.00501100000000       -0.00589700000000
C           52.30478400000000       -0.01574300000000       -0.00738800000000
C           53.66616600000000       -0.02833300000000       -0.00957900000000
C           54.94038500000000       -0.01802600000000       -0.01434400000000
C           56.12884700000000        0.00077200000000       -0.02050000000000
C           57.48120800000000        0.02555600000000       -0.00463200000000
C           58.58147500000000        0.02684700000000        0.01197600000000
C           41.46969499999999       -0.03282300000000       -0.00731100000000
C           42.26234000000000       -0.61898100000000        1.23331900000000
C           41.75384700000000       -1.42941400000000        2.22815000000000
C           42.79046100000000       -1.64192800000000        3.17272300000000
C           43.90147999999999       -0.96105100000000        2.72125400000000
N           43.59163300000000       -0.40590200000000        1.50489700000000
C           45.29120600000000       -0.82988700000000        3.46903500000000
C           45.28534700000000       -0.92254000000000        4.94771100000000
C           45.74491400000000       -2.07641900000000        5.59148100000000
C           45.73623800000000       -2.15850000000000        6.98721500000000
C           45.30662400000000       -1.07585200000000        7.75971600000000
N           45.21311500000000       -1.19682100000000        9.15705400000000
C           44.77713800000000        0.04479000000000        7.11340600000000
C           44.78539600000000        0.13151500000000        5.71769800000000
C           46.42593300000000       -0.59259500000000        2.75902000000000
C           47.71290500000000       -0.40339500000000        3.39638600000000
C           48.62058000000000       -0.18445000000000        2.45122000000000
N           46.63389799999999       -0.46454000000000        1.41335700000000
C           47.95827300000000       -0.22269200000000        1.16293300000000
C           48.62237900000000       -0.03282300000000       -0.00731100000000
C           47.82972099999999       -0.08246500000000       -1.37850700000000
C           48.33802699999999       -0.43561200000000       -2.61218800000000
C           47.30143199999999       -0.25843100000000       -3.56404900000000
C           46.19060800000000        0.18991700000000       -2.88078600000000
N           46.50055900000000        0.22089700000000       -1.54412400000000
C           44.80091399999999        0.60530900000000       -3.51623800000000
C           44.80659500000000        1.10262900000000       -4.91182400000000
C           45.30421900000000        2.37569800000000       -5.20419300000000
C           45.31207900000000        2.84570800000000       -6.52124300000000
C           44.78454799999999        2.06914900000000       -7.55691200000000
N           44.87781500000000        2.50844300000000       -8.88892600000000
C           44.35728700000000        0.76894000000000       -7.27341500000000
C           44.34892799999999        0.29470000000000       -5.95817300000000
C           43.66621099999999        0.54356000000000       -2.77014900000000
C           42.37922100000000        0.96847000000000       -3.28144400000000
C           41.47152200000000        0.79704600000000       -2.32653900000000
C           42.13383300000000        0.25419400000000       -1.15757200000000
N           43.45826099999999        0.13090400000000       -1.48293600000000
H           40.74438300000000       -1.80755400000000        2.28320700000000
H           42.72813400000000       -2.20908900000000        4.08944700000000
H           44.25361500000000        0.05242600000000        0.88536200000000
H           46.10545500000000       -2.90909100000000        4.99151400000000
H           46.07780400000000       -3.07449700000000        7.45762700000000
H           45.90553900000000       -1.83659900000000        9.53154300000000
H           45.22754400000000       -0.29375800000000        9.61916300000000
H           44.35970400000000        0.86821900000000        7.68343300000000
H           44.39622300000000        1.01588600000000        5.21819500000000
H           47.90834400000000       -0.42371300000000        4.45353100000000
H           49.66482000000000       -0.00671100000000        2.63227000000000
H           49.34736100000000       -0.76191300000000       -2.81179200000000
H           47.36361100000000       -0.41866600000000       -4.63006000000000
H           45.83866200000000        0.39831400000000       -0.79410400000000
H           45.69181300000000        2.99260300000000       -4.39655200000000
H           45.72767200000000        3.82789000000000       -6.72074600000000
H           44.18670500000000        2.06626100000000       -9.48549600000000
H           44.86117900000000        3.52048000000000       -8.95809700000000
H           44.01728900000000        0.11158600000000       -8.06669400000000
H           43.99014199999999       -0.70761800000000       -5.73476100000000
H           42.18380700000000        1.36635200000000       -4.26108100000000
H           40.42725000000000        1.03153700000000       -2.42297500000000
198
 energy: -329.813887710281 gnorm: 0.567815488855 xtb: 6.5.1 (b24c23e)
C           21.81493895893837        0.00708574931780        0.01528624920287
C           22.51877071617959       -1.01605962943474        0.88008681629202
C           21.91107934673354       -2.01723090469866        1.63075589407037
C           22.92657186858612       -2.71622610038467        2.31454730905575
C           24.15093073991970       -2.13369864757219        1.98453257761995
N           23.87831432786304       -1.12717549032643        1.08154619995028
C           25.53791822870325       -2.50739594842044        2.53854619039807
C           25.60735201221161       -3.46189661449407        3.68553643799780
C           25.86218302091802       -4.82146042670808        3.47333867632672
C           25.91600938135267       -5.71083035065320        4.54544839781308
C           25.75320051154417       -5.25308773257436        5.85684889770119
N           25.72483143626191       -6.16073501061961        6.92576863138032
C           25.43777685447338       -3.90586123165319        6.06500533463261
C           25.38473164000988       -3.01611320895047        4.99310762035656
C           26.69433320396511       -1.95545676416448        2.02992009510253
C           28.00231453468937       -2.24351063424220        2.59019443797339
C           28.90906558999456       -1.54388531350623        1.90495933460383
N           26.87893761519083       -1.07853371239633        0.99447744742618
C           28.22115132175922       -0.79151656513001        0.86847388204356
C           28.86642072275847        0.02508497570799       -0.02011197437171
C           28.12252587067035        0.78128634628568       -1.13276032726996
C           28.66752992968825        1.29003432317309       -2.31040557519019
C           27.64705444225756        1.95303815780633       -3.02066500830184
C           26.47147677571060        1.84117511859256       -2.28425331904288
N           26.77410080920216        1.09308676655447       -1.16167773794485
C           25.09411097596213        2.42768330354592       -2.65354135805733
C           25.02531573139376        3.51761011765605       -3.66953819352297
C           24.80015913314713        3.22384743825964       -5.01884016299993
C           24.74955391040674        4.24213632710095       -5.96901767880353
C           24.88096059947881        5.58008093292709       -5.58394624284893
N           24.91057541498742        6.59514510001942       -6.55139400610998
C           25.16271788902502        5.87034214321297       -4.24459657011819
C           25.21610071591326        4.85170172222133       -3.29397559190727
C           23.94579152932499        1.96271331594568       -2.05774968255071
C           22.62112320835837        2.48232403515318       -2.36778977579789
C           21.73400849580406        1.80950781407315       -1.63243101688344
C           22.46913853906288        0.84984473053000       -0.83538929163997
N           23.79378830739607        0.98403948854909       -1.11628848381044
H           20.72717085560928        0.08552522686910        0.07195485348069
H           20.84712630450838       -2.20034182772023        1.67485291471349
H           22.79617430092788       -3.54680489825655        2.99337035559282
H           24.58097394113469       -0.55069761846845        0.62854464609305
H           26.00927413891709       -5.17610576200807        2.45627623129474
H           26.08866087967763       -6.76431484268542        4.34707715676788
H           25.94921663648358       -5.72284807541448        7.81159694206615
H           26.28572067376170       -6.98613519415313        6.74948143368039
H           25.23124539378172       -3.53588293760231        7.06484723122392
H           25.16056925522262       -1.96471432600083        5.16064309285086
H           28.21507833545455       -2.89151234458468        3.41935213114483
H           29.96387039414100       -1.55461311782753        2.09797751033470
H           29.69917958699735        1.19069518008335       -2.61163554861843
H           27.74116256571810        2.46277425201588       -3.96853360549013
H           26.08557313875757        0.77560797216457       -0.48648028989379
H           24.67508575313359        2.18563045492757       -5.31690493546641
H           24.60610978276648        3.98072060440878       -7.01277125266106
H           24.36793673866964        6.36189523775919       -7.37415102955350
H           24.66384789786792        7.50043584843565       -6.16985364362572
H           25.34285508914988        6.89370524264767       -3.92913841499748
H           25.41415792073815        5.08252328864583       -2.24940053820105
H           22.39241373365763        3.26751107856965       -3.06218151228725
H           20.66980866766813        1.94983621100762       -1.62538817272250
C           68.27693319374269        0.02427732852197       -0.00642968315235
C           67.57311161262534        0.63169613849338       -1.20040170755032
C           68.18079137117134        1.13311127899925       -2.34694373007002
C           67.16532135810316        1.63860111804053       -3.18396362386858
C           65.94090873984482        1.45080105328413       -2.54133056069503
N           66.21355689523210        0.80235993925721       -1.35473749237273
C           64.55397342599505        1.90442626004565       -3.03193180776819
C           64.48451901476275        2.80232518824516       -4.22383120877936
C           64.22969528319787        2.28437043592622       -5.49865255794547
C           64.17586579792443        3.12426133138826       -6.60995725118530
C           64.33867741075191        4.50563612926938       -6.46475944753231
N           64.36705079170149        5.33824764612301       -7.59313735051879
C           64.65409931324710        5.01685479985964       -5.20104017071646
C           64.70714021016575        4.17724849054852       -4.08942275539706
C           63.39746968181784        1.53570092656611       -2.37805802973892
C           62.08958417084113        2.01518624275498       -2.78693185063463
C           61.18274608729052        1.50847964757724       -1.94907435924859
N           63.21245515555802        0.72862489989621       -1.28709267474866
C           61.86955084652403        0.67176593207017       -0.97889372752232
C           61.22064085940200       -0.00558963838192        0.01909827663927
C           61.96842913213736       -0.91555964480299        1.01020736141377
C           61.42426685050620       -1.94571758210180        1.77517682070067
C           62.44482655376414       -2.48522227712857        2.58317626976014
C           63.62031164164983       -1.79400576278645        2.30551888149310
N           63.31743217710484       -0.87257182564222        1.32007148262167
C           64.99777057735001       -2.01915344060576        2.96110762632544
C           65.06655175337931       -2.75847420452855        4.25482166093968
C           65.29171183817513       -4.13919750799176        4.27793275942170
C           65.34232317266947       -4.83087358244191        5.48679335667000
C           65.21091559192530       -4.14957632960164        6.70095998696211
N           65.18129690966971       -4.85880009072848        7.91064507205555
C           64.92915750630547       -2.77935266521788        6.67672503274889
C           64.87578048341503       -2.08732914374134        5.46741908676668
C           66.14606962024952       -1.54571472103753        2.37207279756919
C           67.47075482473264       -1.72849124028309        2.94888970742318
C           68.35786169651539       -1.16679646424985        2.12552321883287
C           67.62270402482784       -0.61076548950882        1.00879974703339
N           66.29810048478842       -0.85342166949304        1.20376855919610
H           69.36470413337751        0.09739232758882        0.05696815323704
H           69.24474874699627        1.13408282104417       -2.53527741595884
H           67.29570655222744        2.10912755121209       -4.14795345208139
H           65.51090519877133        0.49344878687446       -0.68982429573298
H           64.08260317414658        1.21311335382233       -5.61091167170415
H           64.00321591242539        2.68985646843169       -7.58999794334175
H           64.14265794758190        6.30081914978638       -7.36978516739822
H           63.80615434572983        4.97757934150751       -8.35620181245582
H           64.86063116333588        6.07486153628645       -5.06991893874809
H           64.93130685013647        4.58116661670613       -3.10435349671361
H           61.87682072618300        2.67387996155393       -3.60764956291743
H           60.12806075462638        1.69391515811707       -2.00370468127252
H           60.39271101179367       -2.26175179572955        1.74750184771003
H           62.35072551899932       -3.29114102635557        3.29650156532298
H           64.00623042876346       -0.28811250030838        0.85657477710122
H           65.41679127652486       -4.66715261512028        3.33559393538789
H           65.48576673885385       -5.90675675204744        5.47140618436842
H           65.72394053594371       -5.71310740200735        7.87204901104021
H           65.42803192664087       -4.28003970073460        8.70446760319356
H           64.74902046500713       -2.23787316718924        7.60062353659093
H           64.67771789333602       -1.01765476145872        5.45283726189049
H           67.69946529860184       -2.22456781754242        3.87225536852496
H           69.42206740340325       -1.12779439305612        2.26050521806830
C           31.41191209908365        0.02718992852958        0.01216420118555
C           32.76393679055870        0.00480421705337       -0.00617317309705
C           34.02305323961784       -0.01638653872398       -0.00737576881046
C           35.31435021310987       -0.02826887891108       -0.00939100441808
C           36.58785924923841       -0.01825723450429       -0.01477202934010
C           37.80653802287119        0.00219991904610       -0.02075110715855
C           39.08457377352986        0.02636264988535       -0.00294299613967
C           40.28061821041651        0.02433179702573        0.02571708854745
C           49.81480468712552        0.03196373488037       -0.00158475495013
C           51.12257561679787        0.00847551173435       -0.00837354809201
C           52.35591007397749       -0.01608259168632       -0.00637040057481
C           53.64596507238961       -0.02889800677637       -0.00942994512387
C           54.92011551545009       -0.01849116850589       -0.01438611482533
C           56.13986750715947        0.00128133992225       -0.02074954164944
C           57.45996914335377        0.02543578563072       -0.00533448178141
C           58.67407654079916        0.02636937434724        0.01253456023745
C           41.54935293776300       -0.04634477192208        0.01018651807747
C           42.26968847619388       -0.61895798483406        1.22742071390411
C           41.75613099339024       -1.42668745313175        2.23127613274101
C           42.78890165212800       -1.63857745374359        3.17287675651402
C           43.91542916033141       -0.96051228463326        2.72716155996348
N           43.59462560658979       -0.40414403268012        1.50829008913054
C           45.27102658634146       -0.83041848143453        3.45501794672216
C           45.28073573808256       -0.92436621120518        4.94292497210379
C           45.74549689142146       -2.07445496187589        5.59229699132338
C           45.73786154776217       -2.15785790439843        6.98372890895688
C           45.30043731486803       -1.07846933042318        7.75837737549050
N           45.21671191843566       -1.19493623441702        9.15275775350663
C           44.77855517310712        0.04587929764387        7.11000308340559
C           44.78487410701432        0.12938133326662        5.71857033055087
C           46.42608203321462       -0.59199505179032        2.76114859697223
C           47.71211113019892       -0.40444470267609        3.40535736210314
C           48.62193425405016       -0.18400624600599        2.45243675025015
N           46.62345348340883       -0.46423720564642        1.40837331519027
C           47.92137825287485       -0.22498595079779        1.18613457663854
C           48.55313897080669       -0.03969018247819       -0.02839549947860
C           47.81823982359004       -0.08554465064449       -1.37873150647204
C           48.33529015927539       -0.43247908081173       -2.61386857274358
C           47.30217471217065       -0.25508905785467       -3.56319594059675
C           46.17631851320694        0.19278686697037       -2.88685714902608
N           46.49648191115639        0.22471662038416       -1.54739037971812
C           44.82124661290616        0.59920360215817       -3.50388490952535
C           44.81121679695784        1.09905858026414       -4.90814201253413
C           45.30478452599242        2.37407654908320       -5.20587812365851
C           45.31067543080486        2.84537561515549       -6.51770922961303
C           44.79073360799999        2.06622684166986       -7.55669287065110
N           44.87423728749135        2.50847748206214       -8.88427202020026
C           44.35564064204991        0.76815633610645       -7.26997372662002
C           44.34829467816700        0.29684823970074       -5.95819438905074
C           43.66569521517450        0.54444224616912       -2.77013914185307
C           42.37865663986658        0.97089605677224       -3.28889088087043
C           41.46882992066440        0.79791515768514       -2.32760901709125
C           42.16474439875289        0.25935233891468       -1.17280740408037
N           43.47040216593812        0.12970560579999       -1.47936571830494
H           40.74597775734239       -1.80688317161342        2.28366031546784
H           42.72690478877733       -2.20848385239535        4.08820268666289
H           44.25313789332043        0.05222398227682        0.88664190629661
H           46.10466226181046       -2.90820613862454        4.99342438486398
H           46.07805419014559       -3.07339785696496        7.45779498875897
H           45.90407139298137       -1.83552027689886        9.53125939056143
H           45.22736841492581       -0.29554590131506        9.61874535776230
H           44.36095269077662        0.86775177350009        7.68353453890347