      -----------------------------------------------------------      
     |                   =====================                   |     
     |                           x T B                           |     
     |                   =====================                   |     
     |                         S. Grimme                         |     
     |          Mulliken Center for Theoretical Chemistry        |     
     |                    University of Bonn                     |     
      -----------------------------------------------------------      

   * xtb version 6.5.1 (b24c23e) compiled by 'conda@728c89f4b128' on 2022-07-12

   xtb is free software: you can redistribute it and/or modify it under
   the terms of the GNU Lesser General Public License as published by
   the Free Software Foundation, either version 3 of the License, or
   (at your option) any later version.
   
   xtb is distributed in the hope that it will be useful,
   but WITHOUT ANY WARRANTY; without even the implied warranty of
   MERCHANTABILITY or FITNESS FOR A PARTICULAR PURPOSE.  See the
   GNU Lesser General Public License for more details.
   
   Cite this work as:
   * C. Bannwarth, E. Caldeweyher, S. Ehlert, A. Hansen, P. Pracht,
     J. Seibert, S. Spicher, S. Grimme, WIREs Comput. Mol. Sci., 2020, 11,
     e01493. DOI: 10.1002/wcms.1493
   
   for GFN2-xTB:
   * C. Bannwarth, S. Ehlert and S. Grimme., J. Chem. Theory Comput., 2019,
     15, 1652-1671. DOI: 10.1021/acs.jctc.8b01176
   for GFN1-xTB:
   * S. Grimme, C. Bannwarth, P. Shushkov, J. Chem. Theory Comput., 2017,
     13, 1989-2009. DOI: 10.1021/acs.jctc.7b00118
   for GFN0-xTB:
   * P. Pracht, E. Caldeweyher, S. Ehlert, S. Grimme, ChemRxiv, 2019, preprint.
     DOI: 10.26434/chemrxiv.8326202.v1
   for GFN-FF:
   * S. Spicher and S. Grimme, Angew. Chem. Int. Ed., 2020, 59, 15665-15673.
     DOI: 10.1002/anie.202004239
   
   for ALPB and GBSA implicit solvation:
   * S. Ehlert, M. Stahn, S. Spicher, S. Grimme, J. Chem. Theory Comput.,
     2021, 17, 4250-4261. DOI: 10.1021/acs.jctc.1c00471
   
   for DFT-D4:
   * E. Caldeweyher, C. Bannwarth and S. Grimme, J. Chem. Phys., 2017,
     147, 034112. DOI: 10.1063/1.4993215
   * E. Caldeweyher, S. Ehlert, A. Hansen, H. Neugebauer, S. Spicher,
     C. Bannwarth and S. Grimme, J. Chem. Phys., 2019, 150, 154122.
     DOI: 10.1063/1.5090222
   * E. Caldeweyher, J.-M. Mewes, S. Ehlert and S. Grimme, Phys. Chem. Chem. Phys.
     2020, 22, 8499-8512. DOI: 10.1039/D0CP00502A
   
   for sTDA-xTB:
   * S. Grimme and C. Bannwarth, J. Chem. Phys., 2016, 145, 054103.
     DOI: 10.1063/1.4959605
   
   in the mass-spec context:
   * V. Asgeirsson, C. Bauer and S. Grimme, Chem. Sci., 2017, 8, 4879.
     DOI: 10.1039/c7sc00601b
   * J. Koopman and S. Grimme, ACS Omega 2019, 4, 12, 15120-15133.
     DOI: 10.1021/acsomega.9b02011
   
   for metadynamics refer to:
   * S. Grimme, J. Chem. Theory Comput., 2019, 155, 2847-2862
     DOI: 10.1021/acs.jctc.9b00143
   
   for SPH calculations refer to:
   * S. Spicher and S. Grimme, J. Chem. Theory Comput., 2021, 17, 1701-1714
     DOI: 10.1021/acs.jctc.0c01306
   
   with help from (in alphabetical order)
   P. Atkinson, C. Bannwarth, F. Bohle, G. Brandenburg, E. Caldeweyher
   M. Checinski, S. Dohm, S. Ehlert, S. Ehrlich, I. Gerasimov, C. Hölzer
   A. Katbashev, J. Koopman, C. Lavigne, S. Lehtola, F. März, M. Müller,
   F. Musil, H. Neugebauer, J. Pisarek, C. Plett, P. Pracht, F. Pultar,
   J. Seibert, P. Shushkov, S. Spicher, M. Stahn, M. Steiner, T. Strunk,
   J. Stückrath, T. Rose, and J. Unsleber
   
 * started run on 2022/07/29 at 07:02:06.775     

           -------------------------------------------------
          |                Calculation Setup                |
           -------------------------------------------------

          program call               : xtb C2Py_C8_8.xyz --gfn 1 --opt -T 48
          hostname                   : cx3-14-14.cx3.hpc.ic.ac.uk
          coordinate file            : C2Py_C8_8.xyz
          omp threads                :                     1

   ID    Z sym.   atoms
    1    6 C      1-5, 7-12, 14-18, 20-25, 27-32, 34-39, 60-64, 66-71, 73-77,
                  79-84, 86-91, 93-98, 119-179, 181-186, 188-192, 194-199,
                  201-206, 208-213, 233-237, 239-244, 246-250, 252-257,
                  259-264, 266-271, 291-295, 297-302, 304-308, 310-315,
                  317-322, 324-329, 349-353, 355-360, 362-366, 368-373,
                  375-380, 382-387, 407-411, 413-418, 420-424, 426-431,
                  433-438, 440-445, 465-469, 471-476, 478-482, 484-489,
                  491-496, 498-503
    2    7 N      6, 13, 19, 26, 33, 40, 65, 72, 78, 85, 92, 99, 180, 187,
                  193, 200, 207, 214, 238, 245, 251, 258, 265, 272, 296, 303,
                  309, 316, 323, 330, 354, 361, 367, 374, 381, 388, 412, 419,
                  425, 432, 439, 446, 470, 477, 483, 490, 497, 504
    3    1 H      41-59, 100-118, 215-232, 273-290, 331-348, 389-406,
                  447-464, 505-522

molecular fragmentation (1/2 indicates fragments):
111111111111111111111111111111111111111111111111111111111112222222222222
222222222222222222222222222222222222222222222222222222222222222222222222
222222222222222222222222222222222222222222222222222222222222222222222222
222222222222222222222222222222222222222222222222222222222222222222222222
222222222222222222222222222222222222222222222222222222222222222222222222
222222222222222222222222222222222222222222222222222222222222222222222222
222222222222222222222222222222222222222222222222222222222222222222222222
222222222222222222
# atoms in fragment 1/2:    59   463
 fragment masses (1/2) :      511.56     4247.45
CMA distance (Bohr)    : 139.134
constraining FC (au)   :  0.0500
########################################################################
[WARNING] Please study the warnings concerning your input carefully
-1- prog_main_parseArguments: Unknown option '-T' provided
########################################################################

           -------------------------------------------------
          |                 G F N 1 - x T B                 |
           -------------------------------------------------

        Reference                      10.1021/acs.jctc.7b00118
      * Hamiltonian:
        H0-scaling (s, p, d)           1.850000    2.250000    2.000000
        zeta-weighting                 0.000000
      * Dispersion:
        s8                             2.400000
        a1                             0.630000
        a2                             5.000000
        s9                             0.000000
      * Repulsion:
        kExp                           1.500000
        rExp                           1.000000
      * Coulomb:
        alpha                          2.000000
        third order                    atomic
        anisotropic                    false
      * Halogen bond correction:
        rad-scale                      1.300000
        damping                        0.440000


          ...................................................
          :                      SETUP                      :
          :.................................................:
          :  # basis functions                1796          :
          :  # atomic orbitals                1796          :
          :  # shells                         1044          :
          :  # electrons                      1698          :
          :  # halogen bonds                     0          :
          :  max. iterations                   250          :
          :  Hamiltonian                  GFN1-xTB          :
          :  restarted?                      false          :
          :  GBSA solvation                  false          :
          :  PC potential                    false          :
          :  electronic temp.          300.0000000     K    :
          :  accuracy                    1.0000000          :
          :  -> integral cutoff          0.2500000E+02      :
          :  -> integral neglect         0.1000000E-07      :
          :  -> SCF convergence          0.1000000E-05 Eh   :
          :  -> wf. convergence          0.2000000E-04 e    :
          :  Broyden damping             0.4000000          :
          ...................................................

 iter      E             dE          RMSdq      gap      omega  full diag
   1   -937.8592503 -0.937859E+03  0.107E+01    0.02       0.0  T
   2   -928.6698987  0.918935E+01  0.668E+00    0.02       1.0  T
   3   1646.0456284  0.257472E+04  0.123E+01    0.02       1.0  T
   4   7031.1874960  0.538514E+04  0.181E+01    0.00       1.0  T
   5   1914.2592260 -0.511693E+04  0.130E+01    0.01       1.0  T
   6   -647.9361778 -0.256220E+04  0.574E+00    0.04       1.0  T
   7   -729.2087220 -0.812725E+02  0.511E+00    0.02       1.0  T
   8   -843.6463626 -0.114438E+03  0.377E+00    0.05       1.0  T
   9   -882.9430004 -0.392966E+02  0.285E+00    0.02       1.0  T
  10   -816.2079533  0.667350E+02  0.336E+00    0.03       1.0  T
  11   -845.8580719 -0.296501E+02  0.309E+00    0.01       1.0  T
  12   -838.6293510  0.722872E+01  0.286E+00    0.02       1.0  T
  13   -832.6771473  0.595220E+01  0.291E+00    0.00       1.0  T
  14   -826.0602432  0.661690E+01  0.291E+00    0.00       1.0  T
  15   -828.6263646 -0.256612E+01  0.290E+00    0.03       1.0  T
  16   -797.0064321  0.316199E+02  0.320E+00    0.02       1.0  T
  17   -759.8193234  0.371871E+02  0.351E+00    0.00       1.0  T
  18   -772.5696587 -0.127503E+02  0.351E+00    0.04       1.0  T
  19   -778.1953173 -0.562566E+01  0.348E+00    0.00       1.0  T
  20   -765.8447180  0.123506E+02  0.355E+00    0.01       1.0  T
  21   -767.1297142 -0.128500E+01  0.355E+00    0.00       1.0  T
  22   -792.1938344 -0.250641E+02  0.335E+00    0.01       1.0  T
  23   -836.3256219 -0.441318E+02  0.301E+00    0.01       1.0  T
  24   -867.4867526 -0.311611E+02  0.271E+00    0.00       1.0  T
  25   -911.2459815 -0.437592E+02  0.203E+00    0.01       1.0  T
  26   -926.0463972 -0.148004E+02  0.165E+00    0.03       1.0  T
  27   -926.7989408 -0.752544E+00  0.180E+00    0.05       1.0  T
  28   -933.9072847 -0.710834E+01  0.128E+00    0.03       1.0  T
  29   -932.8902718  0.101701E+01  0.144E+00    0.02       1.0  T
  30   -935.5894108 -0.269914E+01  0.121E+00    0.05       1.0  T
  31   -936.7695177 -0.118011E+01  0.103E+00    0.04       1.0  T
  32   -935.4577136  0.131180E+01  0.134E+00    0.04       1.0  T
  33   -937.0899401 -0.163223E+01  0.105E+00    0.13       1.0  T
  34   -937.0526320  0.373080E-01  0.110E+00    0.05       1.0  T
  35   -937.1767544 -0.124122E+00  0.108E+00    0.02       1.0  T
  36   -936.4447920  0.731962E+00  0.118E+00    0.02       1.0  T
  37   -936.7917148 -0.346923E+00  0.104E+00    0.00       1.0  T
  38   -936.2876163  0.504098E+00  0.107E+00    0.05       1.0  T
  39   -936.2923164 -0.470009E-02  0.107E+00    0.06       1.0  T
  40   -936.2418062  0.505102E-01  0.108E+00    0.09       1.0  T
  41   -936.2940317 -0.522254E-01  0.107E+00    0.09       1.0  T
  42   -937.0433537 -0.749322E+00  0.959E-01    0.05       1.0  T
  43   -937.5015781 -0.458224E+00  0.825E-01    0.03       1.0  T
  44   -935.8246911  0.167689E+01  0.984E-01    0.05       1.0  T
  45   -936.5064884 -0.681797E+00  0.820E-01    0.06       1.0  T
  46   -937.0481292 -0.541641E+00  0.712E-01    0.02       1.0  T
  47   -938.4651917 -0.141706E+01  0.479E-01    0.05       1.0  T
  48   -938.4452668  0.199249E-01  0.403E-01    0.00       1.0  T
  49   -938.4391299  0.613690E-02  0.382E-01    0.04       1.0  T
  50   -938.3257910  0.113339E+00  0.416E-01    0.01       1.0  T
  51   -938.4442409 -0.118450E+00  0.344E-01    0.04       1.0  T
  52   -938.6344495 -0.190209E+00  0.331E-01    0.01       1.0  T
  53   -938.7637530 -0.129303E+00  0.429E-01    0.01       1.0  T
  54   -938.7782248 -0.144718E-01  0.342E-01    0.05       1.0  T
  55   -938.6657018  0.112523E+00  0.452E-01    0.06       1.0  T
  56   -938.8427573 -0.177056E+00  0.345E-01    0.03       1.0  T
  57   -938.7413582  0.101399E+00  0.383E-01    0.05       1.0  T
  58   -938.8716317 -0.130273E+00  0.317E-01    0.03       1.0  T
  59   -938.8711557  0.475914E-03  0.313E-01    0.03       1.0  T
  60   -938.9346137 -0.634580E-01  0.271E-01    0.00       1.0  T
  61   -938.9590821 -0.244684E-01  0.244E-01    0.00       1.0  T
  62   -938.9725953 -0.135132E-01  0.223E-01    0.01       1.0  T
  63   -939.0077218 -0.351265E-01  0.157E-01    0.01       1.0  T
  64   -939.0037172  0.400460E-02  0.153E-01    0.01       1.0  T
  65   -939.0089418 -0.522459E-02  0.145E-01    0.02       1.0  T
  66   -939.0166740 -0.773225E-02  0.123E-01    0.02       1.0  T
  67   -939.0247175 -0.804346E-02  0.110E-01    0.01       1.0  T
  68   -939.0279668 -0.324934E-02  0.110E-01    0.01       1.0  T
  69   -939.0326748 -0.470797E-02  0.833E-02    0.01       1.0  T
  70   -939.0368311 -0.415628E-02  0.610E-02    0.01       1.0  T
  71   -939.0395494 -0.271832E-02  0.550E-02    0.00       1.0  T
  72   -939.0397322 -0.182826E-03  0.497E-02    0.01       1.0  T
  73   -939.0407864 -0.105412E-02  0.536E-02    0.00       1.0  T
  74   -939.0408958 -0.109435E-03  0.499E-02    0.00       1.0  T
  75   -939.0430033 -0.210750E-02  0.352E-02    0.00       1.0  T
  76   -939.0433646 -0.361284E-03  0.332E-02    0.00       1.0  T
  77   -939.0436807 -0.316095E-03  0.294E-02    0.00       1.0  T
  78   -939.0440809 -0.400198E-03  0.237E-02    0.00       1.0  T
  79   -939.0444215 -0.340642E-03  0.199E-02    0.00       1.0  T
  80   -939.0445607 -0.139189E-03  0.171E-02    0.00       1.0  T
  81   -939.0446775 -0.116773E-03  0.153E-02    0.00       1.0  T
  82   -939.0448379 -0.160394E-03  0.116E-02    0.00       1.0  T
  83   -939.0449135 -0.756726E-04  0.912E-03    0.00       1.0  T
  84   -939.0448811  0.324676E-04  0.985E-03    0.00       1.0  T
  85   -939.0449367 -0.556458E-04  0.798E-03    0.00       1.0  T
  86   -939.0449506 -0.138713E-04  0.737E-03    0.00       1.0  T
  87   -939.0449744 -0.238149E-04  0.634E-03    0.00       1.0  T
  88   -939.0449739  0.544454E-06  0.613E-03    0.00       1.0  T
  89   -939.0449977 -0.238912E-04  0.488E-03    0.00       1.0  T
  90   -939.0450020 -0.426848E-05  0.461E-03    0.00       1.0  T
  91   -939.0450095 -0.745851E-05  0.399E-03    0.00       1.1  T
  92   -939.0450229 -0.134082E-04  0.253E-03    0.00       1.7  T
  93   -939.0450241 -0.120922E-05  0.192E-03    0.00       2.3  T
  94   -939.0450252 -0.106114E-05  0.165E-03    0.00       2.6  T
  95   -939.0450288 -0.364485E-05  0.129E-03    0.00       3.4  T
  96   -939.0450287  0.932408E-07  0.121E-03    0.00       3.6  T
  97   -939.0450310 -0.232638E-05  0.996E-04    0.00       4.4  T
  98   -939.0450315 -0.436145E-06  0.839E-04    0.00       5.2  T
  99   -939.0450322 -0.782701E-06  0.698E-04    0.00       6.3  T
 100   -939.0450326 -0.360381E-06  0.556E-04    0.00       7.9  T
 101   -939.0450329 -0.304634E-06  0.429E-04    0.00      10.2  T
 102   -939.0450330 -0.107149E-06  0.350E-04    0.00      12.5  T
 103   -939.0450331 -0.423094E-07  0.320E-04    0.00      13.7  T
 104   -939.0450331 -0.406617E-07  0.318E-04    0.00      13.7  T
 105   -939.0450332 -0.539984E-07  0.249E-04    0.00      17.6  T
 106   -939.0450332 -0.448858E-07  0.174E-04    0.00      25.1  T
 107   -939.0450332 -0.226420E-07  0.150E-04    0.00      29.3  T

   *** convergence criteria satisfied after 107 iterations ***

         #    Occupation            Energy/Eh            Energy/eV
      -------------------------------------------------------------
         1        2.0000           -0.8086553             -22.0046
       ...           ...                  ...                  ...
       843        2.0000           -0.3854998             -10.4900
       844        2.0000           -0.3846445             -10.4667
       845        2.0000           -0.3834832             -10.4351
       846        2.0000           -0.3832766             -10.4295
       847        2.0000           -0.3830617             -10.4236
       848        1.9999           -0.3812978             -10.3756
       849        0.7235           -0.3709017             -10.0927 (HOMO)
       850        0.6999           -0.3708528             -10.0914 (LUMO)
       851        0.3758           -0.3700505             -10.0696
       852        0.2006           -0.3693568             -10.0507
       853        0.0002           -0.3628625              -9.8740
       854        0.0000           -0.3611954              -9.8286
       ...           ...                  ...                  ...
      1796                          2.3944273              65.1557
      -------------------------------------------------------------
                  HL-Gap            0.0000489 Eh            0.0013 eV
             Fermi-level           -0.3714411 Eh          -10.1074 eV

 SCC (total)                   0 d,  0 h,  5 min, 48.224 sec
 SCC setup                      ...        0 min,  0.082 sec (  0.024%)
 Dispersion                     ...        0 min,  0.039 sec (  0.011%)
 classical contributions        ...        0 min,  0.007 sec (  0.002%)
 integral evaluation            ...        0 min,  0.974 sec (  0.280%)
 iterations                     ...        5 min, 44.107 sec ( 98.818%)
 molecular gradient             ...        0 min,  2.344 sec (  0.673%)
 printout                       ...        0 min,  0.669 sec (  0.192%)

         :::::::::::::::::::::::::::::::::::::::::::::::::::::
         ::                     SUMMARY                     ::
         :::::::::::::::::::::::::::::::::::::::::::::::::::::
         :: total energy            -919.587599091693 Eh    ::
         :: gradient norm              2.994893593936 Eh/a0 ::
         :: HOMO-LUMO gap              0.001329306200 eV    ::
         ::.................................................::
         :: SCC energy              -939.045033224970 Eh    ::
         :: -> electrostatic           0.732811354933 Eh    ::
         :: repulsion energy          19.863654064300 Eh    ::
         :: dispersion energy         -0.406219931023 Eh    ::
         :: halogen bond corr.         0.000000000000 Eh    ::
         :: add. restraining           0.000000000000 Eh    ::
         :: total charge              -0.000000000003 e     ::
         :::::::::::::::::::::::::::::::::::::::::::::::::::::

      ----------------------------------------------------------- 
     |                       L-ANC optimizer                     |
      ----------------------------------------------------------- 
          low memory version by Sebastian Ehlert

          ...................................................
          :                      SETUP                      :
          :.................................................:
          :   energy convergence        0.5000000E-05 Eh    :
          :   grad. convergence         0.1000000E-02 Eh/a0 :
          :   optimization log               true           :
          :   writing optlog all                1     steps :
          :   Hessian reset                    20     steps :
          :   maximium step len.        1.0000000     a0    :
          :   LBFGS images                     20           :
          ...................................................
 * calculating model hessian...
Using Lindh-Hessian (1995)
 Shifting diagonal of input Hessian by    1.0015681212971686E-002
 Lowest  eigenvalues of input Hessian
    0.010000    0.010002    0.010007    0.010009    0.010011    0.010012
    0.010013    0.010014    0.010014    0.010014    0.010015    0.010015
    0.010015    0.010015    0.010016    0.000000    0.000000    0.000000
 Highest eigenvalues
    3.505201    3.505502    3.505505    3.505505    3.505509    3.505511


........................................................................
.............................. CYCLE    1 ..............................
........................................................................
   1   -938.8062505 -0.938806E+03  0.190E-01    0.04       0.0  T
   2   -937.9122159  0.894035E+00  0.626E-01    0.10       1.0  T
   3   -938.5723429 -0.660127E+00  0.344E-01    0.08       1.0  T
   4   -938.7119994 -0.139657E+00  0.201E-01    0.23       1.0  T
   5   -938.6738754  0.381240E-01  0.244E-01    0.02       1.0  T
   6   -938.7336093 -0.597338E-01  0.195E-01    0.14       1.0  T
   7   -938.7875518 -0.539425E-01  0.137E-01    0.04       1.0  T
   8   -938.8257445 -0.381927E-01  0.774E-02    0.04       1.0  T
   9   -938.7785992  0.471453E-01  0.146E-01    0.02       1.0  T
  10   -938.7195495  0.590497E-01  0.181E-01    0.02       1.0  T
  11   -938.8142705 -0.947210E-01  0.108E-01    0.05       1.0  T
  12   -938.8346515 -0.203810E-01  0.703E-02    0.03       1.0  T
  13   -938.8474210 -0.127695E-01  0.376E-02    0.01       1.0  T
  14   -938.8477542 -0.333207E-03  0.289E-02    0.01       1.0  T
  15   -938.8501721 -0.241783E-02  0.158E-02    0.01       1.0  T
  16   -938.8505406 -0.368471E-03  0.933E-03    0.01       1.0  T
  17   -938.8506599 -0.119349E-03  0.567E-03    0.01       1.0  T
  18   -938.8506868 -0.269376E-04  0.378E-03    0.01       1.2  T
  19   -938.8507152 -0.283397E-04  0.231E-03    0.01       1.9  T
  20   -938.8507217 -0.654949E-05  0.148E-03    0.01       3.0  T
  21   -938.8507294 -0.765316E-05  0.454E-04    0.01       9.6  T
  22   -938.8507286  0.776382E-06  0.565E-04    0.01       7.7  T
  23   -938.8507289 -0.246443E-06  0.472E-04    0.01       9.3  T
  24   -938.8507298 -0.954594E-06  0.785E-05    0.01      55.7  T
  25   -938.8507298  0.223689E-07  0.986E-05    0.01      44.4  T
     SCC iter.                  ...        1 min, 20.796 sec
     gradient                   ...        0 min,  2.650 sec
 * total energy  :  -920.9325059 Eh     change       -0.1344907E+01 Eh
   gradient norm :     1.3597366 Eh/a0  converged?    E=F G=F D=F
   step length   :     0.6540874 a0

........................................................................
.............................. CYCLE    2 ..............................
........................................................................
   1   -938.9099965 -0.938910E+03  0.109E-01    0.03       0.0  T
   2   -937.9868703  0.923126E+00  0.633E-01    0.04       1.0  T
   3   -938.8956805 -0.908810E+00  0.102E-01    0.04       1.0  T
   4   -938.8383391  0.573414E-01  0.157E-01    0.10       1.0  T
   5   -938.5544366  0.283903E+00  0.352E-01    0.09       1.0  T
   6   -938.8795293 -0.325093E+00  0.136E-01    0.03       1.0  T
   7   -938.8665317  0.129977E-01  0.127E-01    0.04       1.0  T
   8   -938.9172603 -0.507286E-01  0.705E-02    0.02       1.0  T
   9   -938.9195119 -0.225166E-02  0.596E-02    0.02       1.0  T
  10   -938.9192980  0.213948E-03  0.560E-02    0.02       1.0  T
  11   -938.9225183 -0.322031E-02  0.472E-02    0.02       1.0  T
  12   -938.9242820 -0.176374E-02  0.409E-02    0.02       1.0  T
  13   -938.9258172 -0.153515E-02  0.338E-02    0.02       1.0  T
  14   -938.9263012 -0.483988E-03  0.310E-02    0.02       1.0  T
  15   -938.9278244 -0.152319E-02  0.201E-02    0.02       1.0  T
  16   -938.9287596 -0.935186E-03  0.479E-03    0.02       1.0  T
  17   -938.9288018 -0.422670E-04  0.384E-03    0.02       1.1  T
  18   -938.9288401 -0.382781E-04  0.155E-03    0.02       2.8  T
  19   -938.9288450 -0.491456E-05  0.813E-04    0.02       5.4  T
  20   -938.9288475 -0.247681E-05  0.281E-04    0.02      15.6  T
  21   -938.9288469  0.594198E-06  0.514E-04    0.02       8.5  T
  22   -938.9288477 -0.759864E-06  0.119E-04    0.02      36.8  T
  23   -938.9288477 -0.284122E-07  0.542E-05    0.02      80.7  T
     SCC iter.                  ...        1 min, 14.869 sec
     gradient                   ...        0 min,  2.335 sec
 * total energy  :  -921.3250898 Eh     change       -0.3925838E+00 Eh
   gradient norm :     1.0293264 Eh/a0  converged?    E=F G=F D=F
   step length   :     3.2573049 a0

........................................................................
.............................. CYCLE    3 ..............................
........................................................................
   1   -938.9728833 -0.938973E+03  0.636E-02    0.05       0.0  T
   2   -938.4456906  0.527193E+00  0.443E-01    0.12       1.0  T
   3   -938.9690798 -0.523389E+00  0.744E-02    0.05       1.0  T
   4   -938.9579285  0.111512E-01  0.784E-02    0.08       1.0  T
   5   -938.9589129 -0.984374E-03  0.688E-02    0.08       1.0  T
   6   -938.9712513 -0.123384E-01  0.491E-02    0.06       1.0  T
   7   -938.9696012  0.165015E-02  0.547E-02    0.06       1.0  T
   8   -938.9584341  0.111671E-01  0.777E-02    0.06       1.0  T
   9   -938.9759070 -0.174730E-01  0.331E-02    0.05       1.0  T
  10   -938.9787280 -0.282100E-02  0.117E-02    0.05       1.0  T
  11   -938.9790084 -0.280367E-03  0.707E-03    0.05       1.0  T
  12   -938.9791104 -0.101971E-03  0.337E-03    0.05       1.3  T
  13   -938.9791399 -0.295341E-04  0.157E-03    0.05       2.8  T
  14   -938.9791515 -0.116466E-04  0.481E-04    0.05       9.1  T
  15   -938.9791521 -0.558536E-06  0.213E-04    0.05      20.5  T
  16   -938.9791521  0.327268E-07  0.217E-04    0.05      20.2  T
  17   -938.9791521 -0.244595E-07  0.178E-04    0.05      24.6  T
  18   -938.9791522 -0.985274E-07  0.765E-05    0.05      57.2  T
     SCC iter.                  ...        0 min, 57.456 sec
     gradient                   ...        0 min,  2.336 sec
 * total energy  :  -921.5250971 Eh     change       -0.2000073E+00 Eh
   gradient norm :     0.8751812 Eh/a0  converged?    E=F G=F D=F
   step length   :     7.7370750 a0

........................................................................
.............................. CYCLE    4 ..............................
........................................................................
   1   -939.0109693 -0.939011E+03  0.371E-02    0.08       0.0  T
   2   -939.0085462  0.242307E-02  0.557E-02    0.08       1.0  T
   3   -939.0060693  0.247694E-02  0.417E-02    0.08       1.0  T
   4   -939.0005405  0.552882E-02  0.540E-02    0.09       1.0  T
   5   -939.0111320 -0.105915E-01  0.215E-02    0.08       1.0  T
   6   -939.0115306 -0.398589E-03  0.168E-02    0.08       1.0  T
   7   -939.0122748 -0.744238E-03  0.488E-03    0.08       1.0  T
   8   -939.0123365 -0.616917E-04  0.194E-03    0.08       2.3  T
   9   -939.0123384 -0.186798E-05  0.141E-03    0.08       3.1  T
  10   -939.0123489 -0.105025E-04  0.373E-04    0.08      11.7  T
  11   -939.0123490 -0.143065E-06  0.273E-04    0.08      16.0  T
  12   -939.0123493 -0.251274E-06  0.141E-04    0.08      31.0  T
  13   -939.0123493 -0.595029E-07  0.779E-05    0.08      56.2  T
     SCC iter.                  ...        0 min, 41.945 sec
     gradient                   ...        0 min,  2.379 sec
 * total energy  :  -921.6689492 Eh     change       -0.1438522E+00 Eh
   gradient norm :     0.7775879 Eh/a0  converged?    E=F G=F D=F
   step length   :    28.2514044 a0

........................................................................
.............................. CYCLE    5 ..............................
........................................................................
   1   -939.0425932 -0.939043E+03  0.340E-02    0.11       0.0  T
   2   -939.0423106  0.282598E-03  0.386E-02    0.11       1.0  T
   3   -939.0425063 -0.195697E-03  0.212E-02    0.11       1.0  T
   4   -939.0386318  0.387453E-02  0.372E-02    0.11       1.0  T
   5   -939.0428980 -0.426619E-02  0.162E-02    0.11       1.0  T
   6   -939.0430844 -0.186394E-03  0.124E-02    0.11       1.0  T
   7   -939.0435479 -0.463558E-03  0.353E-03    0.11       1.2  T
   8   -939.0435758 -0.279087E-04  0.142E-03    0.11       3.1  T
   9   -939.0435795 -0.363734E-05  0.827E-04    0.11       5.3  T
  10   -939.0435823 -0.284077E-05  0.262E-04    0.11      16.7  T
  11   -939.0435824 -0.398152E-07  0.195E-04    0.11      22.5  T
  12   -939.0435825 -0.116275E-06  0.108E-04    0.11      40.5  T
     SCC iter.                  ...        0 min, 38.919 sec
     gradient                   ...        0 min,  2.336 sec
 * total energy  :  -921.7965317 Eh     change       -0.1275825E+00 Eh
   gradient norm :     0.6978491 Eh/a0  converged?    E=F G=F D=F
   step length   :    80.0841343 a0

........................................................................
.............................. CYCLE    6 ..............................
........................................................................
   1   -939.0751006 -0.939075E+03  0.325E-02    0.15       0.0  T
   2   -939.0752133 -0.112734E-03  0.350E-02    0.14       1.0  T
   3   -939.0757010 -0.487678E-03  0.154E-02    0.15       1.0  T
   4   -939.0740624  0.163858E-02  0.260E-02    0.15       1.0  T
   5   -939.0756903 -0.162785E-02  0.105E-02    0.15       1.0  T
   6   -939.0757868 -0.964830E-04  0.490E-03    0.15       1.0  T
   7   -939.0758380 -0.512374E-04  0.260E-03    0.15       1.7  T
   8   -939.0758555 -0.175154E-04  0.701E-04    0.15       6.2  T
   9   -939.0758561 -0.562957E-06  0.487E-04    0.15       9.0  T
  10   -939.0758568 -0.744895E-06  0.200E-04    0.15      21.9  T
  11   -939.0758569 -0.980380E-07  0.929E-05    0.15      47.1  T
  12   -939.0758569 -0.799787E-08  0.524E-05    0.15      83.6  T
     SCC iter.                  ...        0 min, 38.100 sec
     gradient                   ...        0 min,  2.350 sec
 * total energy  :  -921.9124073 Eh     change       -0.1158756E+00 Eh
   gradient norm :     0.6281328 Eh/a0  converged?    E=F G=F D=F
   step length   :    92.4715536 a0

........................................................................
.............................. CYCLE    7 ..............................
........................................................................
   1   -939.1100573 -0.939110E+03  0.309E-02    0.19       0.0  T
   2   -939.1102145 -0.157224E-03  0.328E-02    0.18       1.0  T
   3   -939.1105838 -0.369300E-03  0.149E-02    0.18       1.0  T
   4   -939.1099563  0.627552E-03  0.196E-02    0.18       1.0  T
   5   -939.1105266 -0.570320E-03  0.760E-03    0.18       1.0  T
   6   -939.1106121 -0.855258E-04  0.243E-03    0.18       1.8  T
   7   -939.1106228 -0.107258E-04  0.820E-04    0.18       5.3  T
   8   -939.1106240 -0.115158E-05  0.425E-04    0.18      10.3  T
   9   -939.1106244 -0.407936E-06  0.192E-04    0.18      22.8  T
  10   -939.1106245 -0.655713E-07  0.868E-05    0.18      50.4  T
     SCC iter.                  ...        0 min, 33.390 sec
     gradient                   ...        0 min,  2.373 sec
 * total energy  :  -922.0145180 Eh     change       -0.1021107E+00 Eh
   gradient norm :     0.5623190 Eh/a0  converged?    E=F G=F D=F
   step length   :    45.8106098 a0

........................................................................
.............................. CYCLE    8 ..............................
........................................................................
   1   -939.1552396 -0.939155E+03  0.298E-02    0.23       0.0  T
   2   -939.1553533 -0.113650E-03  0.325E-02    0.23       1.0  T
   3   -939.1557282 -0.374861E-03  0.145E-02    0.23       1.0  T
   4   -939.1553952  0.333004E-03  0.170E-02    0.23       1.0  T
   5   -939.1557043 -0.309186E-03  0.511E-03    0.23       1.0  T
   6   -939.1557418 -0.374793E-04  0.168E-03    0.23       2.6  T
   7   -939.1557476 -0.578561E-05  0.538E-04    0.23       8.1  T
   8   -939.1557480 -0.391775E-06  0.216E-04    0.23      20.3  T
   9   -939.1557481 -0.569420E-07  0.104E-04    0.23      42.1  T
  10   -939.1557481 -0.123202E-07  0.550E-05    0.23      79.6  T
     SCC iter.                  ...        0 min, 31.594 sec
     gradient                   ...        0 min,  2.385 sec
 * total energy  :  -922.0999344 Eh     change       -0.8541641E-01 Eh
   gradient norm :     0.4964877 Eh/a0  converged?    E=F G=F D=F
   step length   :    17.1827413 a0

........................................................................
.............................. CYCLE    9 ..............................
........................................................................
   1   -939.2042773 -0.939204E+03  0.256E-02    0.28       0.0  T
   2   -939.2043438 -0.664538E-04  0.282E-02    0.27       1.0  T
   3   -939.2047159 -0.372151E-03  0.110E-02    0.27       1.0  T
   4   -939.2045520  0.163985E-03  0.128E-02    0.27       1.0  T
   5   -939.2047134 -0.161409E-03  0.364E-03    0.27       1.2  T
   6   -939.2047273 -0.139664E-04  0.119E-03    0.27       3.7  T
   7   -939.2047300 -0.262651E-05  0.484E-04    0.27       9.0  T
   8   -939.2047304 -0.395509E-06  0.159E-04    0.27      27.5  T
   9   -939.2047304 -0.258843E-07  0.741E-05    0.27      59.0  T
     SCC iter.                  ...        0 min, 27.656 sec
     gradient                   ...        0 min,  2.353 sec
 * total energy  :  -922.1592839 Eh     change       -0.5934953E-01 Eh
   gradient norm :     0.4380774 Eh/a0  converged?    E=F G=F D=F
   step length   :    10.6486599 a0

........................................................................
.............................. CYCLE   10 ..............................
........................................................................
   1   -939.2830019 -0.939283E+03  0.214E-02    0.33       0.0  T
   2   -939.2830734 -0.715012E-04  0.198E-02    0.33       1.0  T
   3   -939.2833007 -0.227386E-03  0.705E-03    0.33       1.0  T
   4   -939.2832457  0.550008E-04  0.818E-03    0.33       1.0  T
   5   -939.2833175 -0.717471E-04  0.243E-03    0.33       1.8  T
   6   -939.2833217 -0.417017E-05  0.876E-04    0.33       5.0  T
   7   -939.2833230 -0.129628E-05  0.336E-04    0.33      13.0  T
   8   -939.2833231 -0.176929E-06  0.128E-04    0.33      34.1  T
   9   -939.2833232 -0.174829E-07  0.595E-05    0.33      73.5  T
     SCC iter.                  ...        0 min, 28.846 sec
     gradient                   ...        0 min,  2.363 sec
 * total energy  :  -922.2101356 Eh     change       -0.5085164E-01 Eh
   gradient norm :     0.3857261 Eh/a0  converged?    E=F G=F D=F
   step length   :     8.4006612 a0

........................................................................
.............................. CYCLE   11 ..............................
........................................................................
   1   -939.3615625 -0.939362E+03  0.186E-02    0.40       0.0  T
   2   -939.3616745 -0.111986E-03  0.145E-02    0.39       1.0  T
   3   -939.3617989 -0.124448E-03  0.543E-03    0.39       1.0  T
   4   -939.3617698  0.290598E-04  0.651E-03    0.39       1.0  T
   5   -939.3618218 -0.519090E-04  0.201E-03    0.39       2.2  T
   6   -939.3618238 -0.205264E-05  0.745E-04    0.39       5.9  T
   7   -939.3618247 -0.940609E-06  0.308E-04    0.39      14.2  T
   8   -939.3618249 -0.146120E-06  0.110E-04    0.39      39.8  T
   9   -939.3618249 -0.948705E-08  0.455E-05    0.39      96.1  T
     SCC iter.                  ...        0 min, 30.466 sec
     gradient                   ...        0 min,  2.380 sec
 * total energy  :  -922.2517819 Eh     change       -0.4164637E-01 Eh
   gradient norm :     0.3334636 Eh/a0  converged?    E=F G=F D=F
   step length   :     7.6997376 a0

........................................................................
.............................. CYCLE   12 ..............................
........................................................................
   1   -939.4419645 -0.939442E+03  0.166E-02    0.46       0.0  T
   2   -939.4420937 -0.129177E-03  0.108E-02    0.46       1.0  T
   3   -939.4421647 -0.709866E-04  0.469E-03    0.46       1.0  T
   4   -939.4421596  0.509578E-05  0.454E-03    0.46       1.0  T
   5   -939.4421847 -0.250904E-04  0.154E-03    0.46       2.8  T
   6   -939.4421860 -0.134988E-05  0.615E-04    0.46       7.1  T
   7   -939.4421866 -0.536164E-06  0.233E-04    0.46      18.8  T
   8   -939.4421866 -0.652242E-07  0.999E-05    0.46      43.8  T
   9   -939.4421866 -0.982266E-08  0.374E-05    0.46     117.0  T
     SCC iter.                  ...        0 min, 28.694 sec
     gradient                   ...        0 min,  2.348 sec
 * total energy  :  -922.2888837 Eh     change       -0.3710176E-01 Eh
   gradient norm :     0.2782507 Eh/a0  converged?    E=F G=F D=F
   step length   :     9.0266315 a0

........................................................................
.............................. CYCLE   13 ..............................
........................................................................
   1   -939.5128448 -0.939513E+03  0.144E-02    0.52       0.0  T
   2   -939.5129369 -0.920829E-04  0.928E-03    0.52       1.0  T
   3   -939.5129952 -0.582962E-04  0.407E-03    0.52       1.1  T
   4   -939.5129972 -0.201891E-05  0.357E-03    0.52       1.2  T
   5   -939.5130114 -0.142541E-04  0.129E-03    0.52       3.4  T
   6   -939.5130124 -0.945142E-06  0.538E-04    0.52       8.1  T
   7   -939.5130128 -0.421062E-06  0.187E-04    0.52      23.5  T
   8   -939.5130128 -0.397331E-07  0.812E-05    0.52      53.9  T
     SCC iter.                  ...        0 min, 25.715 sec
     gradient                   ...        0 min,  3.185 sec
 * total energy  :  -922.3171418 Eh     change       -0.2825809E-01 Eh
   gradient norm :     0.2268075 Eh/a0  converged?    E=F G=F D=F
   step length   :     5.9855117 a0

........................................................................
.............................. CYCLE   14 ..............................
........................................................................
   1   -939.5756817 -0.939576E+03  0.141E-02    0.58       0.0  T
   2   -939.5757484 -0.666207E-04  0.106E-02    0.57       1.0  T
   3   -939.5758252 -0.767869E-04  0.391E-03    0.57       1.1  T
   4   -939.5758186  0.657887E-05  0.409E-03    0.57       1.1  T
   5   -939.5758373 -0.186733E-04  0.136E-03    0.57       3.2  T
   6   -939.5758382 -0.942960E-06  0.491E-04    0.57       8.9  T
   7   -939.5758386 -0.362945E-06  0.185E-04    0.57      23.7  T
   8   -939.5758386 -0.457472E-07  0.707E-05    0.57      61.9  T
     SCC iter.                  ...        0 min, 25.622 sec
     gradient                   ...        0 min,  2.393 sec
 * total energy  :  -922.3398009 Eh     change       -0.2265907E-01 Eh
   gradient norm :     0.1787417 Eh/a0  converged?    E=F G=F D=F
   step length   :     8.8107312 a0

........................................................................
.............................. CYCLE   15 ..............................
........................................................................
   1   -939.6340316 -0.939634E+03  0.122E-02    0.63       0.0  T
   2   -939.6340959 -0.643394E-04  0.831E-03    0.63       1.0  T
   3   -939.6341415 -0.455583E-04  0.354E-03    0.63       1.2  T
   4   -939.6341411  0.366222E-06  0.312E-03    0.63       1.4  T
   5   -939.6341510 -0.988541E-05  0.108E-03    0.63       4.1  T
   6   -939.6341518 -0.822269E-06  0.422E-04    0.63      10.4  T
   7   -939.6341521 -0.258932E-06  0.140E-04    0.63      31.2  T
   8   -939.6341521 -0.211193E-07  0.638E-05    0.63      68.6  T
     SCC iter.                  ...        0 min, 25.472 sec
     gradient                   ...        0 min,  2.376 sec
 * total energy  :  -922.3571190 Eh     change       -0.1731818E-01 Eh
   gradient norm :     0.1339406 Eh/a0  converged?    E=F G=F D=F
   step length   :     4.6129140 a0

........................................................................
.............................. CYCLE   16 ..............................
........................................................................
   1   -939.6807961 -0.939681E+03  0.109E-02    0.67       0.0  T
   2   -939.6808442 -0.480113E-04  0.808E-03    0.67       1.0  T
   3   -939.6808852 -0.410393E-04  0.310E-03    0.67       1.4  T
   4   -939.6808804  0.475069E-05  0.299E-03    0.67       1.5  T
   5   -939.6808897 -0.927350E-05  0.105E-03    0.67       4.2  T
   6   -939.6808906 -0.869317E-06  0.328E-04    0.67      13.4  T
   7   -939.6808907 -0.145375E-06  0.126E-04    0.67      34.6  T
   8   -939.6808907 -0.184181E-07  0.526E-05    0.67      83.1  T
     SCC iter.                  ...        0 min, 27.321 sec
     gradient                   ...        0 min,  2.420 sec
 * total energy  :  -922.3691336 Eh     change       -0.1201454E-01 Eh
   gradient norm :     0.0984033 Eh/a0  converged?    E=F G=F D=F
   step length   :     4.8741835 a0

........................................................................
.............................. CYCLE   17 ..............................
........................................................................
   1   -939.7189353 -0.939719E+03  0.984E-03    0.71       0.0  T
   2   -939.7189718 -0.365621E-04  0.738E-03    0.71       1.0  T
   3   -939.7190045 -0.326505E-04  0.295E-03    0.71       1.5  T
   4   -939.7190002  0.426519E-05  0.280E-03    0.71       1.6  T
   5   -939.7190082 -0.798802E-05  0.972E-04    0.71       4.5  T
   6   -939.7190089 -0.716423E-06  0.296E-04    0.71      14.8  T
   7   -939.7190090 -0.118325E-06  0.104E-04    0.71      42.1  T
   8   -939.7190091 -0.121835E-07  0.461E-05    0.71      95.0  T
     SCC iter.                  ...        0 min, 25.575 sec
     gradient                   ...        0 min,  2.417 sec
 * total energy  :  -922.3779378 Eh     change       -0.8804241E-02 Eh
   gradient norm :     0.0653437 Eh/a0  converged?    E=F G=F D=F
   step length   :     3.5063268 a0

........................................................................
.............................. CYCLE   18 ..............................
........................................................................
   1   -939.7475068 -0.939748E+03  0.739E-03    0.74       0.0  T
   2   -939.7475273 -0.205299E-04  0.539E-03    0.74       1.0  T
   3   -939.7475438 -0.164974E-04  0.236E-03    0.74       1.9  T
   4   -939.7475419  0.196261E-05  0.204E-03    0.74       2.1  T
   5   -939.7475459 -0.404290E-05  0.772E-04    0.74       5.7  T
   6   -939.7475465 -0.552377E-06  0.213E-04    0.74      20.6  T
   7   -939.7475465 -0.627134E-07  0.749E-05    0.74      58.4  T
   8   -939.7475465 -0.561874E-08  0.349E-05    0.74     125.4  T
     SCC iter.                  ...        0 min, 26.366 sec
     gradient                   ...        0 min,  2.403 sec
 * total energy  :  -922.3836338 Eh     change       -0.5696004E-02 Eh
   gradient norm :     0.0479512 Eh/a0  converged?    E=F G=F D=F
   step length   :     2.7770401 a0

........................................................................
.............................. CYCLE   19 ..............................
........................................................................
   1   -939.7653294 -0.939765E+03  0.626E-03    0.76       0.0  T
   2   -939.7653399 -0.105195E-04  0.508E-03    0.76       1.0  T
   3   -939.7653525 -0.125971E-04  0.216E-03    0.76       2.0  T
   4   -939.7653497  0.275887E-05  0.187E-03    0.76       2.3  T
   5   -939.7653531 -0.340481E-05  0.612E-04    0.76       7.1  T
   6   -939.7653536 -0.440568E-06  0.163E-04    0.76      26.8  T
   7   -939.7653536 -0.362063E-07  0.547E-05    0.76      80.0  T
     SCC iter.                  ...        0 min, 22.532 sec
     gradient                   ...        0 min,  2.425 sec
 * total energy  :  -922.3880979 Eh     change       -0.4464128E-02 Eh
   gradient norm :     0.0484191 Eh/a0  converged?    E=F G=F D=F
   step length   :     2.2633237 a0

........................................................................
.............................. CYCLE   20 ..............................
........................................................................
   1   -939.7645409 -0.939765E+03  0.461E-03    0.76       0.0  T
   2   -939.7645443 -0.339007E-05  0.386E-03    0.76       1.1  T
   3   -939.7645501 -0.574536E-05  0.179E-03    0.76       2.4  T
   4   -939.7645480  0.205998E-05  0.149E-03    0.76       2.9  T
   5   -939.7645505 -0.244193E-05  0.506E-04    0.76       8.6  T
   6   -939.7645507 -0.288517E-06  0.936E-05    0.76      46.8  T
   7   -939.7645508 -0.865225E-08  0.416E-05    0.76     105.2  T
     SCC iter.                  ...        0 min, 22.664 sec
     gradient                   ...        0 min,  2.399 sec
 * total energy  :  -922.3924368 Eh     change       -0.4338884E-02 Eh
   gradient norm :     0.0504951 Eh/a0  converged?    E=F G=F D=F
   step length   :     1.7705769 a0
 * RMSD in coord.:     0.7139688 a0     energy gain  -0.2804838E+01 Eh
 * calculating model hessian...
Using Lindh-Hessian (1995)
 Shifting diagonal of input Hessian by    1.0005572469035542E-002
 Lowest  eigenvalues of input Hessian
    0.010000    0.010000    0.010002    0.010003    0.010004    0.010004
    0.010005    0.010005    0.000000    0.000000    0.000000    0.000000
    0.000000    0.000000    0.010006    0.010006    0.010006    0.010006
 Highest eigenvalues
    3.019541    3.033570    3.038404    3.051291    3.051443    3.058728


........................................................................
.............................. CYCLE   21 ..............................
........................................................................
   1   -939.7598563 -0.939760E+03  0.593E-03    0.74       0.0  T
   2   -939.7598713 -0.150829E-04  0.402E-03    0.74       1.1  T
   3   -939.7598806 -0.925202E-05  0.153E-03    0.74       2.9  T
   4   -939.7598807 -0.132283E-06  0.120E-03    0.74       3.6  T
   5   -939.7598816 -0.830021E-06  0.469E-04    0.74       9.3  T
   6   -939.7598817 -0.132933E-06  0.189E-04    0.74      23.2  T
   7   -939.7598818 -0.567168E-07  0.632E-05    0.74      69.2  T
     SCC iter.                  ...        0 min, 23.868 sec
     gradient                   ...        0 min,  2.407 sec
 * total energy  :  -922.3956995 Eh     change       -0.3262630E-02 Eh
   gradient norm :     0.0273735 Eh/a0  converged?    E=F G=F D=F
   step length   :     0.3793619 a0

........................................................................
.............................. CYCLE   22 ..............................
........................................................................
   1   -939.7346987 -0.939735E+03  0.124E-02    0.69       0.0  T
   2   -939.7347679 -0.691990E-04  0.795E-03    0.70       1.0  T
   3   -939.7348022 -0.342465E-04  0.339E-03    0.70       1.3  T
   4   -939.7348032 -0.103053E-05  0.265E-03    0.70       1.7  T
   5   -939.7348080 -0.480232E-05  0.106E-03    0.70       4.1  T
   6   -939.7348088 -0.764894E-06  0.414E-04    0.70      10.6  T
   7   -939.7348090 -0.270567E-06  0.146E-04    0.70      30.1  T
   8   -939.7348090 -0.178859E-07  0.630E-05    0.70      69.5  T
     SCC iter.                  ...        0 min, 25.800 sec
     gradient                   ...        0 min,  2.396 sec
 * total energy  :  -922.3984457 Eh     change       -0.2746213E-02 Eh
   gradient norm :     0.0393848 Eh/a0  converged?    E=F G=F D=F
   step length   :     1.3928947 a0

........................................................................
.............................. CYCLE   23 ..............................
........................................................................
   1   -939.6963685 -0.939696E+03  0.686E-03    0.67       0.0  T
   2   -939.6963830 -0.144497E-04  0.505E-03    0.67       1.0  T
   3   -939.6963943 -0.112940E-04  0.223E-03    0.67       2.0  T
   4   -939.6963923  0.198260E-05  0.176E-03    0.67       2.5  T
   5   -939.6963955 -0.320990E-05  0.656E-04    0.67       6.7  T
   6   -939.6963960 -0.453891E-06  0.189E-04    0.67      23.2  T
   7   -939.6963960 -0.538074E-07  0.701E-05    0.67      62.4  T
     SCC iter.                  ...        0 min, 23.757 sec
     gradient                   ...        0 min,  2.397 sec
 * total energy  :  -922.3986101 Eh     change       -0.1643937E-03 Eh
   gradient norm :     0.0570843 Eh/a0  converged?    E=F G=F D=F
   step length   :     1.0812297 a0

........................................................................
.............................. CYCLE   24 ..............................
........................................................................
   1   -939.6817211 -0.939682E+03  0.839E-03    0.69       0.0  T
   2   -939.6817348 -0.136584E-04  0.797E-03    0.69       1.0  T
   3   -939.6817591 -0.243441E-04  0.355E-03    0.69       1.2  T
   4   -939.6817525  0.656387E-05  0.223E-03    0.69       2.0  T
   5   -939.6817586 -0.602774E-05  0.803E-04    0.69       5.4  T
   6   -939.6817595 -0.969519E-06  0.199E-04    0.69      22.0  T
   7   -939.6817596 -0.540940E-07  0.579E-05    0.69      75.6  T
     SCC iter.                  ...        0 min, 22.643 sec
     gradient                   ...        0 min,  2.403 sec
 * total energy  :  -922.4022513 Eh     change       -0.3641265E-02 Eh
   gradient norm :     0.0403141 Eh/a0  converged?    E=F G=F D=F
   step length   :     0.7936737 a0

........................................................................
.............................. CYCLE   25 ..............................
........................................................................
   1   -939.6848893 -0.939685E+03  0.804E-03    0.71       0.0  T
   2   -939.6849094 -0.201065E-04  0.712E-03    0.71       1.0  T
   3   -939.6849306 -0.211602E-04  0.304E-03    0.71       1.4  T
   4   -939.6849241  0.645935E-05  0.277E-03    0.71       1.6  T
   5   -939.6849309 -0.675577E-05  0.855E-04    0.71       5.1  T
   6   -939.6849318 -0.880659E-06  0.211E-04    0.71      20.7  T
   7   -939.6849318 -0.578316E-07  0.764E-05    0.71      57.3  T
   8   -939.6849318 -0.574710E-08  0.282E-05    0.71     155.2  T
     SCC iter.                  ...        0 min, 26.102 sec
     gradient                   ...        0 min,  2.380 sec
 * total energy  :  -922.4027938 Eh     change       -0.5424189E-03 Eh
   gradient norm :     0.0347062 Eh/a0  converged?    E=F G=F D=F
   step length   :     0.7089123 a0

........................................................................
.............................. CYCLE   26 ..............................
........................................................................
   1   -939.7012907 -0.939701E+03  0.589E-03    0.71       0.0  T
   2   -939.7012981 -0.734316E-05  0.584E-03    0.71       1.0  T
   3   -939.7013118 -0.137509E-04  0.269E-03    0.71       1.6  T
   4   -939.7013063  0.552922E-05  0.237E-03    0.71       1.8  T
   5   -939.7013116 -0.535361E-05  0.609E-04    0.71       7.2  T
   6   -939.7013123 -0.664584E-06  0.117E-04    0.71      37.4  T
   7   -939.7013123 -0.115193E-07  0.395E-05    0.71     110.9  T
     SCC iter.                  ...        0 min, 23.970 sec
     gradient                   ...        0 min,  2.415 sec
 * total energy  :  -922.4070828 Eh     change       -0.4289039E-02 Eh
   gradient norm :     0.0202082 Eh/a0  converged?    E=F G=F D=F
   step length   :     0.6896756 a0

........................................................................
.............................. CYCLE   27 ..............................
........................................................................
   1   -939.6832416 -0.939683E+03  0.261E-03    0.70       0.0  T
   2   -939.6832428 -0.127422E-05  0.204E-03    0.70       2.1  T
   3   -939.6832452 -0.234502E-05  0.848E-04    0.70       5.2  T
   4   -939.6832450  0.161503E-06  0.610E-04    0.70       7.2  T
   5   -939.6832452 -0.222500E-06  0.281E-04    0.70      15.6  T
   6   -939.6832454 -0.130042E-06  0.578E-05    0.70      75.7  T
   7   -939.6832454 -0.355021E-08  0.239E-05    0.70     182.9  T
     SCC iter.                  ...        0 min, 22.601 sec
     gradient                   ...        0 min,  2.391 sec
 * total energy  :  -922.4082416 Eh     change       -0.1158760E-02 Eh
   gradient norm :     0.0258331 Eh/a0  converged?    E=F G=F D=F
   step length   :     1.2920949 a0

........................................................................
.............................. CYCLE   28 ..............................
........................................................................
   1   -939.6759810 -0.939676E+03  0.242E-03    0.71       0.0  T
   2   -939.6759821 -0.108437E-05  0.147E-03    0.71       3.0  T
   3   -939.6759823 -0.229513E-06  0.906E-04    0.71       4.8  T
   4   -939.6759825 -0.168142E-06  0.554E-04    0.71       7.9  T
   5   -939.6759828 -0.288287E-06  0.210E-04    0.71      20.8  T
   6   -939.6759829 -0.759252E-07  0.564E-05    0.71      77.6  T
   7   -939.6759829 -0.430987E-08  0.213E-05    0.71     205.3  T
     SCC iter.                  ...        0 min, 23.031 sec
     gradient                   ...        0 min,  3.252 sec
 * total energy  :  -922.4113146 Eh     change       -0.3073017E-02 Eh
   gradient norm :     0.0189679 Eh/a0  converged?    E=F G=F D=F
   step length   :     1.1326471 a0

........................................................................
.............................. CYCLE   29 ..............................
........................................................................
   1   -939.6786727 -0.939679E+03  0.265E-03    0.72       0.0  T
   2   -939.6786756 -0.289800E-05  0.167E-03    0.72       2.6  T
   3   -939.6786767 -0.103395E-05  0.809E-04    0.72       5.4  T
   4   -939.6786765  0.145056E-06  0.637E-04    0.72       6.9  T
   5   -939.6786769 -0.359402E-06  0.235E-04    0.72      18.6  T
   6   -939.6786769 -0.573636E-07  0.702E-05    0.72      62.4  T
   7   -939.6786769 -0.671628E-08  0.250E-05    0.72     174.9  T
     SCC iter.                  ...        0 min, 22.666 sec
     gradient                   ...        0 min,  2.380 sec
 * total energy  :  -922.4133943 Eh     change       -0.2079767E-02 Eh
   gradient norm :     0.0170977 Eh/a0  converged?    E=F G=F D=F
   step length   :     1.8976945 a0

........................................................................
.............................. CYCLE   30 ..............................
........................................................................
   1   -939.6873229 -0.939687E+03  0.250E-03    0.73       0.0  T
   2   -939.6873254 -0.247844E-05  0.188E-03    0.73       2.3  T
   3   -939.6873272 -0.178535E-05  0.771E-04    0.73       5.7  T
   4   -939.6873270  0.173138E-06  0.625E-04    0.73       7.0  T
   5   -939.6873273 -0.281136E-06  0.244E-04    0.73      18.0  T
   6   -939.6873273 -0.725717E-07  0.706E-05    0.73      62.0  T
   7   -939.6873274 -0.649516E-08  0.249E-05    0.73     175.8  T
     SCC iter.                  ...        0 min, 22.819 sec
     gradient                   ...        0 min,  2.356 sec
 * total energy  :  -922.4152518 Eh     change       -0.1857492E-02 Eh
   gradient norm :     0.0193580 Eh/a0  converged?    E=F G=F D=F
   step length   :     2.3139982 a0

........................................................................
.............................. CYCLE   31 ..............................
........................................................................
   1   -939.6932334 -0.939693E+03  0.198E-03    0.73       0.0  T
   2   -939.6932344 -0.988131E-06  0.122E-03    0.73       3.6  T
   3   -939.6932352 -0.769534E-06  0.677E-04    0.73       6.5  T
   4   -939.6932354 -0.168674E-06  0.421E-04    0.73      10.4  T
   5   -939.6932355 -0.126280E-06  0.166E-04    0.73      26.4  T
   6   -939.6932355 -0.387593E-07  0.541E-05    0.73      81.0  T
     SCC iter.                  ...        0 min, 21.168 sec
     gradient                   ...        0 min,  2.384 sec
 * total energy  :  -922.4168515 Eh     change       -0.1599630E-02 Eh
   gradient norm :     0.0202561 Eh/a0  converged?    E=F G=F D=F
   step length   :     3.2486257 a0

........................................................................
.............................. CYCLE   32 ..............................
........................................................................
   1   -939.6983962 -0.939698E+03  0.181E-03    0.74       0.0  T
   2   -939.6983966 -0.393505E-06  0.113E-03    0.74       3.9  T
   3   -939.6983974 -0.819782E-06  0.633E-04    0.74       6.9  T
   4   -939.6983977 -0.255978E-06  0.380E-04    0.74      11.5  T
   5   -939.6983978 -0.976978E-07  0.144E-04    0.74      30.4  T
   6   -939.6983978 -0.290055E-07  0.453E-05    0.74      96.6  T
     SCC iter.                  ...        0 min, 19.365 sec
     gradient                   ...        0 min,  2.394 sec
 * total energy  :  -922.4182740 Eh     change       -0.1422518E-02 Eh
   gradient norm :     0.0201662 Eh/a0  converged?    E=F G=F D=F
   step length   :     4.1308690 a0

........................................................................
.............................. CYCLE   33 ..............................
........................................................................
   1   -939.7076951 -0.939708E+03  0.197E-03    0.73       0.0  T
   2   -939.7076955 -0.448315E-06  0.123E-03    0.73       3.6  T
   3   -939.7076964 -0.926035E-06  0.707E-04    0.73       6.2  T
   4   -939.7076968 -0.318005E-06  0.427E-04    0.73      10.2  T
   5   -939.7076969 -0.145383E-06  0.145E-04    0.73      30.3  T
   6   -939.7076969 -0.259118E-07  0.527E-05    0.73      83.0  T
     SCC iter.                  ...        0 min, 19.531 sec
     gradient                   ...        0 min,  2.424 sec
 * total energy  :  -922.4195614 Eh     change       -0.1287456E-02 Eh
   gradient norm :     0.0186045 Eh/a0  converged?    E=F G=F D=F
   step length   :     4.2162223 a0

........................................................................
.............................. CYCLE   34 ..............................
........................................................................
   1   -939.7189557 -0.939719E+03  0.201E-03    0.73       0.0  T
   2   -939.7189563 -0.540957E-06  0.128E-03    0.73       3.4  T
   3   -939.7189574 -0.108582E-05  0.721E-04    0.73       6.1  T
   4   -939.7189577 -0.340308E-06  0.452E-04    0.73       9.7  T
   5   -939.7189579 -0.176115E-06  0.142E-04    0.73      30.8  T
   6   -939.7189579 -0.203810E-07  0.598E-05    0.73      73.2  T
     SCC iter.                  ...        0 min, 20.921 sec
     gradient                   ...        0 min,  2.390 sec
 * total energy  :  -922.4206966 Eh     change       -0.1135214E-02 Eh
   gradient norm :     0.0159534 Eh/a0  converged?    E=F G=F D=F
   step length   :     3.6609445 a0

........................................................................
.............................. CYCLE   35 ..............................
........................................................................
   1   -939.7266629 -0.939727E+03  0.167E-03    0.73       0.0  T
   2   -939.7266634 -0.520582E-06  0.116E-03    0.73       3.8  T
   3   -939.7266645 -0.109692E-05  0.559E-04    0.73       7.8  T
   4   -939.7266647 -0.129362E-06  0.399E-04    0.73      11.0  T
   5   -939.7266648 -0.146252E-06  0.122E-04    0.73      35.9  T
   6   -939.7266648 -0.132443E-07  0.544E-05    0.73      80.5  T
     SCC iter.                  ...        0 min, 19.235 sec
     gradient                   ...        0 min,  2.387 sec
 * total energy  :  -922.4215592 Eh     change       -0.8625203E-03 Eh
   gradient norm :     0.0137892 Eh/a0  converged?    E=F G=F D=F
   step length   :     2.9694490 a0

........................................................................
.............................. CYCLE   36 ..............................
........................................................................
   1   -939.7359747 -0.939736E+03  0.162E-03    0.73       0.0  T
   2   -939.7359753 -0.632098E-06  0.114E-03    0.73       3.8  T
   3   -939.7359763 -0.998869E-06  0.528E-04    0.73       8.3  T
   4   -939.7359764 -0.496266E-07  0.403E-04    0.73      10.9  T
   5   -939.7359765 -0.159107E-06  0.130E-04    0.73      33.7  T
   6   -939.7359766 -0.152419E-07  0.532E-05    0.73      82.2  T
     SCC iter.                  ...        0 min, 19.385 sec
     gradient                   ...        0 min,  2.415 sec
 * total energy  :  -922.4222633 Eh     change       -0.7041284E-03 Eh
   gradient norm :     0.0118406 Eh/a0  converged?    E=F G=F D=F
   step length   :     2.8959469 a0

........................................................................
.............................. CYCLE   37 ..............................
........................................................................
   1   -939.7581583 -0.939758E+03  0.226E-03    0.72       0.0  T
   2   -939.7581596 -0.125386E-05  0.133E-03    0.72       3.3  T
   3   -939.7581601 -0.487263E-06  0.802E-04    0.72       5.5  T
   4   -939.7581603 -0.189392E-06  0.546E-04    0.72       8.0  T
   5   -939.7581606 -0.295698E-06  0.190E-04    0.72      23.1  T
   6   -939.7581606 -0.423947E-07  0.586E-05    0.72      74.7  T
     SCC iter.                  ...        0 min, 20.659 sec
     gradient                   ...        0 min,  2.388 sec
 * total energy  :  -922.4228458 Eh     change       -0.5825526E-03 Eh
   gradient norm :     0.0119574 Eh/a0  converged?    E=F G=F D=F
   step length   :     1.7402233 a0

........................................................................
.............................. CYCLE   38 ..............................
........................................................................
   1   -939.7693530 -0.939769E+03  0.178E-03    0.72       0.0  T
   2   -939.7693539 -0.932384E-06  0.978E-04    0.72       4.5  T
   3   -939.7693541 -0.220212E-06  0.560E-04    0.72       7.8  T
   4   -939.7693541  0.129675E-07  0.428E-04    0.72      10.2  T
   5   -939.7693543 -0.184983E-06  0.157E-04    0.72      27.8  T
   6   -939.7693543 -0.296984E-07  0.406E-05    0.72     107.7  T
     SCC iter.                  ...        0 min, 19.007 sec
     gradient                   ...        0 min,  2.371 sec
 * total energy  :  -922.4232520 Eh     change       -0.4061437E-03 Eh
   gradient norm :     0.0119850 Eh/a0  converged?    E=F G=F D=F
   step length   :     1.7083850 a0

........................................................................
.............................. CYCLE   39 ..............................
........................................................................
   1   -939.7701051 -0.939770E+03  0.256E-03    0.72       0.0  T
   2   -939.7701061 -0.105113E-05  0.124E-03    0.72       3.5  T
   3   -939.7701060  0.616163E-07  0.904E-04    0.72       4.8  T
   4   -939.7701065 -0.420741E-06  0.521E-04    0.72       8.4  T
   5   -939.7701068 -0.288803E-06  0.177E-04    0.72      24.8  T
   6   -939.7701068 -0.407812E-07  0.545E-05    0.72      80.3  T
     SCC iter.                  ...        0 min, 19.220 sec
     gradient                   ...        0 min,  2.387 sec
 * total energy  :  -922.4236994 Eh     change       -0.4473750E-03 Eh
   gradient norm :     0.0138796 Eh/a0  converged?    E=F G=F D=F
   step length   :     0.8669219 a0

........................................................................
.............................. CYCLE   40 ..............................
........................................................................
   1   -939.8013560 -0.939801E+03  0.393E-03    0.72       0.0  T
   2   -939.8013592 -0.313985E-05  0.199E-03    0.72       2.2  T
   3   -939.8013600 -0.857955E-06  0.139E-03    0.72       3.2  T
   4   -939.8013612 -0.116111E-05  0.805E-04    0.72       5.4  T
   5   -939.8013617 -0.524526E-06  0.292E-04    0.72      15.0  T
   6   -939.8013618 -0.120632E-06  0.949E-05    0.72      46.1  T
   7   -939.8013618 -0.109989E-07  0.221E-05    0.72     198.3  T
     SCC iter.                  ...        0 min, 23.859 sec
     gradient                   ...        0 min,  2.412 sec
 * total energy  :  -922.4242104 Eh     change       -0.5110732E-03 Eh
   gradient norm :     0.0151500 Eh/a0  converged?    E=F G=F D=F
   step length   :     0.6539065 a0

........................................................................
.............................. CYCLE   41 ..............................
........................................................................
   1   -939.7845505 -0.939785E+03  0.248E-03    0.72       0.0  T
   2   -939.7845515 -0.982130E-06  0.175E-03    0.72       2.5  T
   3   -939.7845537 -0.215155E-05  0.838E-04    0.72       5.2  T
   4   -939.7845539 -0.185228E-06  0.617E-04    0.72       7.1  T
   5   -939.7845542 -0.378573E-06  0.209E-04    0.72      20.9  T
   6   -939.7845543 -0.422300E-07  0.711E-05    0.72      61.5  T
   7   -939.7845543 -0.596469E-08  0.250E-05    0.72     175.2  T
     SCC iter.                  ...        0 min, 22.292 sec
     gradient                   ...        0 min,  2.373 sec
 * total energy  :  -922.4247331 Eh     change       -0.5226217E-03 Eh
   gradient norm :     0.0141566 Eh/a0  converged?    E=F G=F D=F
   step length   :     0.6192196 a0

........................................................................
.............................. CYCLE   42 ..............................
........................................................................
   1   -939.7276898 -0.939728E+03  0.570E-03    0.72       0.0  T
   2   -939.7276936 -0.375507E-05  0.349E-03    0.72       1.3  T
   3   -939.7276979 -0.433315E-05  0.220E-03    0.72       2.0  T
   4   -939.7277011 -0.313879E-05  0.132E-03    0.72       3.3  T
   5   -939.7277027 -0.167701E-05  0.428E-04    0.72      10.2  T
   6   -939.7277029 -0.207413E-06  0.138E-04    0.72      31.6  T
   7   -939.7277030 -0.247661E-07  0.478E-05    0.72      91.6  T
     SCC iter.                  ...        0 min, 22.486 sec
     gradient                   ...        0 min,  2.356 sec
 * total energy  :  -922.4248540 Eh     change       -0.1209640E-03 Eh
   gradient norm :     0.0219424 Eh/a0  converged?    E=F G=F D=F
   step length   :     1.0864035 a0
 * RMSD in coord.:     0.7197599 a0     energy gain  -0.3241719E-01 Eh
 * calculating model hessian...
Using Lindh-Hessian (1995)
 Shifting diagonal of input Hessian by    1.0005987635177007E-002
 Lowest  eigenvalues of input Hessian
    0.010000    0.010001    0.010002    0.010003    0.010003    0.010004
    0.010004    0.010005    0.010005    0.010005    0.010006    0.010006
    0.010006    0.010006    0.000000    0.000000    0.000000    0.000000
 Highest eigenvalues
    3.029464    3.037438    3.040744    3.041378    3.044808    3.045797


........................................................................
.............................. CYCLE   43 ..............................
........................................................................
   1   -939.7525246 -0.939753E+03  0.272E-03    0.72       0.0  T
   2   -939.7525264 -0.175637E-05  0.164E-03    0.72       2.7  T
   3   -939.7525268 -0.452117E-06  0.977E-04    0.72       4.5  T
   4   -939.7525268  0.390696E-07  0.685E-04    0.72       6.4  T
   5   -939.7525274 -0.569022E-06  0.203E-04    0.72      21.5  T
   6   -939.7525274 -0.575811E-07  0.696E-05    0.72      62.9  T
   7   -939.7525274 -0.599107E-08  0.193E-05    0.72     226.8  T
     SCC iter.                  ...        0 min, 23.284 sec
     gradient                   ...        0 min,  2.362 sec
 * total energy  :  -922.4253129 Eh     change       -0.4589182E-03 Eh
   gradient norm :     0.0098225 Eh/a0  converged?    E=F G=F D=F
   step length   :     0.1795764 a0

........................................................................
.............................. CYCLE   44 ..............................
........................................................................
   1   -939.7874183 -0.939787E+03  0.412E-03    0.72       0.0  T
   2   -939.7874227 -0.437019E-05  0.244E-03    0.72       1.8  T
   3   -939.7874242 -0.148683E-05  0.142E-03    0.72       3.1  T
   4   -939.7874243 -0.107620E-06  0.992E-04    0.72       4.4  T
   5   -939.7874254 -0.105073E-05  0.317E-04    0.72      13.8  T
   6   -939.7874255 -0.141826E-06  0.110E-04    0.72      39.8  T
   7   -939.7874255 -0.150495E-07  0.299E-05    0.72     146.4  T
     SCC iter.                  ...        0 min, 22.549 sec
     gradient                   ...        0 min,  2.357 sec
 * total energy  :  -922.4250572 Eh     change        0.2557259E-03 Eh
   gradient norm :     0.0232406 Eh/a0  converged?    E=F G=F D=F
   step length   :     0.3278622 a0

........................................................................
.............................. CYCLE   45 ..............................
........................................................................
   1   -939.7759633 -0.939776E+03  0.149E-03    0.72       0.0  T
   2   -939.7759638 -0.513577E-06  0.960E-04    0.72       4.6  T
   3   -939.7759639 -0.142451E-06  0.532E-04    0.72       8.2  T
   4   -939.7759639  0.282280E-07  0.305E-04    0.72      14.3  T
   5   -939.7759640 -0.747358E-07  0.130E-04    0.72      33.7  T
   6   -939.7759640 -0.261057E-07  0.355E-05    0.72     123.3  T
     SCC iter.                  ...        0 min, 19.305 sec
     gradient                   ...        0 min,  3.181 sec
 * total energy  :  -922.4257979 Eh     change       -0.7407131E-03 Eh
   gradient norm :     0.0116483 Eh/a0  converged?    E=F G=F D=F
   step length   :     0.1976616 a0

........................................................................
.............................. CYCLE   46 ..............................
........................................................................
   1   -939.7401411 -0.939740E+03  0.443E-03    0.72       0.0  T
   2   -939.7401431 -0.206030E-05  0.323E-03    0.72       1.4  T
   3   -939.7401443 -0.114285E-05  0.175E-03    0.72       2.5  T
   4   -939.7401445 -0.225465E-06  0.698E-04    0.72       6.3  T
   5   -939.7401449 -0.431648E-06  0.249E-04    0.72      17.6  T
   6   -939.7401451 -0.117802E-06  0.647E-05    0.72      67.6  T
   7   -939.7401451 -0.649482E-08  0.183E-05    0.72     239.5  T
     SCC iter.                  ...        0 min, 22.259 sec
     gradient                   ...        0 min,  2.376 sec
 * total energy  :  -922.4246639 Eh     change        0.1134052E-02 Eh
   gradient norm :     0.0200313 Eh/a0  converged?    E=F G=F D=F
   step length   :     0.2891100 a0

........................................................................
.............................. CYCLE   47 ..............................
........................................................................
   1   -939.7528380 -0.939753E+03  0.398E-03    0.72       0.0  T
   2   -939.7528389 -0.845972E-06  0.320E-03    0.72       1.4  T
   3   -939.7528400 -0.109949E-05  0.167E-03    0.72       2.6  T
   4   -939.7528401 -0.158827E-06  0.458E-04    0.72       9.6  T
   5   -939.7528404 -0.307754E-06  0.149E-04    0.72      29.3  T
   6   -939.7528405 -0.405844E-07  0.388E-05    0.72     112.9  T
     SCC iter.                  ...        0 min, 19.173 sec
     gradient                   ...        0 min,  2.349 sec
 * total energy  :  -922.4260898 Eh     change       -0.1425939E-02 Eh
   gradient norm :     0.0084938 Eh/a0  converged?    E=F G=F D=F
   step length   :     0.2462993 a0

........................................................................
.............................. CYCLE   48 ..............................
........................................................................
   1   -939.7686193 -0.939769E+03  0.246E-03    0.72       0.0  T
   2   -939.7686206 -0.137095E-05  0.178E-03    0.72       2.5  T
   3   -939.7686216 -0.981226E-06  0.900E-04    0.72       4.9  T
   4   -939.7686214  0.192391E-06  0.627E-04    0.72       7.0  T
   5   -939.7686218 -0.375666E-06  0.191E-04    0.72      22.9  T
   6   -939.7686218 -0.581136E-07  0.587E-05    0.72      74.6  T
     SCC iter.                  ...        0 min, 20.783 sec
     gradient                   ...        0 min,  2.358 sec
 * total energy  :  -922.4252098 Eh     change        0.8800334E-03 Eh
   gradient norm :     0.0177498 Eh/a0  converged?    E=F G=F D=F
   step length   :     0.3281766 a0

........................................................................
.............................. CYCLE   49 ..............................
........................................................................
   1   -939.7656581 -0.939766E+03  0.145E-03    0.72       0.0  T
   2   -939.7656584 -0.325251E-06  0.126E-03    0.72       3.5  T
   3   -939.7656590 -0.572114E-06  0.581E-04    0.72       7.5  T
   4   -939.7656589  0.120302E-06  0.354E-04    0.72      12.4  T
   5   -939.7656590 -0.128199E-06  0.102E-04    0.72      43.0  T
   6   -939.7656590 -0.112633E-07  0.336E-05    0.72     130.2  T
     SCC iter.                  ...        0 min, 18.908 sec
     gradient                   ...        0 min,  2.359 sec
 * total energy  :  -922.4264232 Eh     change       -0.1213369E-02 Eh
   gradient norm :     0.0077104 Eh/a0  converged?    E=F G=F D=F
   step length   :     0.2202500 a0

........................................................................
.............................. CYCLE   50 ..............................
........................................................................
   1   -939.7469956 -0.939747E+03  0.180E-03    0.72       0.0  T
   2   -939.7469964 -0.765418E-06  0.113E-03    0.72       3.9  T
   3   -939.7469966 -0.232402E-06  0.646E-04    0.72       6.8  T
   4   -939.7469966  0.198788E-07  0.382E-04    0.72      11.5  T
   5   -939.7469967 -0.112957E-06  0.132E-04    0.72      33.1  T
   6   -939.7469967 -0.276249E-07  0.479E-05    0.72      91.5  T
     SCC iter.                  ...        0 min, 19.183 sec
     gradient                   ...        0 min,  2.363 sec
 * total energy  :  -922.4263726 Eh     change        0.5053984E-04 Eh
   gradient norm :     0.0092891 Eh/a0  converged?    E=F G=F D=F
   step length   :     0.2118408 a0

........................................................................
.............................. CYCLE   51 ..............................
........................................................................
   1   -939.7513648 -0.939751E+03  0.700E-04    0.72       0.0  T
   2   -939.7513649 -0.884037E-07  0.580E-04    0.72       7.6  T
   3   -939.7513650 -0.145178E-06  0.263E-04    0.72      16.6  T
   4   -939.7513650  0.417782E-07  0.204E-04    0.72      21.5  T
   5   -939.7513650 -0.506501E-07  0.552E-05    0.72      79.3  T
   6   -939.7513651 -0.385194E-08  0.182E-05    0.72     240.3  T
     SCC iter.                  ...        0 min, 19.914 sec
     gradient                   ...        0 min,  2.395 sec
 * total energy  :  -922.4267386 Eh     change       -0.3659656E-03 Eh
   gradient norm :     0.0050383 Eh/a0  converged?    E=F G=F D=F
   step length   :     0.1885204 a0

........................................................................
.............................. CYCLE   52 ..............................
........................................................................
   1   -939.7617055 -0.939762E+03  0.143E-03    0.72       0.0  T
   2   -939.7617059 -0.451842E-06  0.898E-04    0.72       4.9  T
   3   -939.7617062 -0.236322E-06  0.503E-04    0.72       8.7  T
   4   -939.7617062 -0.251976E-08  0.370E-04    0.72      11.8  T
   5   -939.7617063 -0.145063E-06  0.115E-04    0.72      38.0  T
   6   -939.7617063 -0.193556E-07  0.388E-05    0.72     112.7  T
     SCC iter.                  ...        0 min, 18.939 sec
     gradient                   ...        0 min,  2.409 sec
 * total energy  :  -922.4267742 Eh     change       -0.3564120E-04 Eh
   gradient norm :     0.0099398 Eh/a0  converged?    E=F G=F D=F
   step length   :     0.3903707 a0

........................................................................
.............................. CYCLE   53 ..............................
........................................................................
   1   -939.7567501 -0.939757E+03  0.662E-04    0.72       0.0  T
   2   -939.7567502 -0.876950E-07  0.398E-04    0.72      11.0  T
   3   -939.7567503 -0.440742E-07  0.251E-04    0.72      17.4  T
   4   -939.7567503 -0.124785E-07  0.129E-04    0.72      34.0  T
   5   -939.7567503 -0.100199E-07  0.511E-05    0.72      85.6  T
     SCC iter.                  ...        0 min, 15.791 sec
     gradient                   ...        0 min,  2.350 sec
 * total energy  :  -922.4272125 Eh     change       -0.4383154E-03 Eh
   gradient norm :     0.0061369 Eh/a0  converged?    E=F G=F D=F
   step length   :     0.3112767 a0

........................................................................
.............................. CYCLE   54 ..............................
........................................................................
   1   -939.7333945 -0.939733E+03  0.230E-03    0.72       0.0  T
   2   -939.7333956 -0.103275E-05  0.139E-03    0.72       3.2  T
   3   -939.7333958 -0.288037E-06  0.868E-04    0.72       5.0  T
   4   -939.7333959 -0.894544E-07  0.456E-04    0.72       9.6  T
   5   -939.7333961 -0.174680E-06  0.161E-04    0.72      27.2  T
   6   -939.7333962 -0.419191E-07  0.610E-05    0.72      71.8  T
     SCC iter.                  ...        0 min, 19.892 sec
     gradient                   ...        0 min,  2.390 sec
 * total energy  :  -922.4274467 Eh     change       -0.2341544E-03 Eh
   gradient norm :     0.0113747 Eh/a0  converged?    E=F G=F D=F
   step length   :     0.8100710 a0

........................................................................
.............................. CYCLE   55 ..............................
........................................................................
   1   -939.7319267 -0.939732E+03  0.915E-04    0.72       0.0  T
   2   -939.7319269 -0.148726E-06  0.568E-04    0.72       7.7  T
   3   -939.7319270 -0.101757E-06  0.351E-04    0.72      12.5  T
   4   -939.7319270 -0.968782E-08  0.208E-04    0.72      21.0  T
   5   -939.7319270 -0.505629E-07  0.764E-05    0.72      57.3  T
   6   -939.7319270 -0.703210E-08  0.276E-05    0.72     158.8  T
     SCC iter.                  ...        0 min, 18.906 sec
     gradient                   ...        0 min,  2.402 sec
 * total energy  :  -922.4279583 Eh     change       -0.5115686E-03 Eh
   gradient norm :     0.0098585 Eh/a0  converged?    E=F G=F D=F
   step length   :     0.6273593 a0

........................................................................
.............................. CYCLE   56 ..............................
........................................................................
   1   -939.7393174 -0.939739E+03  0.154E-03    0.72       0.0  T
   2   -939.7393179 -0.449759E-06  0.945E-04    0.72       4.6  T
   3   -939.7393182 -0.274476E-06  0.558E-04    0.72       7.8  T
   4   -939.7393182 -0.717375E-07  0.337E-04    0.72      13.0  T
   5   -939.7393184 -0.108712E-06  0.125E-04    0.72      35.0  T
   6   -939.7393184 -0.229612E-07  0.443E-05    0.72      98.7  T
     SCC iter.                  ...        0 min, 18.833 sec
     gradient                   ...        0 min,  2.405 sec
 * total energy  :  -922.4281307 Eh     change       -0.1724545E-03 Eh
   gradient norm :     0.0113939 Eh/a0  converged?    E=F G=F D=F
   step length   :     0.8959307 a0

........................................................................
.............................. CYCLE   57 ..............................
[...]
   264   6 C      286   1 H                                       1.0861992
   266   6 C      287   1 H                                       1.0862127
   267   6 C      288   1 H                                       1.0833443
   269   6 C      289   1 H                                       1.0782592
   270   6 C      290   1 H                                       1.0781869
   291   6 C      292   6 C                                       1.4097154
   292   6 C      293   6 C                                       1.4176469
   293   6 C      294   6 C                                       1.3698823
   294   6 C      295   6 C                                       1.4180148
   292   6 C      296   7 N                                       1.3640035
   295   6 C      296   7 N                                       1.3652625
   295   6 C      297   6 C                                       1.4073152
   298   6 C      299   6 C                                       1.2135484
   300   6 C      301   6 C                                       1.3998643
   301   6 C      302   6 C                                       1.3834531
   302   6 C      303   7 N                                       1.3306436
   303   7 N      304   6 C                                       1.3305910
   300   6 C      305   6 C                                       1.3998412
   304   6 C      305   6 C                                       1.3834973
   297   6 C      306   6 C                                       1.4033160
   306   6 C      307   6 C                                       1.4497480
   307   6 C      308   6 C                                       1.3496886
   306   6 C      309   7 N                                       1.3556452
   308   6 C      310   6 C                                       1.4495845
   309   7 N      310   6 C                                       1.3517273
   310   6 C      311   6 C                                       1.4079683
   311   6 C      312   6 C                                       1.4097066
   312   6 C      313   6 C                                       1.4176513
   313   6 C      314   6 C                                       1.3698782
   314   6 C      315   6 C                                       1.4180222
   312   6 C      316   7 N                                       1.3639975
   315   6 C      316   7 N                                       1.3652693
   315   6 C      317   6 C                                       1.4073073
   318   6 C      319   6 C                                       1.2135489
   320   6 C      321   6 C                                       1.3998611
   321   6 C      322   6 C                                       1.3834573
   322   6 C      323   7 N                                       1.3306438
   323   7 N      324   6 C                                       1.3305921
   320   6 C      325   6 C                                       1.3998475
   324   6 C      325   6 C                                       1.3834955
   317   6 C      326   6 C                                       1.4033278
   326   6 C      327   6 C                                       1.4497419
   327   6 C      328   6 C                                       1.3496941
   291   6 C      329   6 C                                       1.4079671
   328   6 C      329   6 C                                       1.4495807
   326   6 C      330   7 N                                       1.3556394
   329   6 C      330   7 N                                       1.3517417
   293   6 C      331   1 H                                       1.0779861
   294   6 C      332   1 H                                       1.0780583
   296   7 N      333   1 H                                       1.0145777
   301   6 C      334   1 H                                       1.0832883
   302   6 C      335   1 H                                       1.0861983
   304   6 C      336   1 H                                       1.0862103
   305   6 C      337   1 H                                       1.0833418
   307   6 C      338   1 H                                       1.0782590
   308   6 C      339   1 H                                       1.0781893
   313   6 C      340   1 H                                       1.0779872
   314   6 C      341   1 H                                       1.0780592
   316   7 N      342   1 H                                       1.0145772
   321   6 C      343   1 H                                       1.0832876
   322   6 C      344   1 H                                       1.0861991
   324   6 C      345   1 H                                       1.0862115
   325   6 C      346   1 H                                       1.0833439
   327   6 C      347   1 H                                       1.0782600
   328   6 C      348   1 H                                       1.0781892
   349   6 C      350   6 C                                       1.4097036
   350   6 C      351   6 C                                       1.4176508
   351   6 C      352   6 C                                       1.3698791
   352   6 C      353   6 C                                       1.4180235
   350   6 C      354   7 N                                       1.3639960
   353   6 C      354   7 N                                       1.3652683
   353   6 C      355   6 C                                       1.4073033
   356   6 C      357   6 C                                       1.2135493
   358   6 C      359   6 C                                       1.3998625
   359   6 C      360   6 C                                       1.3834542
   360   6 C      361   7 N                                       1.3306436
   361   7 N      362   6 C                                       1.3305906
   358   6 C      363   6 C                                       1.3998433
   362   6 C      363   6 C                                       1.3834970
   355   6 C      364   6 C                                       1.4033343
   364   6 C      365   6 C                                       1.4497428
   365   6 C      366   6 C                                       1.3496934
   364   6 C      367   7 N                                       1.3556384
   366   6 C      368   6 C                                       1.4495795
   367   7 N      368   6 C                                       1.3517477
   368   6 C      369   6 C                                       1.4079746
   369   6 C      370   6 C                                       1.4097147
   370   6 C      371   6 C                                       1.4176452
   371   6 C      372   6 C                                       1.3698833
   372   6 C      373   6 C                                       1.4180159
   370   6 C      374   7 N                                       1.3640068
   373   6 C      374   7 N                                       1.3652633
   373   6 C      375   6 C                                       1.4073161
   376   6 C      377   6 C                                       1.2135474
   378   6 C      379   6 C                                       1.3998673
   379   6 C      380   6 C                                       1.3834535
   380   6 C      381   7 N                                       1.3306448
   381   7 N      382   6 C                                       1.3305914
   378   6 C      383   6 C                                       1.3998409
   382   6 C      383   6 C                                       1.3834986
   375   6 C      384   6 C                                       1.4033183
   384   6 C      385   6 C                                       1.4497505
   385   6 C      386   6 C                                       1.3496877
   349   6 C      387   6 C                                       1.4079674
   386   6 C      387   6 C                                       1.4495838
   384   6 C      388   7 N                                       1.3556445
   387   6 C      388   7 N                                       1.3517285
   351   6 C      389   1 H                                       1.0779880
   352   6 C      390   1 H                                       1.0780593
   354   7 N      391   1 H                                       1.0145773
   359   6 C      392   1 H                                       1.0832875
   360   6 C      393   1 H                                       1.0861979
   362   6 C      394   1 H                                       1.0862107
   363   6 C      395   1 H                                       1.0833424
   365   6 C      396   1 H                                       1.0782594
   366   6 C      397   1 H                                       1.0781882
   371   6 C      398   1 H                                       1.0779866
   372   6 C      399   1 H                                       1.0780586
   374   7 N      400   1 H                                       1.0145782
   379   6 C      401   1 H                                       1.0832891
   380   6 C      402   1 H                                       1.0861996
   382   6 C      403   1 H                                       1.0862111
   383   6 C      404   1 H                                       1.0833425
   385   6 C      405   1 H                                       1.0782591
   386   6 C      406   1 H                                       1.0781896
   407   6 C      408   6 C                                       1.4097050
   408   6 C      409   6 C                                       1.4176542
   409   6 C      410   6 C                                       1.3698719
   410   6 C      411   6 C                                       1.4180391
   408   6 C      412   7 N                                       1.3640001
   411   6 C      412   7 N                                       1.3652820
   411   6 C      413   6 C                                       1.4072920
   414   6 C      415   6 C                                       1.2135493
   416   6 C      417   6 C                                       1.3998596
   417   6 C      418   6 C                                       1.3834551
   418   6 C      419   7 N                                       1.3306458
   419   7 N      420   6 C                                       1.3305921
   416   6 C      421   6 C                                       1.3998496
   420   6 C      421   6 C                                       1.3834940
   413   6 C      422   6 C                                       1.4033654
   422   6 C      423   6 C                                       1.4497435
   423   6 C      424   6 C                                       1.3497030
   422   6 C      425   7 N                                       1.3556101
   424   6 C      426   6 C                                       1.4495613
   425   7 N      426   6 C                                       1.3517859
   426   6 C      427   6 C                                       1.4079410
   427   6 C      428   6 C                                       1.4097377
   428   6 C      429   6 C                                       1.4176388
   429   6 C      430   6 C                                       1.3698886
   430   6 C      431   6 C                                       1.4180092
   428   6 C      432   7 N                                       1.3640288
   431   6 C      432   7 N                                       1.3652501
   431   6 C      433   6 C                                       1.4073405
   434   6 C      435   6 C                                       1.2135494
   436   6 C      437   6 C                                       1.3998718
   437   6 C      438   6 C                                       1.3834493
   438   6 C      439   7 N                                       1.3306473
   439   7 N      440   6 C                                       1.3305938
   436   6 C      441   6 C                                       1.3998392
   440   6 C      441   6 C                                       1.3834990
   433   6 C      442   6 C                                       1.4033010
   442   6 C      443   6 C                                       1.4497619
   443   6 C      444   6 C                                       1.3496849
   407   6 C      445   6 C                                       1.4079734
   444   6 C      445   6 C                                       1.4495856
   442   6 C      446   7 N                                       1.3556542
   445   6 C      446   7 N                                       1.3517139
   409   6 C      447   1 H                                       1.0779880
   410   6 C      448   1 H                                       1.0780596
   412   7 N      449   1 H                                       1.0145771
   417   6 C      450   1 H                                       1.0832861
   418   6 C      451   1 H                                       1.0861980
   420   6 C      452   1 H                                       1.0862122
   421   6 C      453   1 H                                       1.0833440
   423   6 C      454   1 H                                       1.0782609
   424   6 C      455   1 H                                       1.0781912
   429   6 C      456   1 H                                       1.0779851
   430   6 C      457   1 H                                       1.0780588
   432   7 N      458   1 H                                       1.0145777
   437   6 C      459   1 H                                       1.0832901
   438   6 C      460   1 H                                       1.0862009
   440   6 C      461   1 H                                       1.0862116
   441   6 C      462   1 H                                       1.0833420
   443   6 C      463   1 H                                       1.0782596
   444   6 C      464   1 H                                       1.0781905
   465   6 C      466   6 C                                       1.4096122
   466   6 C      467   6 C                                       1.4177351
   467   6 C      468   6 C                                       1.3697970
   468   6 C      469   6 C                                       1.4181476
   466   6 C      470   7 N                                       1.3639884
   469   6 C      470   7 N                                       1.3653216
   469   6 C      471   6 C                                       1.4070908
   472   6 C      473   6 C                                       1.2135616
   474   6 C      475   6 C                                       1.3998705
   475   6 C      476   6 C                                       1.3834467
   476   6 C      477   7 N                                       1.3306560
   477   7 N      478   6 C                                       1.3306002
   474   6 C      479   6 C                                       1.3998572
   478   6 C      479   6 C                                       1.3834853
   471   6 C      480   6 C                                       1.4036405
   480   6 C      481   6 C                                       1.4498036
   481   6 C      482   6 C                                       1.3496603
   480   6 C      483   7 N                                       1.3552187
   482   6 C      484   6 C                                       1.4495834
   483   7 N      484   6 C                                       1.3522257
   484   6 C      485   6 C                                       1.4074706
   485   6 C      486   6 C                                       1.4093136
   486   6 C      487   6 C                                       1.4177478
   487   6 C      488   6 C                                       1.3698129
   488   6 C      489   6 C                                       1.4181196
   486   6 C      490   7 N                                       1.3642279
   489   6 C      490   7 N                                       1.3651148
   489   6 C      491   6 C                                       1.4073517
   492   6 C      493   6 C                                       1.2135455
   494   6 C      495   6 C                                       1.3998873
   495   6 C      496   6 C                                       1.3834386
   496   6 C      497   7 N                                       1.3306575
   497   7 N      498   6 C                                       1.3306008
   494   6 C      499   6 C                                       1.3998345
   498   6 C      499   6 C                                       1.3834980
   491   6 C      500   6 C                                       1.4033126
   500   6 C      501   6 C                                       1.4498195
   501   6 C      502   6 C                                       1.3496636
   465   6 C      503   6 C                                       1.4079729
   502   6 C      503   6 C                                       1.4496182
   500   6 C      504   7 N                                       1.3556412
   503   6 C      504   7 N                                       1.3517021
   467   6 C      505   1 H                                       1.0779918
   468   6 C      506   1 H                                       1.0780642
   470   7 N      507   1 H                                       1.0145763
   475   6 C      508   1 H                                       1.0832865
   476   6 C      509   1 H                                       1.0861999
   478   6 C      510   1 H                                       1.0862155
   479   6 C      511   1 H                                       1.0833446
   481   6 C      512   1 H                                       1.0782604
   482   6 C      513   1 H                                       1.0781840
   487   6 C      514   1 H                                       1.0779948
   488   6 C      515   1 H                                       1.0780640
   490   7 N      516   1 H                                       1.0145794
   495   6 C      517   1 H                                       1.0832936
   496   6 C      518   1 H                                       1.0862061
   498   6 C      519   1 H                                       1.0862153
   499   6 C      520   1 H                                       1.0833411
   501   6 C      521   1 H                                       1.0782613
   502   6 C      522   1 H                                       1.0781944

 * 4 distinct bonds (by element types)

   Z      Z             #   av. dist./Å        max./Å        min./Å
   1 H    6 C         130     1.0815247     1.0862443     1.0779848
   6 C    6 C         268     1.3736464     1.4525906     1.2135024
   1 H    7 N          16     1.0145782     1.0146740     1.0144894
   6 C    7 N          96     1.3496829     1.3677651     1.3305906


optimized geometry written to: xtbopt.xyz


           -------------------------------------------------
          | TOTAL ENERGY             -922.435839541769 Eh   |
          | GRADIENT NORM               0.000600744619 Eh/α |
          | HOMO-LUMO GAP               0.723547554320 eV   |
           -------------------------------------------------

------------------------------------------------------------------------
 * finished run on 2022/07/29 at 08:10:18.747     
------------------------------------------------------------------------
 total:
 * wall-time:     0 d,  1 h,  8 min, 11.972 sec
 *  cpu-time:     0 d,  1 h,  7 min, 43.340 sec
 * ratio c/w:     0.993 speedup
 SCF:
 * wall-time:     0 d,  0 h,  5 min, 48.231 sec
 *  cpu-time:     0 d,  0 h,  5 min, 45.735 sec
 * ratio c/w:     0.993 speedup
 ANC optimizer:
 * wall-time:     0 d,  1 h,  2 min, 23.009 sec
 *  cpu-time:     0 d,  1 h,  1 min, 56.943 sec
 * ratio c/w:     0.993 speedup

