118
 energy: -200.781400961839 gnorm: 6.156887452731 xtb: 6.5.1 (b24c23e)
Cu          13.15859300000000        0.04826800000000        0.00435000000000
C            9.82203000000000       -0.10780300000000       -0.00606300000000
C           10.48613900000000       -1.26000700000000       -0.13389200000000
C            9.83646100000000       -2.55674800000000       -0.28428100000000
C           10.77829000000000       -3.48046000000000       -0.33167400000000
C           12.08311900000000       -2.81604000000000       -0.21220600000000
N           11.90483300000000       -1.40446100000000       -0.09176900000000
C           13.27332200000000       -3.44776600000000       -0.16702600000000
C           14.56695500000000       -2.73172900000000       -0.01655800000000
C           15.85749800000000       -3.40652700000000        0.16835400000000
C           16.79221400000000       -2.48005100000000        0.22614800000000
N           14.70757300000000       -1.44267400000000       -0.07652600000000
C           16.10707800000000       -1.20263700000000        0.07074700000000
C           16.70165200000000       -0.00020900000000        0.00005800000000
C           15.94063800000000        1.25737400000000       -0.17885200000000
C           16.47760600000000        2.40244500000000       -0.58105700000000
C           15.43387100000000        3.40719600000000       -0.53899900000000
C           14.32785300000000        2.81075100000000       -0.10970500000000
C           13.04274500000000        3.51276400000000        0.14149800000000
C           13.06186500000000        4.98756500000000        0.29945800000000
C           12.40260200000000        5.81351700000000       -0.62679000000000
C           12.44130400000000        7.20363100000000       -0.48169200000000
C           13.14285900000000        7.77759000000000        0.58228300000000
C           13.80890200000000        6.96235600000000        1.50178100000000
C           13.77210800000000        5.57170300000000        1.36085800000000
C           11.87769700000000        2.84276200000000        0.23020000000000
C           10.56533800000000        3.42369800000000        0.50898400000000
C            9.70374500000000        2.42662600000000        0.45650000000000
C           10.45672700000000        1.20967700000000        0.15821700000000
N           11.72487800000000        1.43978500000000        0.02478400000000
N           14.55761200000000        1.42212400000000        0.13731800000000
C           13.31210300000000       -4.92267600000000       -0.25893300000000
C           13.21111500000000       -5.55482700000000       -1.50782900000000
C           13.24920700000000       -6.95007600000000       -1.59242100000000
C           13.38912300000000       -7.71860900000000       -0.43282100000000
C           13.49097100000000       -7.09302700000000        0.81342900000000
C           13.45259000000000       -5.69807600000000        0.90228100000000
H            8.73862900000000       -0.13640300000000       -0.00905200000000
H            8.77213500000000       -2.74646500000000       -0.33880500000000
H           10.59285700000000       -4.54232700000000       -0.42945800000000
H           16.03491800000000       -4.47137700000000        0.24045900000000
H           17.85088400000000       -2.66453500000000        0.35099900000000
H           17.50694600000000        2.57012700000000       -0.86821800000000
H           15.54672100000000        4.45383900000000       -0.79041700000000
H           11.86374200000000        5.38020600000000       -1.46047000000000
H           11.93003200000000        7.83607000000000       -1.19584600000000
H           13.17275900000000        8.85385900000000        0.69257700000000
H           14.35470400000000        7.40811700000000        2.32325300000000
H           14.29319700000000        4.94981000000000        2.07847700000000
H           10.32049300000000        4.45590700000000        0.72192100000000
H            8.63646900000000        2.50809400000000        0.61537500000000
H           13.10304000000000       -4.96727800000000       -2.41128900000000
H           13.17064300000000       -7.43553900000000       -2.55654400000000
H           13.41876100000000       -8.79842700000000       -0.49995900000000
H           13.59956900000000       -7.68903600000000        1.71028600000000
H           13.53222700000000       -5.22179100000000        1.87179100000000
Cu          28.38037900000000       -0.04882700000000        0.00224100000000
C           31.71694200000000        0.10754800000000       -0.00138500000000
C           31.05283300000000        1.26421600000000       -0.07906200000000
C           31.70251100000000        2.56626500000000       -0.17300400000000
C           30.76068200000000        3.49116400000000       -0.18024200000000
C           29.45585300000000        2.82218200000000       -0.08973700000000
N           29.63413900000000        1.40670500000000       -0.03070800000000
C           28.26565000000000        3.45135100000000       -0.01716900000000
C           26.97201700000000        2.72945500000000        0.10206500000000
C           25.68147400000000        3.39558800000000        0.31610400000000
C           24.74675800000000        2.46747600000000        0.33361400000000
N           26.83139900000000        1.44422000000000       -0.01381900000000
C           25.43189400000000        1.19801500000000        0.12289200000000
C           24.83732000000000       -0.00020900000000        0.00005800000000
C           25.59833400000000       -1.24883800000000       -0.23329000000000
C           25.06136600000000       -2.37536400000000       -0.68483600000000
C           26.10510100000000       -3.38099400000000       -0.68644600000000
C           27.21111900000000       -2.80375200000000       -0.23165900000000
C           28.49622700000000       -3.51601100000000       -0.01117600000000
C           28.47710700000000       -4.99628000000000        0.08259800000000
C           29.13637000000000       -5.78123300000000       -0.87864100000000
C           29.09766800000000       -7.17633600000000       -0.79404200000000
C           28.39611300000000       -7.79595400000000        0.24400700000000
C           27.73007000000000       -7.02141500000000        1.19803700000000
C           27.76686400000000       -5.62595500000000        1.11763200000000
C           29.66127500000000       -2.85049200000000        0.10653600000000
C           30.97363400000000       -3.44298600000000        0.35983100000000
C           31.83522700000000       -2.44457500000000        0.35069200000000
C           31.08224500000000       -1.21582200000000        0.10553200000000
N           29.81409400000000       -1.43991900000000       -0.03776700000000
N           26.98136000000000       -1.42716100000000        0.07542800000000
C           28.22686900000000        4.92886000000000       -0.04494600000000
C           28.32785700000000        5.61464500000000       -1.26521500000000
C           28.28976500000000        7.01225100000000       -1.28914300000000
C           28.14984900000000        7.72970700000000       -0.09726600000000
C           28.04800100000000        7.05060000000000        1.12064500000000
C           28.08638200000000        5.65310700000000        1.14884200000000
H           32.80034300000000        0.13625100000000       -0.00313000000000
H           32.76683700000000        2.75817000000000       -0.21923800000000
H           30.94611500000000        4.55627500000000       -0.23182600000000
H           25.50405400000000        4.45630300000000        0.43437900000000
H           23.68808800000000        2.64636500000000        0.46635800000000
H           24.03202600000000       -2.53041900000000       -0.97900800000000
H           25.99225100000000       -4.41573200000000       -0.98307500000000
H           29.67523000000000       -5.31213100000000       -1.69272100000000
H           29.60894000000000       -7.77716900000000       -1.53498400000000
H           28.36621299999999       -8.87599700000000        0.30746400000000
H           27.18426800000000       -7.50242500000000        1.99937900000000
H           27.24577500000000       -5.03580800000000        1.86157800000000
H           31.21847900000000       -4.48346700000000        0.52774800000000
H           32.90250300000000       -2.53286500000000        0.50587900000000
H           28.43593200000000        5.06688000000000       -2.19333500000000
H           28.36832900000000        7.53912000000000       -2.23127700000000
H           28.12021100000000        8.81142200000000       -0.11745300000000
H           27.93940300000000        7.60710400000000        2.04253600000000
H           28.00674500000000        5.13517400000000        2.09675600000000
C           21.37340600000000        0.00110200000000        0.00849000000000
C           20.16446700000000       -0.01235300000000        0.00004300000000
C           18.74293800000000       -0.00353300000000       -0.01194000000000
C           17.53126800000000        0.00390500000000       -0.00107700000000
C           22.79001100000000       -0.00557300000000        0.00902300000000
C           24.01070600000000        0.00390500000000       -0.00107700000000
118
 energy: -202.468981459304 gnorm: 0.824676919952 xtb: 6.5.1 (b24c23e)
Cu          13.16032501214371        0.04766750099687        0.00419677971033
C            9.82226568236637       -0.10231066082996       -0.00540190536521
C           10.48928159235748       -1.26180304331082       -0.13410230407234
C            9.83556548708176       -2.55474243687645       -0.28409406544711
C           10.78092189825335       -3.48149417284394       -0.33174319806364
C           12.08148920899877       -2.81348276374349       -0.21228988119348
N           11.89977732800268       -1.40887539365860       -0.09184458405249
C           13.27794560159004       -3.44658166468768       -0.16653654739285
C           14.56434850380512       -2.73869989146083       -0.01675402807331
C           15.85302042226944       -3.40960805380484        0.16777109670189
C           16.79294754330169       -2.47535493765226        0.22599145998893
N           14.70914747227005       -1.44183797831446       -0.07588356639734
C           16.08538330599698       -1.21505494461067        0.07139590436631
C           16.52000657140182        0.00286625167678        0.00011573356370
C           15.92259107840542        1.25882207325865       -0.17748327755857
C           16.47789345718762        2.40813046463730       -0.58219304612883
C           15.44017977328956        3.40794068303092       -0.54032384137932
C           14.32256680064590        2.80812827403700       -0.10711918177099
C           13.04618939815192        3.51128422958169        0.14106942276517
C           13.06253734170349        4.98791270310088        0.29912844510379
C           12.40292082811956        5.81408890500163       -0.62589894463385
C           12.44183953466620        7.20289507955354       -0.48091266982264
C           13.14282917578079        7.77662585340655        0.58218195537039
C           13.80827092381923        6.96179708885831        1.50092485442937
C           13.77181190099585        5.57252148839948        1.36019470968272
C           11.87659364685333        2.84219500465686        0.23035978860895
C           10.56794489669971        3.42470729583698        0.50878830355888
C            9.70155991016724        2.42349663338547        0.45625289940662
C           10.45102561738049        1.20626387450166        0.15810311050986
N           11.72648270430688        1.44297452700830        0.02502046628625
N           14.55818868023126        1.42559487395453        0.13599969883548
C           13.31246396672914       -4.92369866118484       -0.25890153930500
C           13.21114186329766       -5.55566216542413       -1.50702295342483
C           13.24927801151812       -6.94956530111799       -1.59136031401133
C           13.38909574291861       -7.71760013540020       -0.43275970829831
C           13.49084537634178       -7.09240730844213        0.81245139169848
C           13.45263795049353       -5.69886695808911        0.90140418921883
H            8.73868560015972       -0.13600406935941       -0.00891202357200
H            8.77216902874110       -2.74564065711981       -0.33876309552549
H           10.59381996581445       -4.54234130429745       -0.42943977987409
H           16.03412258609497       -4.47157244267562        0.24041603401025
H           17.85076288860801       -2.66332465390660        0.35096461955415
H           17.50687545711395        2.57012857732351       -0.86827144941003
H           15.54704209188108        4.45366841461214       -0.79054131516683
H           11.86383919898645        5.38007819386689       -1.46037620878975
H           11.93004097574731        7.83602223558168       -1.19586129894405
H           13.17276553363091        8.85386763122998        0.69257134017801
H           14.35469491662884        7.40806729181779        2.32325188135011
H           14.29310943953538        4.94971590247392        2.07834109577525
H           10.32141278514349        4.45586609444340        0.72180651203501
H            8.63635996350649        2.50738603291314        0.61526883323866
H           13.10306745878338       -4.96718344908584       -2.41113326166236
H           13.17064709117826       -7.43550605502494       -2.55654476525161
H           13.41876382488013       -8.79843214960294       -0.49995989174026
H           13.59956085565619       -7.68900785098995        1.71029196179551
H           13.53220178710102       -5.22168664222582        1.87164841586341
Cu          28.37865234751856       -0.04821924773912        0.00211331264377
C           31.71670756096468        0.10202728303495       -0.00096297333525
C           31.04968742173978        1.26602244240755       -0.07919499250945
C           31.70340667697655        2.56425132999101       -0.17290390585622
C           30.75804742110816        3.49220027997542       -0.18026708036334
C           29.45748196824226        2.81963818393214       -0.08993307851271
N           29.63919764895967        1.41111370582522       -0.03058751767194
C           28.26103043244565        3.45014687026952       -0.01673032056852
C           26.97461028311304        2.73645698918605        0.10217829090980
C           25.68597859079658        3.39870064795566        0.31565295030985
C           24.74602827474286        2.46275621691168        0.33325141656487
N           26.82983083808886        1.44336269010541       -0.01322102515328
C           25.45372857760647        1.21043357985197        0.12405471864474
C           25.02116697320119       -0.00455569713487       -0.00028657339059
C           25.61651827185356       -1.25049037171501       -0.23204092276202
C           25.06107149094936       -2.38098209949499       -0.68621442618195
C           26.09880226294644       -3.38168279236092       -0.68779857917752
C           27.21639498855883       -2.80124747117263       -0.22896403039021
C           28.49279103930594       -3.51451432803841       -0.01153858678538
C           28.47643439293992       -4.99661274503886        0.08225383516133
C           29.13605120199054       -5.78184305789991       -0.87777572240884
C           29.09713247128706       -7.17563462791708       -0.79323133771728
C           28.39614283256777       -7.79498636146634        0.24394789823779
C           27.73070107075531       -7.02081940030312        1.19720592126991
C           27.76715995379596       -5.62674407676019        1.11693392090555
C           29.66237396125174       -2.84993561464702        0.10671974953423
C           30.97102934057243       -3.44398559221365        0.35959214644276
C           31.83741152509727       -2.44144003360559        0.35058141168694
C           31.08794714553797       -1.21240326778373        0.10556643407298
N           29.81248845461448       -1.44311357863136       -0.03767257160849
N           26.98078533466964       -1.43056846422403        0.07396289584466
C           28.22650806760897        4.92987954137690       -0.04487036113012
C           28.32783011412267        5.61544434345813       -1.26437349247235
C           28.28969396138015        7.01169462681159       -1.28810536308407
C           28.14987624806143        7.72869640246315       -0.09724852187102
C           28.04812670107822        7.05002321330451        1.11964123331652
C           28.08633399706596        5.65393521055390        1.14800038064232
H           32.80028644117530        0.13584620188503       -0.00300719685134
H           32.76680297317851        2.75734446111597       -0.21923202758562
H           30.94515198338952        4.55628849663184       -0.23180713333186
H           25.50484988403952        4.45649971828813        0.43434526232347
H           23.68820984998769        2.64515382287969        0.46627070771656
H           24.03209334574549       -2.53041326988187       -0.97905971255815
H           25.99192926844464       -4.41555549192270       -0.98319156081622
H           29.67513276880856       -5.31200739469976       -1.69262166520158
H           29.60893104705923       -7.77712063469288       -1.53499723543336
H           28.36620645895105       -8.87600540856613        0.30745795737856
H           27.18427707913420       -7.50237532715792        1.99938007771901
H           27.24586255534501       -5.03570815472911        1.86144630295996
H           31.21755930137217       -4.48342123156464        0.52763547720750
H           32.90261199697265       -2.53215318290718        0.50580373191572
H           28.43590455116856        5.06677878125459       -2.19318352026928
H           28.36832492668219        7.53908716706489       -2.23127928028003
H           28.12020817035732        8.81142724075986       -0.11745366848306
H           27.93941114261997        7.60707564589807        2.04254078909000
H           28.00677018936622        5.13507591290993        2.09660901498363
C           21.37997563832679        0.00120179845802        0.00844888078046
C           20.15778703962756       -0.01238787702187       -0.00003435887502
C           18.78837141051566       -0.00296635797321       -0.01169203479390
C           17.70765874368385        0.00930278907054       -0.00147903441297
C           22.74621194706712       -0.00637170625446        0.00954881055338
C           23.83028378473146        0.00004783848219       -0.00173897425174
118
 energy: -202.653234652920 gnorm: 0.496321061655 xtb: 6.5.1 (b24c23e)
Cu          13.16331178069514        0.04080508910265        0.00381742431411
C            9.82318951027037       -0.08713624493405       -0.00353300779535
C           10.49308594274446       -1.26248550804979       -0.13425358629379
C            9.83546081590072       -2.54893972102331       -0.28351455651878
C           10.78913143135276       -3.48313705487222       -0.33159407025104
C           12.07939161722089       -2.80988924780672       -0.21267599949085
N           11.87984429770765       -1.42752659264025       -0.09367882892051
C           13.28737061977453       -3.44799777539195       -0.16580992158708
C           14.54890891810743       -2.76837369916617       -0.01801587528556
C           15.83815238061490       -3.42408005934372        0.16613735546594
C           16.78044486439908       -2.47245729798072        0.22449131243338
N           14.69083555646380       -1.46256032104306       -0.07058746975426
C           16.03847558750653       -1.23932572210606        0.07622156648365
C           16.45988288378344        0.02085775573905        0.00020566046700
C           15.87508146650750        1.26931389011442       -0.17443022979975
C           16.47086039242434        2.43203846385546       -0.58359405567030
C           15.45776057261504        3.41422778452158       -0.54130863584391
C           14.30966085798030        2.80849078287498       -0.09881725719792
C           13.05728181054316        3.50636714707550        0.14100044429243
C           13.06976771460337        4.98741771129551        0.29530141572700
C           12.40448420237051        5.81453794486998       -0.62155738781805
C           12.44369233529244        7.19951310284842       -0.47750449246612
C           13.14273430526686        7.77285612094448        0.58180116265088
C           13.80549716695363        6.95951799044399        1.49769106421069
C           13.77167410553995        5.57461905704320        1.35621511026703
C           11.87502455435834        2.84141752853353        0.23138923534202
C           10.57379134796133        3.42265973449190        0.50702597436726
C            9.69275778658620        2.41322295924431        0.45523580757322
C           10.43261412950251        1.19964014381113        0.15697669503821
N           11.72321392364343        1.45392172426055        0.02924229615403
N           14.53908904439172        1.44677283770609        0.12947656077614
C           13.31546012766081       -4.92835874862674       -0.25878746742853
C           13.21108964757196       -5.55891250600019       -1.50339288108097
C           13.24929664721668       -6.94808728995699       -1.58732924213774
C           13.38899555030160       -7.71418572747985       -0.43254529134609
C           13.49033971566345       -7.09077396120826        0.80880860156572
C           13.45355417187841       -5.70215715904797        0.89789427251355
H            8.73953045542278       -0.13026181054082       -0.00732037912963
H            8.77232156147991       -2.73727453184936       -0.33823771197050
H           10.60408650431993       -4.54323335405824       -0.42935100890637
H           16.02695992237411       -4.47932443833974        0.23984052747964
H           17.84377133779586       -2.65033585173338        0.35009352603557
H           17.50388249529983        2.57234916029678       -0.86915394266245
H           15.55373040836609        4.45604158999802       -0.79328811157352
H           11.86568232516832        5.37954467637559       -1.45800224461577
H           11.93117782775989        7.83396999173361       -1.19442432334451
H           13.17279148465078        8.85203560258754        0.69229021187743
H           14.35337047391934        7.40658880348073        2.32160544133614
H           14.29174137677804        4.94999929970460        2.07603052633736
H           10.33101821824476        4.45467322529616        0.72048197405021
H            8.63154897553163        2.50038211840890        0.61457918702997
H           13.10352675668272       -4.96754565652175       -2.40801528282930
H           13.17078638090913       -7.43435110816759       -2.55468490995504
H           13.41873236204957       -8.79676342429189       -0.49988840381981
H           13.59921499767788       -7.68785269829206        1.70867161608255
H           13.53191819353972       -5.22191552605012        1.86876740526468
Cu          28.37562908672433       -0.04133994046598        0.00203929046152
C           31.71578086216742        0.08678023485399        0.00025016289994
C           31.04588017815848        1.26671251537293       -0.07931169671274
C           31.70351104227333        2.55842611485171       -0.17257170554382
C           30.74983718326846        3.49383457950591       -0.18003978539055
C           29.45958533654549        2.81606592592033       -0.09046946287809
N           29.65913172855203        1.42982838585757       -0.03161688024887
C           28.25160756404846        3.45154319486832       -0.01594136845940
C           26.99006099401478        2.76620723734480        0.10223932104443
C           25.70085947586367        3.41325967697574        0.31468152854663
C           24.75849217257508        2.46004616483645        0.33163469164560
N           26.84803932711692        1.46392027407517       -0.00693751460057
C           25.50013789375497        1.23465012552038        0.12954675118353
C           25.07951258119745       -0.02154582138110       -0.00242637145496
C           25.66351180280497       -1.26096864565588       -0.22961305039746
C           25.06796606434596       -2.40494871131176       -0.68866196670569
C           26.08117390193422       -3.38791976780649       -0.68904923411422
C           27.22926501411212       -2.80190922160534       -0.22065505526415
C           28.48167839047159       -3.50957932932163       -0.01138568064729
C           28.46919898546066       -4.99594601401567        0.07845287362366
C           29.13448684475555       -5.78247827460928       -0.87345419258923
C           29.09527999381549       -7.17240302350007       -0.78967562648088
C           28.39623747056425       -7.79120329803420        0.24373420274075
C           27.73347439463638       -7.01840193884088        1.19407645038178
C           27.76729713815332       -5.62866581494710        1.11286945588756
C           29.66394004555617       -2.84919285613269        0.10778526068192
C           30.96518325944273       -3.44186348840960        0.35792211903088
C           31.84621369826939       -2.43113366005428        0.35001642866403
C           31.10635945445275       -1.20573428751027        0.10473148573619
N           29.81575332703380       -1.45423276723615       -0.03392278344739
N           26.99969092654958       -1.45138064653665        0.06650288618193
C           28.22351910594942        4.93453565931667       -0.04455152002676
C           28.32788346105600        5.61853565680640       -1.26060321184040
C           28.28967526852657        7.01004390319197       -1.28413954642898
C           28.14997654029324        7.72527613732798       -0.09717883188205
C           28.04863159536230        7.04855030423925        1.11593487631005
C           28.08541824713899        5.65737567095692        1.14463995103048
H           32.79944027495206        0.13003848365121       -0.00165989633104
H           32.76665006609688        2.74896197586027       -0.21906498288596
H           30.93488565880260        4.55717555006224       -0.23167493635680
H           25.51202026791129        4.46428603468641        0.43411756462801
H           23.69519085199892        2.63228973816513        0.46483389805428
H           24.03501837403120       -2.53266377521148       -0.98007831735644
H           25.98525039166930       -4.41781126676306       -0.98603522761805
H           29.67329006271726       -5.31157720752564       -1.69022270309966
H           29.60779466830575       -7.77513223462101       -1.53346867758779
H           28.36618031875108       -8.87416274795858        0.30725952254373
H           27.18560080521260       -7.50082674270921        1.99780159407021
H           27.24722977657018       -5.03589131917061        1.85912859110435
H           31.20795323486462       -4.48217231304051        0.52636846950256
H           32.90742297484529       -2.52512738141525        0.50542410824505
H           28.43544643752738        5.06700532627692       -2.19004970685195
H           28.36818660797388        7.53785269136705       -2.22946772701612
H           28.12023989005943        8.80975697702321       -0.11745102388349
H           27.93975608470773        7.60599167855413        2.04087503729209
H           28.00705316410482        5.13542926383938        2.09374408399389
C           21.35542447757994        0.00079585473375        0.00863935477057
C           20.18211136338915       -0.01212025703001        0.00048845004359
C           18.90881764405984        0.00193931010188       -0.01147030351718
C           17.68018660702165        0.02961153024647       -0.00519413709896
C           22.62934210366626       -0.01298866996526        0.01428327412198
C           23.85785569488880       -0.01992795374043       -0.00804735934651
118
 energy: -202.726957353441 gnorm: 0.321743920756 xtb: 6.5.1 (b24c23e)
Cu          13.16213923855869        0.02914086096755        0.00341261253965
C            9.82261708475514       -0.07155046538092       -0.00160405276029
C           10.49182563131852       -1.26420832065896       -0.13470072615080
C            9.83402913340001       -2.54301478538709       -0.28296496670387
C           10.79495759159719       -3.48492882370789       -0.33259493896983
C           12.07152012001509       -2.81149786047750       -0.21415601944698
N           11.85474783892607       -1.45126967396360       -0.09345447460119
C           13.28842965495276       -3.45888773006563       -0.16496542433350
C           14.52498877218323       -2.81391847376093       -0.01706540717879
C           15.81299720500143       -3.44889229580393        0.16135635309755
C           16.74821522223672       -2.47095275598439        0.22393349379629
N           14.66485949206274       -1.49243512009540       -0.05506737316167
C           15.99236618045677       -1.25609990214115        0.08308897327153
C           16.42536136753266        0.04289766541774       -0.00198203815343
C           15.82161101996937        1.28948813271222       -0.17075074509934
C           16.45325690837409        2.46403289217545       -0.58111166921650
C           15.47289753015771        3.43450583484895       -0.53456867507262
C           14.29356799697316        2.82645463939222       -0.09069985298836
C           13.06525993919178        3.50457282982112        0.14109533322436
C           13.08066134298449        4.98647442122530        0.28813670666746
C           12.40731874389474        5.81310741852744       -0.61774689923821
C           12.44503228353831        7.19429426262051       -0.47360558934541
C           13.14251772196974        7.76828765983708        0.58145335351341
C           13.80303227983577        6.95596256081933        1.49402505046123
C           13.77506840419845        5.57525117830006        1.34894687660351
C           11.87004989119580        2.83811054490869        0.23462191552138