118
 energy: -211.291758260294 gnorm: 0.356581299467 xtb: 6.5.1 (b24c23e)
Co          18.03371900000000       -0.03069500000000       -0.00253100000000
C           14.69572300000000        0.09246100000000        0.06954700000000
C           15.35769700000000        1.24190500000000        0.23046900000000
C           14.70682700000000        2.53921200000000        0.36764400000000
C           15.64679600000000        3.44986900000000        0.54033100000000
C           16.95187300000000        2.77445400000000        0.53433400000000
N           16.77508700000000        1.37243500000000        0.32725000000000
C           18.14380700000000        3.38030800000000        0.71598800000000
C           18.19301700000000        4.83877200000000        0.96825900000000
C           17.71033800000000        5.36791500000000        2.17596600000000
C           17.77329200000000        6.74376200000000        2.41645100000000
C           18.32412700000000        7.60030600000000        1.45479000000000
C           18.39013900000000        9.01652900000000        1.70350300000000
N           18.44319800000000       10.15510400000000        1.90355000000000
C           18.81323500000000        7.07530300000000        0.25185600000000
C           18.74991800000000        5.69964700000000        0.01006300000000
C           19.43524000000000        2.64458300000000        0.68447200000000
C           20.71858200000000        3.22966300000000        1.09176600000000
C           21.65338300000000        2.31976900000000        0.90695600000000
N           19.57826900000000        1.42273800000000        0.27088100000000
C           20.97359900000000        1.14203400000000        0.38177200000000
C           21.56815900000000        0.00000000000000        0.00000000000000
C           20.80494600000000       -1.16009200000000       -0.51142700000000
C           21.33586400000000       -2.15261100000000       -1.21428400000000
C           20.29324800000000       -3.13840800000000       -1.42377800000000
C           19.19534000000000       -2.68451500000000       -0.83026300000000
N           19.42873600000000       -1.41119000000000       -0.22635800000000
C           17.91684600000000       -3.43585100000000       -0.74414200000000
C           17.94010500000000       -4.90139000000000       -0.97168400000000
C           17.25593400000000       -5.46543300000000       -2.06112900000000
C           17.29781700000000       -6.84543000000000       -2.28149300000000
C           18.02947100000000       -7.67230500000000       -1.41988700000000
C           18.07348700000000       -9.09286900000000       -1.64792300000000
N           18.10891000000000      -10.23495100000000       -1.83117900000000
C           18.72120200000000       -7.11335600000000       -0.33797000000000
C           18.67928500000000       -5.73352900000000       -0.11625200000000
C           16.75452500000000       -2.81671800000000       -0.46145800000000
C           15.44723700000000       -3.45448400000000       -0.31448000000000
C           14.58525600000000       -2.47953200000000       -0.09908400000000
C           15.33346600000000       -1.22355400000000       -0.09417400000000
N           16.59849100000000       -1.40787400000000       -0.30442700000000
H           13.61236200000000        0.12028700000000        0.06019000000000
H           13.64347600000000        2.73835300000000        0.33043700000000
H           15.45876100000000        4.50862500000000        0.66159100000000
H           17.28803200000000        4.71413700000000        2.92923700000000
H           17.39520800000000        7.13881700000000        3.35175200000000
H           19.24406500000000        7.72844900000000       -0.49748500000000
H           19.13296400000000        5.30441700000000       -0.92281700000000
H           20.88924900000000        4.22576500000000        1.47854900000000
H           22.70716100000000        2.45176500000000        1.11317900000000
H           22.36163300000000       -2.23301000000000       -1.54831700000000
H           20.40236200000000       -4.08086500000000       -1.94464900000000
H           16.69458100000000       -4.83538300000000       -2.74016100000000
H           16.76309200000000       -7.26666400000000       -3.12435100000000
H           19.29312300000000       -7.74335200000000        0.33270300000000
H           19.21965400000000       -5.31296200000000        0.72306200000000
H           15.20564100000000       -4.50795200000000       -0.36561000000000
H           13.52063800000000       -2.60240900000000        0.05076600000000
Co          29.19410200000000        0.03051300000000       -0.00418900000000
C           32.53209900000000       -0.08856000000000        0.07445100000000
C           31.87012400000000       -1.22760700000000        0.29736300000000
C           32.52099500000000       -2.51558500000000        0.50456800000000
C           31.58102500000000       -3.41555900000000        0.72630200000000
C           30.27594800000000       -2.74145800000000        0.68375000000000
N           30.45273400000000       -1.35270700000000        0.40106900000000
C           29.08401500000000       -3.33659000000000        0.89793600000000
C           29.03480400000000       -4.77925900000000        1.22879200000000
C           29.51748300000000       -5.24224400000000        2.46337500000000
C           29.45452999999999       -6.60305500000000        2.77799000000000
C           28.90369400000000       -7.51040400000000        1.86411000000000
C           28.83768200000000       -8.91108500000000        2.18912800000000
N           28.78462300000000      -10.03716100000000        2.45051900000000
C           28.41458600000000       -7.05129300000000        0.63451800000000
C           28.47790300000000       -5.69074400000000        0.31860600000000
C           27.79258100000000       -2.60365000000000        0.82663700000000
C           26.50923999999999       -3.16582200000000        1.26500700000000
C           25.57443800000000       -2.26726800000000        1.03121000000000
N           27.64955300000000       -1.40598700000000        0.34750600000000
C           26.25422200000000       -1.11969100000000        0.44303700000000
C           25.65966200000000        0.00000000000000        0.00000000000000
C           26.42287500000000        1.13070400000000       -0.57348100000000
C           25.89195700000000        2.08371700000000       -1.32903800000000
C           26.93457400000000        3.05672700000000       -1.59159300000000
C           28.03248100000000        2.63563000000000       -0.97437600000000
N           27.79908500000000        1.39686600000000       -0.30242300000000
C           29.31097500000000        3.39052800000000       -0.92905500000000
C           29.28771600000000        4.84159900000000       -1.23560300000000
C           29.97188700000000        5.34583600000000       -2.35398500000000
C           29.93000500000000        6.71188000000000       -2.64873400000000
C           29.19835100000000        7.58418700000000       -1.83315600000000
C           29.15433500000000        8.99032200000000       -2.13776200000000
N           29.11891100000000       10.12080900000000       -2.38257700000000
C           28.50661900000000        7.08462800000000       -0.72256600000000
C           28.54853600000000        5.71882800000000       -0.42647400000000
C           30.47329600000000        2.78760500000000       -0.61326800000000
C           31.78058500000000        3.43239300000000       -0.50103200000000
C           32.64256500000000        2.47053200000000       -0.23317100000000
C           31.89435600000000        1.21666100000000       -0.16027500000000
N           30.62933000000000        1.38932900000000       -0.38019800000000
H           33.61545900000000       -0.11685200000000        0.06661400000000
H           33.58434500000000       -2.71644800000000        0.47819700000000
H           31.76906000000000       -4.46619700000000        0.90470200000000
H           29.93978900000000       -4.54864500000000        3.18014800000000
H           29.83261299999999       -6.94689700000000        3.73330700000000
H           27.98375700000000       -7.74404700000000       -0.07836500000000
H           28.09485700000000       -5.34659600000000       -0.63430200000000
H           26.33857300000000       -4.13952500000000        1.70514800000000
H           24.52066000000000       -2.38790700000000        1.24427600000000
H           24.86618800000000        2.14591500000000       -1.66693300000000
H           26.82545900000000        3.96960500000000       -2.16272100000000
H           30.53324100000000        4.67994900000000       -2.99791300000000
H           30.46473000000000        7.08686700000000       -3.51316000000000
H           27.93469800000000        7.75000800000000       -0.08698200000000
H           28.00816700000000        5.34431500000000        0.43437700000000
H           32.02218000000000        4.48154800000000       -0.60911900000000
H           33.70718400000000        2.60134100000000       -0.09019300000000
C           23.00295200000000        0.00000000000000        0.00000000000000
C           24.22487000000000        0.00000000000000        0.00000000000000
118
 energy: -211.359849970671 gnorm: 0.209011912543 xtb: 6.5.1 (b24c23e)
Co          18.04776804401274       -0.01511815873443        0.00772457310897
C           14.69638394288323        0.06981006486008        0.06779907650051
C           15.36727344324480        1.23510083435159        0.22803725307111
C           14.71427788130754        2.52506435876179        0.36466579498832
C           15.66801408900128        3.44492724743713        0.54023993872344
C           16.95856587084905        2.76021395022057        0.53033707122749
N           16.76216836253836        1.38046631220531        0.31840840236656
C           18.16365603126550        3.37463863852793        0.71797194273224
C           18.20601579699598        4.83847117740485        0.97311708169504
C           17.71204175204969        5.37242722118147        2.16935200168053
C           17.77355054153703        6.73985692477819        2.41125805619159
C           18.32418089664014        7.59890131486857        1.45443475957967
C           18.38990401559506        9.00843495973529        1.70210857544668
N           18.44256434674571       10.14007875488339        1.90097740367114
C           18.81160227131451        7.07074906753184        0.25442307753268
C           18.75364490175619        5.70234896782968        0.01874709685509
C           19.42122479163837        2.65982727567806        0.68823678648209
C           20.69345762195979        3.24637111398212        1.08814957408954
C           21.63780104784439        2.31136228633748        0.90090032415054
N           19.57563566819561        1.40603877704354        0.29615119046636
C           20.96151908037573        1.13762749972193        0.38358585980327
C           21.56574595965198       -0.02055353822697       -0.01073632356621
C           20.79500669408360       -1.15900740085862       -0.49670762297312
C           21.34054669447796       -2.18274276718769       -1.21807070559687
C           20.31940738623043       -3.14463876835424       -1.42157635163396
C           19.18783390698040       -2.67130826552286       -0.81503169972939
N           19.41841600541959       -1.39109363131468       -0.26057401948080
C           17.93864238477279       -3.41949271591673       -0.73922650112759
C           17.95887919908477       -4.89111822597152       -0.97902916417199
C           17.26126203451987       -5.46397634432566       -2.05288287645988
C           17.29951465814542       -6.83704535619690       -2.27493303815337
C           18.02932620097177       -7.66844084820236       -1.41906362504668
C           18.07298687279992       -9.08285507391214       -1.64650031716382
N           18.10790010386445      -10.21810623810492       -1.82865890939167
C           18.71814864799246       -7.10571182576218       -0.33964668624925
C           18.68307868047528       -5.73221281192211       -0.12533441841840
C           16.76264876818549       -2.80404318698356       -0.45608924721461
C           15.46218491173556       -3.44128777656801       -0.31583104531683
C           14.57533636257539       -2.45774567391661       -0.09945630599765
C           15.31682026486141       -1.20892392131245       -0.09083417957730
N           16.60964963358625       -1.40567950139400       -0.28184483636514
H           13.61320911072425        0.10273844479946        0.06079910479365
H           13.64971127770706        2.71505007649931        0.32767784470178
H           15.49153100703277        4.50508582467964        0.66378299758529
H           17.29132698640212        4.71581991533158        2.92308778320572
H           17.39698749504125        7.13734293335929        3.34724112457821
H           19.24146639939132        7.72653813222881       -0.49437271062156
H           19.13160213177972        5.30496161441147       -0.91680830478832
H           20.86261369331001        4.23890011590217        1.47586900748303
H           22.69461206592951        2.42814157477466        1.10267135400961
H           22.36269255559990       -2.24959912981583       -1.55558236070258
H           20.41695271624587       -4.08120242816698       -1.94803093016325
H           16.69949214331293       -4.83385323127858       -2.73360195405085
H           16.76578973962901       -7.26154415824873       -3.11870615449256
H           19.28909403040775       -7.73941363878566        0.33011680886100
H           19.21839555342233       -5.31220274297743        0.71852712841169
H           15.23477582758178       -4.49792025949152       -0.36940119136179
H           13.51369041414721       -2.58024364246178        0.05175335346655
Co          29.18005276836575        0.01551417747751        0.00689465408103
C           32.53143784816196       -0.06603711506461        0.07147910415888
C           31.86054803275404       -1.22094488852640        0.29456642593390
C           32.51354390607650       -2.50161991220016        0.50082857962297
C           31.55980755225180       -3.41062926707035        0.72594368361454
C           30.26925573317751       -2.72745586197627        0.67898750119468
N           30.46565382076175       -1.36120544201903        0.39267640644244
C           29.06416562099861       -3.33082170094591        0.89960994251923
C           29.02180530720042       -4.77869534619351        1.23362714314680
C           29.51577942022929       -5.24710791327964        2.45701480694358
C           29.45427093478171       -6.59943657713573        2.77259355039189
C           28.90364028830921       -7.50902034628135        1.86367913337942
C           28.83791686431869       -8.90307841009548        2.18729738559458
N           28.78525673351799      -10.02229690094886        2.44713667533702
C           28.41621892907116       -7.04660679517871        0.63683486922870
C           28.47417624740214       -5.69297197929243        0.32742394045477
C           27.80659641004287       -2.61866832403129        0.83122130999013
C           26.53436410190728       -3.18270179234587        1.26230053201784
C           25.59002010789841       -2.25920152608420        1.02470801424469
N           27.65218583489928       -1.38794435440029        0.37183486108037
C           26.26630200533297       -1.11519310936896        0.44461010482824
C           25.66207509446064        0.01994224087919       -0.01183342210727
C           26.43281414999009        1.13041817310216       -0.55872423554604
C           25.88727411515809        2.11360036516880       -1.33445084873761
C           26.90841359932372        3.06306834224322       -1.58973191459766
C           28.03998700396177        2.62326769545641       -0.95845210009680
N           27.80940415179328        1.37494812014496       -0.33550024321512
C           29.28917875327662        3.37445935577375       -0.92326145031679
C           29.26894198162490        4.83094452830032       -1.24238121357963
C           29.96655929460829        5.34482791807504       -2.34567218997733
C           29.92830727759145        6.70386266828051       -2.64172970083661
C           29.19849593068005        7.58037291478209       -1.83212436500361
C           29.15483356260980        8.98039966877113       -2.13580038741232
N           29.11992185463232       10.10412518436081       -2.37914779253923
C           28.50967264845439        7.07690442837270       -0.72382636322130
C           28.54474241101774        5.71702196792558       -0.43547202396280
C           30.46517241684353        2.77523969450900       -0.60722110042116
C           31.76563676942031        3.41914325670060       -0.50166664827669
C           32.65248504377376        2.44875736913385       -0.23236363352619
C           31.91100173053365        1.20223334759355       -0.15614783313648
N           30.61817171614179        1.38836036434029       -0.35753012631454
H           33.61461231777012       -0.09929622424195        0.06627232518972
H           33.57811015788153       -2.69332915450709        0.47418028630465
H           31.73629048547598       -4.46254464964598        0.90669917317870
H           29.93649395487798       -4.55065860965261        3.17409875392986
H           29.83083357671747       -6.94566914148342        3.72872274132743
H           27.98635523962723       -7.74197091768749       -0.07536089803584
H           28.09621896584004       -5.34681474567818       -0.62827251639963
H           26.36520808156339       -4.15278584897202        1.70318315523996
H           24.53320908226178       -2.36488691498446        1.23250483718587
H           24.86512818841971        2.16208696837310       -1.67508626111897
H           26.81086790639640        3.96975865040199       -2.16611626853763
H           30.52832954066259        4.67877697816138       -2.99128056079498
H           30.46203227942639        7.08206013724691       -3.50724623217759
H           27.93872703693332        7.74593550615052       -0.08935143877613
H           28.00942546673109        5.34331134156593        0.42988976997144
H           31.99304509920567        4.47132607772661       -0.61236134308789
H           33.71413129877831        2.57926155807198       -0.08800720489085
C           23.00232585027449       -0.00663139380107       -0.00998791370036
C           24.22549558197059        0.00608104659162       -0.01033230383224
118
 energy: -211.402406348157 gnorm: 0.060167472132 xtb: 6.5.1 (b24c23e)
Co          18.07526931786508       -0.00242410205625        0.01851041100701
C           14.70487732409224        0.04638672769078        0.06629444893564
C           15.38565865170380        1.23422264461394        0.22110491829383
C           14.72602733386682        2.50926002779895        0.36106927236949
C           15.69170964090814        3.43630468583959        0.53913716350493
C           16.96122942593034        2.74089243448197        0.52178531229694
N           16.74982059339358        1.39101551323485        0.31204406735556
C           18.18612447407176        3.36219338226915        0.72053722871442
C           18.21381200668250        4.83294631946730        0.97657264797625
C           17.71445395778818        5.37239788485970        2.16483334467804
C           17.77370070389317        6.73329115493768        2.40712277839973
C           18.32400159975350        7.59595688480435        1.45409697124443
C           18.38897992132866        8.99851714465863        1.70046659513126
N           18.44195159308384       10.13119795770222        1.89949235284358
C           18.81083267245081        7.06375554008162        0.25635683472057
C           18.75614355021303        5.70096108199491        0.02587432623176
C           19.40144970517708        2.67501328564309        0.69444288225134
C           20.66428160744105        3.25549994054851        1.07747313397556
C           21.61302304379511        2.29944796965563        0.89294405408086
N           19.57027816781142        1.37844873458984        0.32235874008949
C           20.93744842681699        1.13627192264536        0.39352313615950
C           21.55993651187633       -0.03373518683367       -0.03382578894970
C           20.78399703041308       -1.14346960955960       -0.48854916740925
C           21.34222164951012       -2.21926243142246       -1.21352254827906
C           20.35661435999124       -3.14550452910590       -1.40700377879748
C           19.17845483697362       -2.64724146574303       -0.80279167549385
N           19.42220302558353       -1.37457007117902       -0.29477120921024
C           17.97256489142295       -3.39141270084992       -0.73747765064485
C           17.98012788806490       -4.87175114120625       -0.98753764245040
C           17.27025138138745       -5.45540516002682       -2.04678229771516
C           17.30186031667098       -6.82320403913250       -2.26821577124095
C           18.03001212280505       -7.66142811430416       -1.41805814942075
C           18.07179370628908       -9.06952105276859       -1.64419197961015
N           18.10769463491728      -10.20576641520060       -1.82699642539732
C           18.71773288738973       -7.09375998586820       -0.34135248355325
C           18.68948253354409       -5.72486343270590       -0.13460563319660
C           16.77271996973438       -2.78108174370872       -0.44015161904827
C           15.48517477122266       -3.41992477156485       -0.31595485304065
C           14.57550505407016       -2.43393074846483       -0.10443198094406
C           15.30087534462520       -1.19045084707031       -0.08478313546166
N           16.63004091037374       -1.40392908693215       -0.25251388570780
H           13.62059318917997        0.09067269525014        0.06772506243727
H           13.66006511832929        2.68657855012302        0.32505877280677
H           15.52937621663842        4.49727480842904        0.66610308100240
H           17.29307549893226        4.71400085595098        2.91793976894146
H           17.39701163103908        7.13550014084690        3.34192518958118
H           19.23773157802364        7.72398854823031       -0.49142388454744
H           19.13246346609115        5.30156480269316       -0.91070506199735
H           20.83333886073265        4.24538552992125        1.46641209298218
H           22.67361208070226        2.40000066337584        1.08761538015177
H           22.36311514047047       -2.26399773354662       -1.55395875315423
H           20.43022000836815       -4.07907122581578       -1.94084103369445
H           16.70436734175184       -4.82757708682312       -2.72778201878563
H           16.76698331696958       -7.25312504888341       -3.11019566131692
H           19.28368992537740       -7.73337850812014        0.32878333122447
H           19.22167463418041       -5.30692175596075        0.71342203387676
H           15.27277973059474       -4.48001493500304       -0.37437263341847
H           13.51555228496113       -2.55738090590541        0.04752434813723
Co          29.15255175573673        0.00342269685314        0.01835177865521
C           32.52294380264534       -0.04272977514906        0.06870865993863
C           31.84216258587950       -1.22044324641434        0.28759666364727
C           32.50179393526534       -2.48603351551287        0.49638177118644
C           31.53611191089834       -3.40207870762381        0.72437568268297
C           30.26659221058829       -2.70862557730802        0.66940271337997
N           30.47800113763612       -1.37208330468949        0.38689053126963
C           29.04169684146608       -3.31825550906906        0.90149804152610
C           29.01400930778602       -4.77299088769622        1.23677892949154
C           29.51336722672712       -5.24732332302677        2.45250103479780
C           29.45412047859949       -6.59310411444757        2.76810907595980
C           28.90381946948547       -7.50609814293882        1.86318243769494
C           28.83884146461206       -8.89326425600289        2.18512011899168
N           28.78586921735342      -10.01350942165396        2.44517356025928
C           28.41698861270617       -7.03951865173125        0.63838726919766
C           28.47167777888562       -5.69120017341296        0.33446583600831
C           27.82637197007462       -2.63349565045384        0.83824029993408
C           26.56353996080716       -3.19239532598032        1.25213402015393
C           25.61479841845387       -2.24773520191635        1.01611814843311
N           27.65754325107327       -1.35897566780994        0.39651035913019
C           26.29037299848490       -1.11330176241204        0.45445957494948
C           25.66788480799321        0.03185450237753       -0.03560281446393
C           26.44382404925401        1.11534454778222       -0.54973624113903
C           25.88559960845771        2.15031240263141       -1.33188621861209
C           26.87120674837757        3.06472165692685       -1.57522709752268
C           28.04936628465997        2.59989940559581       -0.94492609337602
N           27.80561786986227        1.35659655467577       -0.36875369998246
C           29.25525621045032        3.34651495701705       -0.91999492854855
C           29.24769346784275        4.81114515713897       -1.24982856295113
C           29.95757024047100        5.33659972597408       -2.33911667299410
C           29.92596125347409        6.69040529197429       -2.63427318079043
C           29.19780871530358        7.57342439010614       -1.83074113985420
C           29.15602725988220        8.96721133389009       -2.13276858533418
N           29.12012792766158       10.09189272330654       -2.37682364881160
C           28.51008824512280        7.06487759690197       -0.72488280906865
C           28.53833871564296        5.70918116784545       -0.44433184161893
C           30.45510124134850        2.75317494823483       -0.59006384799307
C           31.74264637421900        3.39780486287329       -0.50063396380148
C           32.65231625035829        2.42470786009738       -0.23604285508903
C           31.92694596489955        1.18411514335035       -0.14910525164064
N           30.59778025997483        1.38820018335451       -0.32814732804467
H           33.60722815743933       -0.08687342275283        0.07253482973934
H           33.56775642125567       -2.66504119067791        0.47002365267478
H           31.69844520834408       -4.45461956502539        0.90859292521031
H           29.93474542503222       -4.54912110075900        3.16885974802760
H           29.83080945525364       -6.94411667865909        3.72331471993922
H           27.99008986726941       -7.73926567403942       -0.07255452971976
H           28.09535775542791       -5.34309260796116       -0.62236200729874
H           26.39448281272333       -4.15977355168008        1.69409120845665
H           24.55420932154165       -2.33760204019996        1.21594737735282
H           24.86470587576463        2.17655201337006       -1.67424455438228
H           26.79760127002142        3.96801922706372       -2.15882136864911
H           30.52345421209063        4.67282549078824       -2.98512922574939
H           30.46083874580790        7.07411416854197       -3.49829240734005
H           27.94413127064120        7.73983691163943       -0.09035628562086
H           28.00614645933272        5.33776159115517        0.42507804034421
H           31.95504125352204        4.45317789160034       -0.61635602809226
H           33.71226888226602        2.55620336286236       -0.09099235122269
C           23.00052370809356       -0.02305739188967       -0.03769668909378
C           24.22729750047625        0.02098267639011       -0.03888973914299
118
 energy: -211.414764472534 gnorm: 0.035395363922 xtb: 6.5.1 (b24c23e)
Co          18.09777739013422        0.00216032472811        0.02140147304285
C           14.71243338736065        0.04625033629748        0.07248686587966
C           15.39681893167534        1.23921894049412        0.21552265256434
C           14.73669421345695        2.50506544325352        0.35474213272530
C           15.70630371016847        3.43291265773470        0.53354358679117
C           16.96286459195048        2.73470955943898        0.51385338590732
N           16.75403627858922        1.39450942219570        0.30301740337525
C           18.19152804169494        3.35368453963659        0.72347306323323
C           18.21922396950070        4.82373317683864        0.97968085319673
C           17.71622785352671        5.36354893006903        2.16534857787975
C           17.77221291970246        6.72480492004218        2.40568768122085
C           18.32315239191496        7.58726827814913        1.45303808268698
C           18.38696597480145        8.98805336019039        1.69858989245829
N           18.44114572164926       10.11975241569148        1.89738376588525
C           18.81236634699477        7.05477149328170        0.25651131326984
C           18.76332222801495        5.69117733394921        0.02942719116604
C           19.39343615168546        2.66242748591009        0.70717153410691
C           20.65239876569141        3.24525541924224        1.06708303287862
C           21.59792793118261        2.28437205126413        0.88464712101864
N           19.56519448850955        1.34822627314681        0.34493882572316
C           20.92343214713293        1.12045777915595        0.40036685003206
C           21.56266057117620       -0.04486747305469       -0.05140183768214
C           20.79947485779545       -1.14132818346730       -0.50287916607041
C           21.36995397691636       -2.24734827951962       -1.20508124674084
C           20.39042982176062       -3.16250028581638       -1.39103489249624
C           19.19448105054461       -2.63616652777402       -0.80612974877549