268
 energy: -423.860678303317 gnorm: 31.007901779178 xtb: 6.5.1 (b24c23e)
Ni          58.57434099999999        1.98275200000000        1.61350900000000
C           54.82324999999999        0.08926900000000       -0.04613100000000
C           55.47288300000000        0.94247000000000        0.75097700000000
C           54.80817600000000        1.86110900000000        1.66731800000000
C           55.73838099999999        2.57426800000000        2.27458200000000
C           57.05061199999999        2.15327800000000        1.76446700000000
N           56.88881400000000        1.10910200000000        0.80357600000000
C           58.23602500000000        2.68356700000000        2.13104700000000
C           58.26988800000000        3.79705000000000        3.10693800000000
C           57.78208600000000        5.06415600000000        2.75626800000000
C           57.83028500000000        6.11600900000000        3.67497700000000
C           58.37134199999999        5.92155800000000        4.95575800000000
N           58.40779700000000        7.02488000000000        5.87975200000000
C           58.94920900000000        6.92733500000000        7.23127400000000
C           58.86676300000000        4.64927900000000        5.30124600000000
C           58.81716100000000        3.59751100000000        4.38186200000000
C           59.53516399999999        2.20504800000000        1.58943400000000
C           60.81196700000000        2.89913000000000        1.79725100000000
C           61.75641999999999        2.18939500000000        1.21398000000000
N           59.69132299999999        1.11540900000000        0.90192800000000
C           61.08943000000000        1.03487600000000        0.62473200000000
C           61.69621200000000        0.02350300000000       -0.01749500000000
C           60.94559199999999       -1.10997300000000       -0.60198800000000
C           61.48732499999999       -2.27739800000000       -0.92537700000000
C           60.45525900000000       -3.06869200000000       -1.56679600000000
C           59.35229800000000       -2.32961700000000       -1.59709100000000
N           59.57196600000000       -1.05661300000000       -0.98741000000000
C           58.08174500000000       -2.74529400000000       -2.24471200000000
C           58.12029700000000       -3.84632100000000       -3.23792400000000
C           58.86601400000000       -3.70294400000000       -4.41658600000000
C           58.92304599999999       -4.74374500000000       -5.34793500000000
C           58.23715800000000       -5.95050700000000       -5.11071600000000
N           58.27589900000000       -7.04085600000000       -6.04990000000000
C           59.01262400000000       -6.99520900000000       -7.30861800000000
C           57.49958800000000       -6.09161200000000       -3.92474500000000
C           57.44388400000000       -5.05088600000000       -2.99389800000000
C           56.91298100000000       -2.14302300000000       -1.95233400000000
C           55.61260399999999       -2.43979400000000       -2.55088500000000
C           54.74030599999999       -1.66353800000000       -1.93732000000000
C           55.47505900000000       -0.86283500000000       -0.95940400000000
N           56.74194000000000       -1.13385300000000       -0.95929600000000
H           53.73965100000000        0.09224700000000       -0.02766100000000
H           53.74273500000000        1.95055400000000        1.83640100000000
H           55.53901700000000        3.33327300000000        3.01966500000000
H           57.36635799999999        5.23620400000000        1.77095200000000
H           57.44650200000000        7.08657000000000        3.38668800000000
H           58.02821800000000        7.95062300000000        5.57653900000000
H           60.02152300000000        6.64253400000000        7.18949900000000
H           58.37920800000000        6.17316400000000        7.81353300000000
H           58.86323800000000        7.90897000000000        7.74334600000000
H           59.29327500000000        4.46138300000000        6.27700500000000
H           59.20425899999999        2.62573600000000        4.66336800000000
H           60.97182300000000        3.82803300000000        2.32875000000000
H           62.80859399999999        2.44034400000000        1.19467400000000
H           62.51405299999999       -2.58015500000000       -0.76914200000000
H           60.57457700000000       -4.06625700000000       -1.96930600000000
H           59.40107600000000       -2.78221700000000       -4.61518600000000
H           59.50439900000000       -4.59872300000000       -6.24811700000000
H           57.75088200000000       -7.91738000000000       -5.82840200000000
H           58.62425300000000       -6.17210500000000       -7.94452400000000
H           58.88608799999999       -7.95411600000000       -7.85424700000000
H           60.09389200000000       -6.84171200000000       -7.10861500000000
H           56.96832700000000       -7.01246400000000       -3.71931600000000
H           56.87680499999999       -5.18430500000000       -2.08071500000000
H           55.38228900000000       -3.14542100000000       -3.33816100000000
H           53.67707900000000       -1.63180500000000       -2.13600900000000
Ni          89.93627499999998       -1.99570800000000       -1.57365000000000
C           93.68736699999999        0.03709900000000       -0.08792400000000
C           93.03773400000000       -0.92697000000000       -0.74663800000000
C           93.70244099999999       -2.02167700000000       -1.44319700000000
C           92.77223499999998       -2.76992000000000       -2.00666700000000
C           91.46000400000000       -2.18023700000000       -1.70712800000000
N           91.62180299999999       -1.01466000000000       -0.89777800000000
C           90.27459100000000       -2.65369200000000       -2.14465200000000
C           90.24072900000000       -3.84903000000000       -3.01836600000000
C           90.72853000000001       -3.78329100000000       -4.33145600000000
C           90.68033100000000       -4.90937700000000       -5.15750200000000
C           90.13927500000000       -6.11686700000000       -4.68827100000000
N           90.10281900000000       -7.25934100000000       -5.56339200000000
C           89.56140700000000       -8.55701200000000       -5.17329600000000
C           89.64385399999999       -6.17642000000000       -3.37126300000000
C           89.69345500000000       -5.04969400000000       -2.54544700000000
C           88.97545300000000       -2.02071800000000       -1.79584200000000
C           87.69864999999999       -2.37497500000000       -2.42785500000000
C           86.75419700000000       -1.65089500000000       -1.86249000000000
N           88.81929400000000       -1.11201800000000       -0.88247300000000
C           87.42118699999999       -0.82392900000000       -0.86436400000000
C           86.81440499999999        0.02350300000000       -0.01749500000000
C           87.56502500000001        0.84123600000000        0.96113300000000
C           87.02329199999998        1.41156400000000        2.02986500000000
C           88.05535799999998        2.21018700000000        2.66213500000000
C           89.15831799999999        2.07848700000000        1.93425900000000
N           88.93865099999999        1.20572800000000        0.82496000000000
C           90.42887200000000        2.80120300000000        2.19860900000000
C           90.39031900000001        4.01072600000000        3.05638700000000
C           89.64460300000000        5.12970400000000        2.65928200000000
C           89.58757100000000        6.26571300000000        3.47178400000000
C           90.27345900000000        6.29752500000000        4.70122900000000
N           90.23471800000000        7.45199200000000        5.56037500000000
C           89.49799299999999        8.67042000000000        5.24117700000000
C           91.01102800000000        5.17091900000000        5.09771200000000
C           91.06673300000000        4.03541700000000        4.28517400000000
C           91.59763599999999        2.38445600000000        1.67464700000000
C           92.89801199999999        3.03333900000000        1.83366300000000
C           93.77030999999999        2.26518000000000        1.20999100000000
C           93.03555700000000        1.13611500000000        0.64196200000000
N           91.76867600000000        1.19514500000000        0.90647300000000
H           94.77096500000000        0.01842500000000       -0.08680000000000
H           94.76788100000000       -2.20620300000000       -1.49359300000000
H           92.97160000000000       -3.66266400000000       -2.58480700000000
H           91.14425900000001       -2.85925700000000       -4.71435300000000
H           91.06411400000000       -4.83981000000000       -6.16758000000000
H           90.48239900000000       -7.16543000000000       -6.53298900000000
H           88.48909300000000       -8.45410100000000       -4.90447300000000
H           90.13140900000000       -8.96068300000000       -4.31025000000000
H           89.64737900000000       -9.27093800000000       -6.01954400000000
H           89.21734200000000       -7.08766900000000       -2.97498500000000
H           89.30635699999999       -5.11237700000000       -1.53566400000000
H           87.53879399999998       -3.09635300000000       -3.21840200000000
H           85.70202299999998       -1.68681100000000       -2.11160500000000
H           85.99656400000001        1.32515500000000        2.35941700000000
H           87.93603899999999        2.82066800000000        3.54783500000000
H           89.10954099999999        5.12261600000000        1.71740600000000
H           89.00621700000001        7.11256000000000        3.13383700000000
H           90.75973500000001        7.42708800000000        6.46411000000000
H           89.88636399999999        9.11140200000000        4.29915200000000
H           89.62452799999998        9.41213500000000        6.05792300000000
H           88.41672500000000        8.44174300000000        5.13502000000000
H           91.54228899999998        5.17137000000000        6.04120000000000
H           91.63381099999999        3.17334900000000        4.61463400000000
H           93.12832699999998        3.95561300000000        2.35050400000000
H           94.83353800000000        2.45215700000000        1.13566900000000
C           63.45023200000000        0.02350300000000       -0.01749500000000
C           64.67214900000000        0.02350300000000       -0.01749500000000
C           73.64434900000001        0.02350300000000       -0.01749500000000
C           74.86626699999999        0.02350300000000       -0.01749500000000
C           83.83846699999999        0.02350300000000       -0.01749500000000
C           85.06038500000000        0.02350300000000       -0.01749500000000
Ni          69.48801599999999       -2.02884600000000       -1.58914600000000
C           65.72436399999999       -0.02495000000000        0.01857200000000
C           66.38132600000000       -0.98352900000000       -0.65983800000000
C           65.73963900000000       -2.08945000000000       -1.37449400000000
C           66.67860800000000       -2.79990100000000       -1.96692000000000
C           67.97780600000000       -2.19254700000000       -1.66357200000000
N           67.79946200000001       -1.04405900000000       -0.83158600000000
C           69.16148399999999       -2.63458400000000       -2.13513000000000
C           69.18789099999999       -3.80665700000000       -3.03480600000000
C           69.27239000000000       -5.10014000000000       -2.50379800000000
C           69.30229400000000       -6.20794100000000       -3.35525900000000
C           69.25085099999998       -6.03983500000000       -4.74861200000000
N           69.28269500000000       -7.20064800000000       -5.59966300000000
C           69.23287800000000       -7.13323100000000       -7.05640800000000
C           69.16929500000001       -4.73594000000000       -5.27647100000000
C           69.13795599999999       -3.62878200000000       -4.42366000000000
C           70.46191000000000       -2.00403900000000       -1.79854300000000
C           71.73633799999999       -2.37670900000000       -2.42522800000000
C           72.68940300000000       -1.67095500000000       -1.85155600000000
N           70.62801600000000       -1.10822100000000       -0.87597500000000
C           72.03042100000000       -0.84299700000000       -0.84949400000000
C           72.64555100000000       -0.02495000000000        0.01857200000000
C           71.89680999999999        0.77741400000000        1.00945900000000
C           72.43402900000000        1.31924900000000        2.09517700000000
C           71.40099999999998        2.10798900000000        2.73756500000000
C           70.30306899999999        1.99673400000000        1.99863200000000
N           70.52569099999999        1.14980400000000        0.87198900000000
C           69.04360399999999        2.73645400000000        2.25306100000000
C           69.10179599999999        3.96274800000000        3.08511800000000
C           68.44200200000000        4.01661000000000        4.32169300000000
C           68.51230700000001        5.16899600000000        5.11000700000000
C           69.25026900000000        6.28647300000000        4.67415700000000
N           69.33994699999998        7.48905200000000        5.46069600000000
C           68.69561899999999        7.65295200000000        6.75963800000000
C           69.91619399999999        6.22215200000000        3.44022400000000
C           69.84673100000001        5.06908500000000        2.65383600000000
C           67.86898200000000        2.33003400000000        1.73409600000000
C           66.58897500000000        3.01722900000000        1.87048800000000
C           65.70023399999999        2.26066500000000        1.26036700000000
C           66.40101300000001        1.08824200000000        0.72494300000000
N           67.66923800000001        1.12435100000000        0.99571700000000
H           64.68194800000001       -2.30976800000000       -1.43180600000000
H           66.49387800000000       -3.67764900000000       -2.57277500000000
H           69.31408799999998       -5.24954800000000       -1.43154000000000
H           69.36572899999999       -7.20069800000000       -2.92715800000000
H           69.34485700000000       -8.14733300000000       -5.16135400000000
H           68.28975199999999       -6.64500500000000       -7.38084100000000
H           70.10549799999998       -6.56266300000000       -7.43863500000000
H           69.26597500000000       -8.15854200000000       -7.48223300000000
H           69.12981000000001       -4.56565000000000       -6.34372000000000
H           69.07663200000000       -2.63239400000000       -4.84470800000000
H           71.88984599999999       -3.10278200000000       -3.21248000000000
H           73.74282200000000       -1.72647900000000       -2.09120500000000
H           73.45778299999999        1.21982900000000        2.43005900000000
H           71.51781500000000        2.70489400000000        3.63270300000000
H           67.87592699999999        3.16368900000000        4.67597000000000
H           67.99080300000000        5.17849500000000        6.05712700000000
H           69.89248600000001        8.29493100000000        5.08949400000000
H           69.08446100000000        6.89604200000000        7.47271000000000
H           68.91193600000000        8.66473700000000        7.16329100000000
H           67.59623400000000        7.54286300000000        6.65265700000000
H           70.49234199999999        7.06798100000000        3.08618700000000
H           70.36931599999998        5.04007100000000        1.70540400000000
H           66.38292199999999        3.96041100000000        2.35903800000000
H           64.64714100000000        2.49152100000000        1.17497300000000
Ni          79.68213400000000       -2.02884600000000       -1.58914600000000
C           75.91848200000000       -0.02495000000000        0.01857200000000
C           76.57544400000000       -0.98352900000000       -0.65983800000000
C           75.93375700000000       -2.08945000000000       -1.37449400000000
C           76.87272600000000       -2.79990100000000       -1.96692000000000
C           78.17192400000000       -2.19254700000000       -1.66357200000000
N           77.99357999999998       -1.04405900000000       -0.83158600000000
C           79.35560199999999       -2.63458400000000       -2.13513000000000
C           79.38200900000000       -3.80665700000000       -3.03480600000000
C           79.46650800000000       -5.10014000000000       -2.50379800000000
C           79.49641200000001       -6.20794100000000       -3.35525900000000
C           79.44496900000000       -6.03983500000000       -4.74861200000000
N           79.47681299999999       -7.20064800000000       -5.59966300000000
C           79.42699599999999       -7.13323100000000       -7.05640800000000
C           79.36341299999999       -4.73594000000000       -5.27647100000000
C           79.33207400000001       -3.62878200000000       -4.42366000000000
C           80.65602800000001       -2.00403900000000       -1.79854300000000
C           81.93045600000001       -2.37670900000000       -2.42522800000000
C           82.88352100000000       -1.67095500000000       -1.85155600000000
N           80.82213400000001       -1.10822100000000       -0.87597500000000
C           82.22453899999999       -0.84299700000000       -0.84949400000000
C           82.83966800000000       -0.02495000000000        0.01857200000000
C           82.09092800000001        0.77741400000000        1.00945900000000
C           82.62814700000000        1.31924900000000        2.09517700000000
C           81.59511800000000        2.10798900000000        2.73756500000000
C           80.49718700000000        1.99673400000000        1.99863200000000
N           80.71980900000000        1.14980400000000        0.87198900000000
C           79.23772200000001        2.73645400000000        2.25306100000000
C           79.29591400000000        3.96274800000000        3.08511800000000
C           78.63612000000001        4.01661000000000        4.32169300000000
C           78.70642499999998        5.16899600000000        5.11000700000000
C           79.44438700000001        6.28647300000000        4.67415700000000
N           79.53406500000000        7.48905200000000        5.46069600000000
C           78.88973700000000        7.65295200000000        6.75963800000000
C           80.11031100000000        6.22215200000000        3.44022400000000
C           80.04084899999999        5.06908500000000        2.65383600000000
C           78.06309999999999        2.33003400000000        1.73409600000000
C           76.78309299999999        3.01722900000000        1.87048800000000
C           75.89435200000000        2.26066500000000        1.26036700000000
C           76.59513099999998        1.08824200000000        0.72494300000000
N           77.86335600000000        1.12435100000000        0.99571700000000
H           74.87606599999998       -2.30976800000000       -1.43180600000000
H           76.68799600000000       -3.67764900000000       -2.57277500000000
H           79.50820600000000       -5.24954800000000       -1.43154000000000
H           79.55984700000000       -7.20069800000000       -2.92715800000000
H           79.53897499999999       -8.14733300000000       -5.16135400000000
H           78.48386999999998       -6.64500500000000       -7.38084100000000
H           80.29961600000000       -6.56266300000000       -7.43863500000000
H           79.46009300000000       -8.15854200000000       -7.48223300000000
H           79.32392800000000       -4.56565000000000       -6.34372000000000
H           79.27075000000001       -2.63239400000000       -4.84470800000000
H           82.08396399999999       -3.10278200000000       -3.21248000000000
H           83.93694000000001       -1.72647900000000       -2.09120500000000
H           83.65190100000000        1.21982900000000        2.43005900000000
H           81.71193299999999        2.70489400000000        3.63270300000000
H           78.07004499999999        3.16368900000000        4.67597000000000
H           78.18492100000000        5.17849500000000        6.05712700000000
H           80.08660399999999        8.29493100000000        5.08949400000000
H           79.27857899999998        6.89604200000000        7.47271000000000
H           79.10605400000000        8.66473700000000        7.16329100000000
H           77.79035099999999        7.54286300000000        6.65265700000000
H           80.68646000000000        7.06798100000000        3.08618700000000
H           80.56343400000000        5.04007100000000        1.70540400000000
H           76.57704000000000        3.96041100000000        2.35903800000000
H           74.84125899999999        2.49152100000000        1.17497300000000
268
 energy: -438.758758618125 gnorm: 8.069085743292 xtb: 6.5.1 (b24c23e)
Ni          58.53205790665866        1.86659574237439        1.54591876523474
C           54.82331353861920        0.08847243741232       -0.04689037204792
C           55.47332240747402        0.94279155139035        0.75139838504377
C           54.80782442493027        1.86059645800577        1.66685574977976
C           55.73881315642878        2.57446294486296        2.27484340700655
C           57.04278922382555        2.15262409584404        1.76415605963080
N           56.88732865326722        1.10955177085516        0.80387884171166
C           58.18862203347399        2.78141952452951        2.20378981577322
C           58.26944572469164        3.79807094395030        3.10752425235100
C           57.78209357191872        5.06444670815578        2.75656508860147
C           57.83029681448621        6.11586105219489        3.67488842092257
C           58.37138113454938        5.92204553479346        4.95622927935559
N           58.40763852506853        7.02472549649048        5.87921763745165
C           58.94921593801768        6.92731767994372        7.23127681281087
C           58.86671516737788        4.64922253705383        5.30110292641739
C           58.81713922513294        3.59779168285512        4.38205125874436
C           59.62971523368263        2.22688803305863        1.58722793899187
C           60.81252571787386        2.89968910140697        1.79754174004309
C           61.75677778542472        2.18886074957961        1.21359205935597
N           59.69499658931458        1.11171246896326        0.89879487357401
C           61.08937577814682        1.03528563376713        0.62498095115890
C           61.69764160343647        0.02244560667106       -0.01801020326362
C           60.94514389572481       -1.10859338618287       -0.60169948730680
C           61.48741502360399       -2.27887008634147       -0.92602424412704
C           60.45678682038337       -3.06903959909173       -1.56653277715279
C           59.35112357032101       -2.32853773569786       -1.59708290072483
N           59.57235102211619       -1.05714387647965       -0.98754749284797
C           58.08251076955614       -2.74516334350891       -2.24448551150599
C           58.12038172979761       -3.84631974816418       -3.23785046538918
C           58.86595730978206       -3.70320596611946       -4.41661541637232
C           58.92296530284386       -4.74372829322169       -5.34779902638046
C           58.23720424755532       -5.95089650236218       -5.11111085285391
N           58.27568556990854       -7.04075771801410       -6.04944341763546
C           59.01261996904483       -6.99519500683472       -7.30860051143168
C           57.49962613581106       -6.09147557766076       -3.92470494536830
C           57.44394695663551       -5.05093466307338       -2.99414516939832
C           56.91258714598950       -2.14267545194604       -1.95206770880595
C           55.61301810329618       -2.44003671109556       -2.55104504383127
C           54.73980958769884       -1.66317249407563       -1.93704140243800
C           55.47428766458516       -0.86242596074135       -0.95906162859554
N           56.74228612139387       -1.13434324040003       -0.95971911721463
H           53.73964251367361        0.09224666759824       -0.02770800646343
H           53.74275648846120        1.95048164907953        1.83632753951934
H           55.53917670728368        3.33328439349500        3.01965362000307
H           57.36635888597040        5.23618409906030        1.77095368366543
H           57.44650491750597        7.08658675105209        3.38669841263581
H           58.02840542632631        7.95011997998556        5.57665249841481
H           60.02134828585967        6.64256317238840        7.18953962919390
H           58.37932973418373        6.17327735232581        7.81346112649071
H           58.86323445257317        7.90877794536275        7.74319205329827
H           59.29327704941595        4.46140070178815        6.27701848265412
H           59.20425318635611        2.62572741519862        4.66336099252689
H           60.97170709210433        3.82806639490504        2.32879218610793
H           62.80854864975161        2.44024311434010        1.19460700268813
H           62.51403762844514       -2.58018962434033       -0.76913759397886
H           60.57461012638618       -4.06625197521406       -1.96927201128459
H           59.40106841151699       -2.78221792055583       -4.61517411087808
H           59.50439936047987       -4.59874233165857       -6.24814175317108
H           57.75114283329453       -7.91690002647537       -5.82847742659517
H           58.62435042452669       -6.17222927094910       -7.94444351137533
H           58.88608654671902       -7.95392984818754       -7.85409551685606
H           60.09372875365254       -6.84171780214005       -7.10868349757244
H           56.96832797979830       -7.01248931734991       -3.71932782600191
H           56.87681281536510       -5.18429312640158       -2.08071336696080
H           55.38240523226132       -3.14542360407327       -3.33814332795438
H           53.67706649896744       -1.63173880578844       -2.13594714755802
Ni          89.97852716842500       -1.90443438030360       -1.47507808520428
C           93.68730234239752        0.03801865334306       -0.08730935565990
C           93.03729867969601       -0.92745439864986       -0.74686996592228
C           93.70279816140479       -2.02111060255927       -1.44279543113963
C           92.77180398731980       -2.77021374331601       -2.00679724754256
C           91.46785408262512       -2.17980586526987       -1.70655539549835
N           91.62330641584168       -1.01504540047069       -0.89814186838697
C           90.32202829037041       -2.74603914899825       -2.22427256275513
C           90.24116304776682       -3.84981675368165       -3.01923281672405
C           90.72852224747943       -3.78364394396861       -4.33167583386068
C           90.68031851294707       -4.90926133141143       -5.15737673043178
C           90.13923725615210       -6.11742151838301       -4.68863347423801
N           90.10297438560477       -7.25879643352254       -5.56336846796446
C           89.56140377116924       -8.55700842367193       -5.17327943429650
C           89.64390346862041       -6.17626984941825       -3.37124334839286
C           89.69347709054347       -5.04993882039330       -2.54567883170279
C           88.88087811434151       -2.02329511489334       -1.81761016713660
C           87.69810496529603       -2.37539398004054       -2.42834867992719
C           86.75384549703983       -1.65038690352985       -1.86203852661722
N           88.81559893845640       -1.10816165701732       -0.87955503669941
C           87.42123000714525       -0.82425649230659       -0.86470270863541
C           86.81300652974501        0.02424551590685       -0.01656409937271
C           87.56543752854178        0.84063803328441        0.95984405466717
C           87.02319664146353        1.41252209181475        2.03116487844056
C           88.05381780989251        2.20999609910638        2.66252996464341
C           89.15949697397987        2.07823674274371        1.93319766321255
N           88.93829855053345        1.20599208565590        0.82544853993984
C           90.42810539696517        2.80096264423562        2.19853486306129
C           90.39023465910576        4.01065024734691        3.05639890510312
C           89.64465473638563        5.12979517992645        2.65953209628634
C           89.58765071591512        6.26557399160943        3.47179162985895
C           90.27341151104514        6.29800594087236        4.70153177289097
N           90.23493378968848        7.45151672185695        5.56037002297766
C           89.49799278178288        8.67040204585481        5.24116665909755
C           91.01099180618158        5.17084598378839        5.09758672994214
C           91.06667416046118        4.03567050137862        4.28516993890311
C           91.59803484390491        2.38411640806878        1.67436524608335
C           92.89759616588748        3.03354741065278        1.83386488705745
C           93.77080657763224        2.26482706259418        1.20969437738390
C           93.03633653872951        1.13569262768293        0.64163444603818
N           91.76832426233373        1.19566539304214        0.90686223376085
H           94.77097374907397        0.01847061160020       -0.08680853661431
H           94.76785985701140       -2.20611487094520       -1.49353825500479
H           92.97144006382871       -3.66265527747291       -2.58482062758199
H           91.14425793466337       -2.85925448576261       -4.71433331075886
H           91.06411139856978       -4.83982421295577       -6.16759445679287
H           90.48221273288402       -7.16543169646055       -6.53247250651782
H           88.48926611154002       -8.45414776138074       -4.90449200342284