      -----------------------------------------------------------      
     |                   =====================                   |     
     |                           x T B                           |     
     |                   =====================                   |     
     |                         S. Grimme                         |     
     |          Mulliken Center for Theoretical Chemistry        |     
     |                    University of Bonn                     |     
      -----------------------------------------------------------      

   * xtb version 6.5.1 (b24c23e) compiled by 'conda@728c89f4b128' on 2022-07-12

   xtb is free software: you can redistribute it and/or modify it under
   the terms of the GNU Lesser General Public License as published by
   the Free Software Foundation, either version 3 of the License, or
   (at your option) any later version.
   
   xtb is distributed in the hope that it will be useful,
   but WITHOUT ANY WARRANTY; without even the implied warranty of
   MERCHANTABILITY or FITNESS FOR A PARTICULAR PURPOSE.  See the
   GNU Lesser General Public License for more details.
   
   Cite this work as:
   * C. Bannwarth, E. Caldeweyher, S. Ehlert, A. Hansen, P. Pracht,
     J. Seibert, S. Spicher, S. Grimme, WIREs Comput. Mol. Sci., 2020, 11,
     e01493. DOI: 10.1002/wcms.1493
   
   for GFN2-xTB:
   * C. Bannwarth, S. Ehlert and S. Grimme., J. Chem. Theory Comput., 2019,
     15, 1652-1671. DOI: 10.1021/acs.jctc.8b01176
   for GFN1-xTB:
   * S. Grimme, C. Bannwarth, P. Shushkov, J. Chem. Theory Comput., 2017,
     13, 1989-2009. DOI: 10.1021/acs.jctc.7b00118
   for GFN0-xTB:
   * P. Pracht, E. Caldeweyher, S. Ehlert, S. Grimme, ChemRxiv, 2019, preprint.
     DOI: 10.26434/chemrxiv.8326202.v1
   for GFN-FF:
   * S. Spicher and S. Grimme, Angew. Chem. Int. Ed., 2020, 59, 15665-15673.
     DOI: 10.1002/anie.202004239
   
   for ALPB and GBSA implicit solvation:
   * S. Ehlert, M. Stahn, S. Spicher, S. Grimme, J. Chem. Theory Comput.,
     2021, 17, 4250-4261. DOI: 10.1021/acs.jctc.1c00471
   
   for DFT-D4:
   * E. Caldeweyher, C. Bannwarth and S. Grimme, J. Chem. Phys., 2017,
     147, 034112. DOI: 10.1063/1.4993215
   * E. Caldeweyher, S. Ehlert, A. Hansen, H. Neugebauer, S. Spicher,
     C. Bannwarth and S. Grimme, J. Chem. Phys., 2019, 150, 154122.
     DOI: 10.1063/1.5090222
   * E. Caldeweyher, J.-M. Mewes, S. Ehlert and S. Grimme, Phys. Chem. Chem. Phys.
     2020, 22, 8499-8512. DOI: 10.1039/D0CP00502A
   
   for sTDA-xTB:
   * S. Grimme and C. Bannwarth, J. Chem. Phys., 2016, 145, 054103.
     DOI: 10.1063/1.4959605
   
   in the mass-spec context:
   * V. Asgeirsson, C. Bauer and S. Grimme, Chem. Sci., 2017, 8, 4879.
     DOI: 10.1039/c7sc00601b
   * J. Koopman and S. Grimme, ACS Omega 2019, 4, 12, 15120-15133.
     DOI: 10.1021/acsomega.9b02011
   
   for metadynamics refer to:
   * S. Grimme, J. Chem. Theory Comput., 2019, 155, 2847-2862
     DOI: 10.1021/acs.jctc.9b00143
   
   for SPH calculations refer to:
   * S. Spicher and S. Grimme, J. Chem. Theory Comput., 2021, 17, 1701-1714
     DOI: 10.1021/acs.jctc.0c01306
   
   with help from (in alphabetical order)
   P. Atkinson, C. Bannwarth, F. Bohle, G. Brandenburg, E. Caldeweyher
   M. Checinski, S. Dohm, S. Ehlert, S. Ehrlich, I. Gerasimov, C. Hölzer
   A. Katbashev, J. Koopman, C. Lavigne, S. Lehtola, F. März, M. Müller,
   F. Musil, H. Neugebauer, J. Pisarek, C. Plett, P. Pracht, F. Pultar,
   J. Seibert, P. Shushkov, S. Spicher, M. Stahn, M. Steiner, T. Strunk,
   J. Stückrath, T. Rose, and J. Unsleber
   
 * started run on 2022/07/30 at 07:03:42.119     

           -------------------------------------------------
          |                Calculation Setup                |
           -------------------------------------------------

          program call               : xtb xtbopt.xyz --gfn 1 --vipea
          hostname                   : cx3-14-19.cx3.hpc.ic.ac.uk
          coordinate file            : xtbopt.xyz
          omp threads                :                     1

   ID    Z sym.   atoms
    1   30 Zn     1, 37, 91, 126
    2    6 C      2-6, 8-11, 13-18, 20-24, 38-42, 44-47, 49-54, 56-60, 73-90,
                  92-96, 98-101, 103-108, 110-114, 127-131, 133-136, 138-143,
                  145-149
    3    7 N      7, 12, 19, 25, 43, 48, 55, 61, 97, 102, 109, 115, 132, 137,
                  144, 150
    4    1 H      26-36, 62-72, 116-125, 151-160

           -------------------------------------------------
          |                 I P E A - x T B                 |
           -------------------------------------------------

        Reference                      10.1039/c7sc00601b
      * Hamiltonian:
        H0-scaling (s, p, d)           2.150000    2.300000    2.000000
        zeta-weighting                 0.000000
      * Dispersion:
        s8                             2.400000
        a1                             0.630000
        a2                             5.000000
        s9                             0.000000
      * Repulsion:
        kExp                           1.500000
        rExp                           1.000000
      * Coulomb:
        alpha                          1.000000
        third order                    atomic
        anisotropic                    false
      * Halogen bond correction:
        rad-scale                      1.300000
        damping                        0.440000


          ...................................................
          :                      SETUP                      :
          :.................................................:
          :  # basis functions                 670          :
          :  # atomic orbitals                 670          :
          :  # shells                          434          :
          :  # electrons                       522          :
          :  # halogen bonds                     0          :
          :  max. iterations                   250          :
          :  Hamiltonian                  GFN1-xTB          :
          :  restarted?                      false          :
          :  GBSA solvation                  false          :
          :  PC potential                    false          :
          :  electronic temp.          300.0000000     K    :
          :  accuracy                    1.0000000          :
          :  -> integral cutoff          0.2500000E+02      :
          :  -> integral neglect         0.1000000E-07      :
          :  -> SCF convergence          0.1000000E-05 Eh   :
          :  -> wf. convergence          0.2000000E-04 e    :
          :  Broyden damping             0.4000000          :
          ...................................................

 iter      E             dE          RMSdq      gap      omega  full diag
   1   -327.5528544 -0.327553E+03  0.107E+01    1.29       0.0  T
   2   -327.6647525 -0.111898E+00  0.701E+00    1.44       1.0  T
   3   -325.8421505  0.182260E+01  0.492E+00    0.84       1.0  T
   4   -329.3987679 -0.355662E+01  0.159E+00    1.45       1.0  T
   5   -330.3350482 -0.936280E+00  0.255E-01    1.23       1.0  T
   6   -330.3555644 -0.205162E-01  0.795E-02    1.25       1.0  T
   7   -330.3557195 -0.155183E-03  0.633E-02    1.23       1.0  T
   8   -330.3569469 -0.122736E-02  0.214E-02    1.24       1.0  T
   9   -330.3569538 -0.686325E-05  0.159E-02    1.24       1.0  T
  10   -330.3570080 -0.542258E-04  0.641E-03    1.24       1.2  T
  11   -330.3570170 -0.905675E-05  0.356E-03    1.24       2.2  T
  12   -330.3570212 -0.413081E-05  0.842E-04    1.24       9.4  T
  13   -330.3570214 -0.248976E-06  0.256E-04    1.24      30.8  T
  14   -330.3570214 -0.163873E-07  0.125E-04    1.24      63.1  T
  15   -330.3570214 -0.475364E-08  0.396E-05    1.24     199.5  T

   *** convergence criteria satisfied after 15 iterations ***

         #    Occupation            Energy/Eh            Energy/eV
      -------------------------------------------------------------
         1        2.0000           -1.0106009             -27.4999
       ...           ...                  ...                  ...
       255        2.0000           -0.3904888             -10.6257
       256        2.0000           -0.3899975             -10.6124
       257        2.0000           -0.3885891             -10.5740
       258        2.0000           -0.3885062             -10.5718
       259        2.0000           -0.3831406             -10.4258
       260        2.0000           -0.3763482             -10.2410
       261        2.0000           -0.3697449             -10.0613 (HOMO)
       262                         -0.3242379              -8.8230 (LUMO)
       263                         -0.3159549              -8.5976
       264                         -0.3081478              -8.3851
       265                         -0.3045985              -8.2885
       266                         -0.3045754              -8.2879
       ...                                ...                  ...
       670                        478.6721972           13025.3335
      -------------------------------------------------------------
                  HL-Gap            0.0455071 Eh            1.2383 eV
             Fermi-level           -0.3469907 Eh           -9.4421 eV

 SCC (total)                   0 d,  0 h,  0 min,  4.727 sec
 SCC setup                      ...        0 min,  0.007 sec (  0.141%)
 Dispersion                     ...        0 min,  0.008 sec (  0.163%)
 classical contributions        ...        0 min,  0.002 sec (  0.044%)
 integral evaluation            ...        0 min,  0.581 sec ( 12.286%)
 iterations                     ...        0 min,  2.911 sec ( 61.582%)
 molecular gradient             ...        0 min,  1.168 sec ( 24.714%)
 printout                       ...        0 min,  0.050 sec (  1.068%)

         :::::::::::::::::::::::::::::::::::::::::::::::::::::
         ::                     SUMMARY                     ::
         :::::::::::::::::::::::::::::::::::::::::::::::::::::
         :: total energy            -323.522468607888 Eh    ::
         :: gradient norm              0.062182862072 Eh/a0 ::
         :: HOMO-LUMO gap              1.238310022784 eV    ::
         ::.................................................::
         :: SCC energy              -330.357021439100 Eh    ::
         :: -> electrostatic           0.311959571581 Eh    ::
         :: repulsion energy           6.971337841963 Eh    ::
         :: dispersion energy         -0.136785010750 Eh    ::
         :: halogen bond corr.         0.000000000000 Eh    ::
         :: add. restraining           0.000000000000 Eh    ::
         :: total charge               0.000000000000 e     ::
         :::::::::::::::::::::::::::::::::::::::::::::::::::::

           ------------------------------------------------- 
          |        vertical delta SCC IP calculation        |
           ------------------------------------------------- 
   1   -329.9561396 -0.329956E+03  0.108E-01    1.24       0.0  T
   2   -329.9455173  0.106223E-01  0.142E-01    1.15       1.0  T
   3   -329.9529435 -0.742614E-02  0.102E-01    1.20       1.0  T
   4   -329.9601727 -0.722923E-02  0.637E-02    1.23       1.0  T
   5   -329.9623256 -0.215295E-02  0.343E-02    1.23       1.0  T
   6   -329.9626325 -0.306866E-03  0.196E-02    1.22       1.0  T
   7   -329.9627879 -0.155388E-03  0.106E-02    1.23       1.0  T
   8   -329.9628521 -0.641541E-04  0.390E-03    1.23       2.0  T
   9   -329.9628586 -0.652144E-05  0.149E-03    1.23       5.3  T
  10   -329.9628592 -0.649670E-06  0.589E-04    1.23      13.4  T
  11   -329.9628593 -0.841195E-07  0.319E-04    1.23      24.8  T
  12   -329.9628593 -0.234388E-07  0.135E-04    1.23      58.5  T
  13   -329.9628593 -0.497067E-08  0.624E-05    1.23     126.7  T
     SCC iter.                  ...        0 min,  2.512 sec
     gradient                   ...        0 min,  1.167 sec
------------------------------------------------------------------------
empirical IP shift (eV):    4.8455
delta SCC IP (eV):    5.8802
------------------------------------------------------------------------
           ------------------------------------------------- 
          |        vertical delta SCC EA calculation        |
           ------------------------------------------------- 
   1   -330.6359980 -0.330636E+03  0.191E-01    0.27       0.0  T
   2   -330.6404143 -0.441625E-02  0.175E-01    0.08       1.0  T
   3   -330.6508591 -0.104449E-01  0.109E-01    0.18       1.0  T
   4   -330.6506654  0.193741E-03  0.930E-02    0.15       1.0  T
   5   -330.6525136 -0.184816E-02  0.688E-02    0.14       1.0  T
   6   -330.6540390 -0.152541E-02  0.462E-02    0.13       1.0  T
   7   -330.6558883 -0.184931E-02  0.237E-02    0.13       1.0  T
   8   -330.6561748 -0.286496E-03  0.682E-03    0.13       1.2  T
   9   -330.6561962 -0.213936E-04  0.300E-03    0.13       2.6  T
  10   -330.6561990 -0.285654E-05  0.110E-03    0.13       7.2  T
  11   -330.6561994 -0.372366E-06  0.693E-04    0.13      11.4  T
  12   -330.6561995 -0.713021E-07  0.298E-04    0.13      26.5  T
  13   -330.6561995 -0.251578E-07  0.132E-04    0.13      60.1  T
  14   -330.6561995 -0.186452E-08  0.917E-05    0.13      86.2  T
     SCC iter.                  ...        0 min,  2.733 sec
     gradient                   ...        0 min,  1.171 sec
------------------------------------------------------------------------
empirical EA shift (eV):    4.8455
delta SCC EA (eV):    3.2955
------------------------------------------------------------------------
           -------------------------------------------------
          |                Property Printout                |
           -------------------------------------------------

    * Orbital Energies and Occupations

         #    Occupation            Energy/Eh            Energy/eV
      -------------------------------------------------------------
         1        2.0000           -0.9678926             -26.3377
       ...           ...                  ...                  ...
       250        2.0000           -0.3651169              -9.9353
       251        2.0000           -0.3584858              -9.7549
       252        2.0000           -0.3578114              -9.7365
       253        2.0000           -0.3548730              -9.6566
       254        2.0000           -0.3482815              -9.4772
       255        2.0000           -0.3466910              -9.4339
       256        2.0000           -0.3432923              -9.3415
       257        2.0000           -0.3404699              -9.2647
       258        2.0000           -0.3395637              -9.2400
       259        2.0000           -0.3388500              -9.2206
       260        2.0000           -0.3295840              -8.9684
       261        2.0000           -0.3201300              -8.7112
       262        0.9208           -0.2751409              -7.4870 (HOMO)
       263        0.0791           -0.2704790              -7.3601 (LUMO)
       264        0.0001           -0.2635785              -7.1723
       265        0.0000           -0.2630995              -7.1593
       266        0.0000           -0.2615318              -7.1166
       267                         -0.2553901              -6.9495
       268                         -0.2552616              -6.9460
       269                         -0.2543922              -6.9224
       270                         -0.2276270              -6.1940
       271                         -0.2203859              -5.9970
       272                         -0.2160856              -5.8800
       273                         -0.2093757              -5.6974
       ...                                ...                  ...
       670                        478.7231072           13026.7188
      -------------------------------------------------------------
                  HL-Gap            0.0046619 Eh            0.1269 eV
             Fermi-level           -0.2852249 Eh           -7.7614 eV

  Mulliken/CM5 charges         n(s)   n(p)   n(d)
     1Zn    0.36568  0.69263   0.762  0.872  0.000
     2C    -0.02655 -0.06753   1.087  2.939  0.000
     3C     0.05755  0.11964   1.119  2.824  0.000
     4C    -0.03933 -0.08527   1.090  2.950  0.000
     5C    -0.03782 -0.08376   1.091  2.947  0.000
     6C     0.05549  0.11759   1.116  2.829  0.000
     7N    -0.23923 -0.48423   1.352  3.887  0.000
     8C    -0.01975 -0.06080   1.093  2.927  0.000
     9C     0.05471  0.11590   1.114  2.831  0.000
    10C    -0.03785 -0.08382   1.089  2.948  0.000
    11C    -0.03685 -0.08193   1.088  2.949  0.000
    12N    -0.23629 -0.48033   1.353  3.883  0.000
    13C     0.06302  0.12995   1.123  2.814  0.000
    14C     0.01484  0.02190   1.085  2.900  0.000
    15C     0.06300  0.12993   1.123  2.814  0.000
    16C    -0.03686 -0.08194   1.088  2.949  0.000
    17C    -0.03786 -0.08383   1.089  2.948  0.000
    18C     0.05471  0.11590   1.114  2.831  0.000
    19N    -0.23630 -0.48033   1.353  3.883  0.000
    20C    -0.01976 -0.06081   1.093  2.927  0.000
    21C     0.05549  0.11759   1.116  2.829  0.000
    22C    -0.03782 -0.08377   1.091  2.947  0.000
    23C    -0.03933 -0.08527   1.090  2.950  0.000
    24C     0.05755  0.11964   1.119  2.824  0.000
    25N    -0.23922 -0.48424   1.352  3.887  0.000
    26H     0.02374  0.08247   0.976  0.000  0.000
    27H     0.03031  0.08675   0.970  0.000  0.000
    28H     0.03111  0.08755   0.969  0.000  0.000
    29H     0.02668  0.08546   0.973  0.000  0.000
    30H     0.03180  0.08827   0.968  0.000  0.000
    31H     0.02873  0.08657   0.971  0.000  0.000
    32H     0.02869  0.08653   0.971  0.000  0.000
    33H     0.03178  0.08825   0.968  0.000  0.000
    34H     0.02667  0.08545   0.973  0.000  0.000
    35H     0.03110  0.08754   0.969  0.000  0.000
    36H     0.03031  0.08675   0.970  0.000  0.000
    37Zn    0.36612  0.69314   0.762  0.872  0.000
    38C    -0.02606 -0.06704   1.088  2.938  0.000
    39C     0.05774  0.11983   1.119  2.824  0.000
    40C    -0.03903 -0.08497   1.090  2.949  0.000
    41C    -0.03760 -0.08354   1.091  2.947  0.000
    42C     0.05582  0.11792   1.116  2.828  0.000
    43N    -0.23893 -0.48397   1.352  3.887  0.000
    44C    -0.01955 -0.06060   1.093  2.927  0.000
    45C     0.05512  0.11633   1.114  2.831  0.000
    46C    -0.03745 -0.08342   1.090  2.948  0.000
    47C    -0.03648 -0.08157   1.088  2.948  0.000
    48N    -0.23619 -0.48023   1.353  3.883  0.000
    49C     0.06327  0.13016   1.123  2.813  0.000
    50C     0.01512  0.02218   1.085  2.900  0.000
    51C     0.06325  0.13013   1.123  2.813  0.000
    52C    -0.03649 -0.08158   1.088  2.948  0.000
    53C    -0.03747 -0.08343   1.090  2.948  0.000
    54C     0.05511  0.11633   1.114  2.831  0.000
    55N    -0.23620 -0.48023   1.353  3.883  0.000
    56C    -0.01956 -0.06061   1.093  2.927  0.000
    57C     0.05582  0.11791   1.116  2.828  0.000
    58C    -0.03760 -0.08355   1.091  2.947  0.000
    59C    -0.03903 -0.08497   1.090  2.949  0.000
    60C     0.05774  0.11983   1.119  2.824  0.000
    61N    -0.23893 -0.48398   1.352  3.887  0.000
    62H     0.02426  0.08299   0.976  0.000  0.000
    63H     0.03077  0.08721   0.969  0.000  0.000
    64H     0.03154  0.08798   0.968  0.000  0.000
    65H     0.02712  0.08590   0.973  0.000  0.000
    66H     0.03231  0.08878   0.968  0.000  0.000
    67H     0.02910  0.08695   0.971  0.000  0.000
    68H     0.02906  0.08690   0.971  0.000  0.000
    69H     0.03228  0.08876   0.968  0.000  0.000
    70H     0.02711  0.08588   0.973  0.000  0.000
    71H     0.03153  0.08797   0.968  0.000  0.000
    72H     0.03077  0.08721   0.969  0.000  0.000
    73C    -0.01877 -0.01886   1.077  2.941  0.000
    74C    -0.02202 -0.02211   1.074  2.948  0.000
    75C    -0.02313 -0.02382   1.063  2.960  0.000
    76C    -0.02232 -0.02379   1.092  2.931  0.000
    77C    -0.02604 -0.02672   1.061  2.965  0.000
    78C    -0.01884 -0.02031   1.096  2.923  0.000
    79C    -0.02069 -0.02078   1.076  2.945  0.000
    80C    -0.02033 -0.02043   1.076  2.944  0.000
    81C    -0.02500 -0.02568   1.062  2.963  0.000
    82C    -0.02037 -0.02185   1.094  2.926  0.000
    83C    -0.02462 -0.02531   1.062  2.962  0.000
    84C    -0.02070 -0.02218   1.094  2.927  0.000
    85C    -0.02142 -0.02151   1.074  2.947  0.000
    86C    -0.01792 -0.01802   1.078  2.940  0.000
    87C    -0.02564 -0.02632   1.061  2.965  0.000
    88C    -0.01803 -0.01951   1.097  2.921  0.000
    89C    -0.02252 -0.02321   1.063  2.959  0.000
    90C    -0.02177 -0.02325   1.092  2.930  0.000
    91Zn    0.36685  0.69209   0.764  0.869  0.000
    92C     0.01117  0.01824   1.082  2.907  0.000
    93C     0.06263  0.12957   1.123  2.814  0.000
    94C    -0.03897 -0.08406   1.087  2.952  0.000
    95C    -0.03828 -0.08425   1.090  2.948  0.000
    96C     0.05289  0.11407   1.112  2.835  0.000
    97N    -0.23701 -0.48097   1.353  3.884  0.000
    98C    -0.01757 -0.05868   1.094  2.923  0.000
    99C     0.05303  0.11419   1.112  2.835  0.000
   100C    -0.03815 -0.08412   1.090  2.948  0.000
   101C    -0.03839 -0.08347   1.087  2.951  0.000
   102N    -0.23675 -0.48071   1.353  3.884  0.000
   103C     0.06277  0.12973   1.123  2.814  0.000
   104C     0.01225  0.01932   1.083  2.905  0.000
   105C     0.06278  0.12974   1.123  2.814  0.000
   106C    -0.03839 -0.08347   1.087  2.951  0.000
   107C    -0.03815 -0.08412   1.090  2.948  0.000
   108C     0.05303  0.11419   1.112  2.835  0.000
   109N    -0.23675 -0.48071   1.353  3.884  0.000
   110C    -0.01756 -0.05867   1.094  2.923  0.000
   111C     0.05289  0.11407   1.112  2.835  0.000
   112C    -0.03827 -0.08424   1.090  2.948  0.000
   113C    -0.03897 -0.08405   1.087  2.952  0.000
   114C     0.06265  0.12959   1.123  2.814  0.000
   115N    -0.23700 -0.48097   1.353  3.884  0.000
   116H     0.02605  0.08389   0.974  0.000  0.000
   117H     0.03024  0.08672   0.970  0.000  0.000
   118H     0.02673  0.08555   0.973  0.000  0.000
   119H     0.03052  0.08700   0.969  0.000  0.000
   120H     0.02685  0.08469   0.973  0.000  0.000
   121H     0.02684  0.08469   0.973  0.000  0.000
   122H     0.03052  0.08700   0.969  0.000  0.000
   123H     0.02673  0.08555   0.973  0.000  0.000
   124H     0.03025  0.08673   0.970  0.000  0.000
   125H     0.02608  0.08394   0.974  0.000  0.000
   126Zn    0.36696  0.69228   0.764  0.869  0.000
   127C     0.01281  0.01988   1.083  2.904  0.000
   128C     0.06285  0.12981   1.123  2.814  0.000
   129C    -0.03808 -0.08316   1.087  2.951  0.000
   130C    -0.03805 -0.08402   1.090  2.948  0.000
   131C     0.05332  0.11448   1.112  2.834  0.000
   132N    -0.23655 -0.48054   1.353  3.884  0.000
   133C    -0.01760 -0.05871   1.094  2.924  0.000
   134C     0.05321  0.11442   1.112  2.835  0.000
   135C    -0.03806 -0.08403   1.090  2.948  0.000
   136C    -0.03875 -0.08384   1.087  2.952  0.000
   137N    -0.23703 -0.48101   1.353  3.884  0.000
   138C     0.06271  0.12961   1.123  2.814  0.000
   139C     0.01122  0.01829   1.082  2.907  0.000
   140C     0.06269  0.12959   1.123  2.814  0.000
   141C    -0.03876 -0.08384   1.087  2.952  0.000
   142C    -0.03806 -0.08403   1.090  2.948  0.000
   143C     0.05321  0.11442   1.112  2.835  0.000
   144N    -0.23703 -0.48101   1.353  3.884  0.000
   145C    -0.01761 -0.05873   1.094  2.924  0.000
   146C     0.05332  0.11448   1.112  2.834  0.000
   147C    -0.03805 -0.08403   1.090  2.948  0.000
   148C    -0.03808 -0.08316   1.087  2.951  0.000
   149C     0.06284  0.12979   1.123  2.814  0.000
   150N    -0.23656 -0.48054   1.353  3.884  0.000
   151H     0.02720  0.08505   0.973  0.000  0.000
   152H     0.03078  0.08726   0.969  0.000  0.000
   153H     0.02694  0.08576   0.973  0.000  0.000
   154H     0.03053  0.08701   0.969  0.000  0.000
   155H     0.02619  0.08404   0.974  0.000  0.000
   156H     0.02615  0.08400   0.974  0.000  0.000
   157H     0.03052  0.08700   0.969  0.000  0.000
   158H     0.02693  0.08575   0.973  0.000  0.000
   159H     0.03078  0.08725   0.969  0.000  0.000
   160H     0.02719  0.08503   0.973  0.000  0.000

Wiberg/Mayer (AO) data.
largest (>0.10) Wiberg bond orders for each atom

 ---------------------------------------------------------------------------
     #   Z sym  total        # sym  WBO       # sym  WBO       # sym  WBO
 ---------------------------------------------------------------------------
     1  30 Zn   2.427 --    25 N    0.567     7 N    0.567    12 N    0.560
                            19 N    0.560
     2   6 C    3.813 --    24 C    1.386     3 C    1.386    26 H    0.997
     3   6 C    3.951 --     2 C    1.386     7 N    1.285     4 C    1.193
     4   6 C    3.852 --     5 C    1.651     3 C    1.193    27 H    0.994
     5   6 C    3.862 --     4 C    1.651     6 C    1.195    28 H    0.994
     6   6 C    3.942 --     8 C    1.392     7 N    1.276     5 C    1.195
     7   7 N    3.018 --     3 C    1.285     6 C    1.276     1 Zn   0.567
     8   6 C    3.838 --     9 C    1.392     6 C    1.392    29 H    0.998
     9   6 C    3.931 --     8 C    1.392    12 N    1.265    10 C    1.204
    10   6 C    3.853 --    11 C    1.633     9 C    1.204    30 H    0.993
    11   6 C    3.843 --    10 C    1.633    13 C    1.219    31 H    0.999
    12   7 N    3.028 --    13 C    1.312     9 C    1.265     1 Zn   0.560
    13   6 C    3.924 --    12 N    1.312    14 C    1.291    11 C    1.219
    14   6 C    3.836 --    15 C    1.291    13 C    1.291    76 C    1.227
    15   6 C    3.924 --    19 N    1.312    14 C    1.291    16 C    1.219
    16   6 C    3.843 --    17 C    1.633    15 C    1.219    32 H    0.999
    17   6 C    3.853 --    16 C    1.633    18 C    1.204    33 H    0.993
    18   6 C    3.931 --    20 C    1.392    19 N    1.265    17 C    1.204
    19   7 N    3.028 --    15 C    1.312    18 C    1.265     1 Zn   0.560
    20   6 C    3.838 --    18 C    1.392    21 C    1.392    34 H    0.998
    21   6 C    3.942 --    20 C    1.392    25 N    1.276    22 C    1.195
    22   6 C    3.862 --    23 C    1.651    21 C    1.195    35 H    0.994
    23   6 C    3.852 --    22 C    1.651    24 C    1.193    36 H    0.994
    24   6 C    3.951 --     2 C    1.386    25 N    1.285    23 C    1.193
    25   7 N    3.018 --    24 C    1.285    21 C    1.276     1 Zn   0.567
    26   1 H    1.033 --     2 C    0.997
    27   1 H    1.020 --     4 C    0.994
    28   1 H    1.020 --     5 C    0.994
    29   1 H    1.034 --     8 C    0.998
    30   1 H    1.020 --    10 C    0.993
    31   1 H    1.027 --    11 C    0.999
    32   1 H    1.027 --    16 C    0.999
    33   1 H    1.020 --    17 C    0.993
    34   1 H    1.034 --    20 C    0.998
    35   1 H    1.020 --    22 C    0.994
    36   1 H    1.020 --    23 C    0.994
    37  30 Zn   2.427 --    61 N    0.567    43 N    0.567    48 N    0.560
                            55 N    0.560
    38   6 C    3.813 --    60 C    1.387    39 C    1.387    62 H    0.997
    39   6 C    3.951 --    38 C    1.387    43 N    1.285    40 C    1.193
    40   6 C    3.852 --    41 C    1.651    39 C    1.193    63 H    0.994
    41   6 C    3.862 --    40 C    1.651    42 C    1.195    64 H    0.994
    42   6 C    3.942 --    44 C    1.391    43 N    1.276    41 C    1.195
    43   7 N    3.019 --    39 C    1.285    42 C    1.276    37 Zn   0.567
    44   6 C    3.838 --    45 C    1.393    42 C    1.391    65 H    0.998
    45   6 C    3.931 --    44 C    1.393    48 N    1.265    46 C    1.203
    46   6 C    3.854 --    47 C    1.634    45 C    1.203    66 H    0.993
    47   6 C    3.843 --    46 C    1.634    49 C    1.217    67 H    0.999
    48   7 N    3.028 --    49 C    1.311    45 C    1.265    37 Zn   0.560
    49   6 C    3.926 --    48 N    1.311    50 C    1.294    47 C    1.217
    50   6 C    3.838 --    51 C    1.294    49 C    1.294    90 C    1.220
    51   6 C    3.926 --    55 N    1.311    50 C    1.294    52 C    1.217
    52   6 C    3.843 --    53 C    1.634    51 C    1.217    68 H    0.999
    53   6 C    3.854 --    52 C    1.634    54 C    1.203    69 H    0.993
    54   6 C    3.931 --    56 C    1.393    55 N    1.265    53 C    1.203
    55   7 N    3.028 --    51 C    1.311    54 C    1.265    37 Zn   0.560
    56   6 C    3.838 --    54 C    1.393    57 C    1.391    70 H    0.998
    57   6 C    3.942 --    56 C    1.391    61 N    1.276    58 C    1.195
    58   6 C    3.862 --    59 C    1.651    57 C    1.195    71 H    0.994
    59   6 C    3.852 --    58 C    1.651    60 C    1.193    72 H    0.994
    60   6 C    3.951 --    38 C    1.387    61 N    1.285    59 C    1.193
    61   7 N    3.019 --    60 C    1.285    57 C    1.276    37 Zn   0.567
    62   1 H    1.033 --    38 C    0.997
    63   1 H    1.020 --    40 C    0.994
    64   1 H    1.020 --    41 C    0.994
    65   1 H    1.033 --    44 C    0.998
    66   1 H    1.020 --    46 C    0.993
    67   1 H    1.027 --    47 C    0.999
    68   1 H    1.027 --    52 C    0.999
    69   1 H    1.020 --    53 C    0.993
    70   1 H    1.033 --    56 C    0.998
    71   1 H    1.020 --    58 C    0.994
    72   1 H    1.020 --    59 C    0.994
    73   6 C    3.835 --    74 C    2.369    77 C    1.361    76 C    0.169
    74   6 C    3.834 --    73 C    2.369    75 C    1.360    78 C    0.169
    75   6 C    3.810 --    76 C    2.467    74 C    1.360
    76   6 C    3.768 --    75 C    2.467    14 C    1.227    73 C    0.169
    77   6 C    3.808 --    78 C    2.464    73 C    1.361
    78   6 C    3.771 --    77 C    2.464    92 C    1.230    74 C    0.169
    79   6 C    3.834 --    80 C    2.366    83 C    1.362    82 C    0.169
    80   6 C    3.834 --    79 C    2.366    81 C    1.363    84 C    0.169
    81   6 C    3.807 --    82 C    2.462    80 C    1.363
    82   6 C    3.770 --    81 C    2.462   104 C    1.231    79 C    0.169
    83   6 C    3.808 --    84 C    2.462    79 C    1.362
    84   6 C    3.769 --    83 C    2.462   127 C    1.230    80 C    0.169
    85   6 C    3.833 --    86 C    2.376    89 C    1.354    88 C    0.169
    86   6 C    3.835 --    85 C    2.376    87 C    1.355    90 C    0.169
    87   6 C    3.809 --    88 C    2.471    86 C    1.355
    88   6 C    3.771 --    87 C    2.471   139 C    1.223    85 C    0.169
    89   6 C    3.811 --    90 C    2.474    85 C    1.354
    90   6 C    3.768 --    89 C    2.474    50 C    1.220    86 C    0.169
    91  30 Zn   2.417 --   102 N    0.561   109 N    0.561   115 N    0.561
                            97 N    0.561
    92   6 C    3.824 --    93 C    1.287   114 C    1.287    78 C    1.230
    93   6 C    3.926 --    97 N    1.314    92 C    1.287    94 C    1.221
    94   6 C    3.839 --    95 C    1.630    93 C    1.221   116 H    0.999
    95   6 C    3.855 --    94 C    1.630    96 C    1.207   117 H    0.994
    96   6 C    3.929 --    98 C    1.393    97 N    1.261    95 C    1.207
    97   7 N    3.020 --    93 C    1.314    96 C    1.261    91 Zn   0.561
    98   6 C    3.835 --    96 C    1.393    99 C    1.392   118 H    0.998
    99   6 C    3.929 --    98 C    1.392   102 N    1.261   100 C    1.207
   100   6 C    3.855 --   101 C    1.629    99 C    1.207   119 H    0.994
   101   6 C    3.840 --   100 C    1.629   103 C    1.221   120 H    0.999
   102   7 N    3.020 --   103 C    1.314    99 C    1.261    91 Zn   0.561
   103   6 C    3.926 --   102 N    1.314   104 C    1.287   101 C    1.221
   104   6 C    3.824 --   103 C    1.287   105 C    1.287    82 C    1.231
   105   6 C    3.926 --   109 N    1.314   104 C    1.287   106 C    1.221
   106   6 C    3.840 --   107 C    1.629   105 C    1.221   121 H    0.999
   107   6 C    3.855 --   106 C    1.629   108 C    1.207   122 H    0.994
   108   6 C    3.929 --   110 C    1.392   109 N    1.261   107 C    1.207
   109   7 N    3.020 --   105 C    1.314   108 C    1.261    91 Zn   0.561
   110   6 C    3.835 --   111 C    1.393   108 C    1.392   123 H    0.998
   111   6 C    3.929 --   110 C    1.393   115 N    1.261   112 C    1.207
   112   6 C    3.855 --   113 C    1.630   111 C    1.207   124 H    0.994
   113   6 C    3.839 --   112 C    1.630   114 C    1.221   125 H    0.999
   114   6 C    3.926 --   115 N    1.314    92 C    1.287   113 C    1.221
   115   7 N    3.020 --   114 C    1.314   111 C    1.261    91 Zn   0.561
   116   1 H    1.028 --    94 C    0.999
   117   1 H    1.021 --    95 C    0.994
   118   1 H    1.035 --    98 C    0.998
   119   1 H    1.020 --   100 C    0.994
   120   1 H    1.027 --   101 C    0.999
   121   1 H    1.027 --   106 C    0.999
   122   1 H    1.020 --   107 C    0.994
   123   1 H    1.035 --   110 C    0.998
   124   1 H    1.021 --   112 C    0.994
   125   1 H    1.027 --   113 C    0.999
   126  30 Zn   2.417 --   150 N    0.561   132 N    0.561   144 N    0.561
                           137 N    0.561
   127   6 C    3.825 --   149 C    1.287   128 C    1.287    84 C    1.230
   128   6 C    3.926 --   132 N    1.314   127 C    1.287   129 C    1.221
   129   6 C    3.840 --   130 C    1.630   128 C    1.221   151 H    0.999
   130   6 C    3.855 --   129 C    1.630   131 C    1.207   152 H    0.994
   131   6 C    3.929 --   133 C    1.392   132 N    1.262   130 C    1.207
   132   7 N    3.021 --   128 C    1.314   131 C    1.262   126 Zn   0.561
   133   6 C    3.835 --   134 C    1.394   131 C    1.392   153 H    0.998
   134   6 C    3.930 --   133 C    1.394   137 N    1.261   135 C    1.206
   135   6 C    3.856 --   136 C    1.631   134 C    1.206   154 H    0.994
   136   6 C    3.840 --   135 C    1.631   138 C    1.219   155 H    0.999
   137   7 N    3.019 --   138 C    1.313   134 C    1.261   126 Zn   0.561
   138   6 C    3.927 --   137 N    1.313   139 C    1.290   136 C    1.219
   139   6 C    3.826 --   140 C    1.290   138 C    1.290    88 C    1.223
   140   6 C    3.927 --   144 N    1.313   139 C    1.290   141 C    1.219
   141   6 C    3.840 --   142 C    1.631   140 C    1.219   156 H    0.999
   142   6 C    3.856 --   141 C    1.631   143 C    1.206   157 H    0.994
   143   6 C    3.930 --   145 C    1.394   144 N    1.261   142 C    1.206
   144   7 N    3.019 --   140 C    1.313   143 C    1.261   126 Zn   0.561
   145   6 C    3.835 --   143 C    1.394   146 C    1.392   158 H    0.998
   146   6 C    3.929 --   145 C    1.392   150 N    1.262   147 C    1.207
   147   6 C    3.855 --   148 C    1.630   146 C    1.207   159 H    0.994
   148   6 C    3.840 --   147 C    1.630   149 C    1.221   160 H    0.999
   149   6 C    3.926 --   150 N    1.314   127 C    1.287   148 C    1.221
   150   7 N    3.021 --   149 C    1.314   146 C    1.262   126 Zn   0.561
   151   1 H    1.027 --   129 C    0.999
   152   1 H    1.020 --   130 C    0.994
   153   1 H    1.034 --   133 C    0.998
   154   1 H    1.021 --   135 C    0.994
   155   1 H    1.028 --   136 C    0.999
   156   1 H    1.028 --   141 C    0.999
   157   1 H    1.021 --   142 C    0.994
   158   1 H    1.034 --   145 C    0.998
   159   1 H    1.020 --   147 C    0.994
   160   1 H    1.027 --   148 C    0.999
 ---------------------------------------------------------------------------

Topologies differ in total number of bonds
Writing topology from bond orders to xtbtopo.mol

 dipole moment from electron density (au)
     X       Y       Z   
 -83.2350   0.0402   0.0278  total (Debye):  211.562


           -------------------------------------------------
          | TOTAL ENERGY             -323.821646673829 Eh   |
          | GRADIENT NORM               0.073153153443 Eh/α |
          | HOMO-LUMO GAP               0.126857382713 eV   |
           -------------------------------------------------
########################################################################
[WARNING] Runtime exception occurred
-1- restart_readRestart: Dimension missmatch in restart file.
########################################################################

------------------------------------------------------------------------
 * finished run on 2022/07/30 at 07:03:56.300     
------------------------------------------------------------------------
 total:
 * wall-time:     0 d,  0 h,  0 min, 14.181 sec
 *  cpu-time:     0 d,  0 h,  0 min, 14.064 sec
 * ratio c/w:     0.992 speedup
 SCF:
 * wall-time:     0 d,  0 h,  0 min, 13.631 sec
 *  cpu-time:     0 d,  0 h,  0 min, 13.524 sec
 * ratio c/w:     0.992 speedup

