160
 energy: -282.512345523814 gnorm: 1.358239331823 xtb: 6.5.1 (b24c23e)
Zn          18.96910900000000        0.02791500000000        0.02943100000000
C           15.59545200000000       -0.08171700000000       -0.08062100000000
C           16.26835800000000       -0.89650000000000       -0.89907300000000
C           15.63965700000000       -1.82692400000000       -1.83360000000000
C           16.60048000000000       -2.46822900000000       -2.47778300000000
C           17.88360100000000       -1.97452000000000       -1.98192800000000
N           17.68941600000000       -0.97895900000000       -0.98195000000000
C           19.07184000000000       -2.40539200000000       -2.41468900000000
C           20.37152400000000       -1.91397400000000       -1.92104200000000
C           21.65120700000000       -2.41216700000000       -2.42116600000000
C           22.60695700000000       -1.77092800000000       -1.77705500000000
N           20.52514300000000       -1.00503600000000       -1.00822300000000
C           21.93643100000000       -0.85518800000000       -0.85753300000000
C           22.54516100000000       -0.00877600000000       -0.00743200000000
C           21.79734700000000        0.89715500000000        0.90230600000000
C           22.36875200000000        1.74414000000000        1.75290500000000
C           21.30666100000000        2.44149900000000        2.45330300000000
C           20.16030300000000        1.97537700000000        1.98521200000000
N           20.37277700000000        0.97875900000000        0.98428800000000
C           18.84500800000000        2.44578300000000        2.45779300000000
C           17.67813500000000        1.98836200000000        1.99846200000000
C           16.37031900000000        2.43766600000000        2.44994500000000
C           15.48929100000000        1.74303000000000        1.75233100000000
C           16.23620000000000        0.85424000000000        0.85946000000000
N           17.51754900000000        0.99102000000000        0.99668000000000
H           14.51234100000000       -0.10424100000000       -0.10317300000000
H           14.57823900000000       -1.97663600000000       -1.98392700000000
H           16.44681500000000       -3.22420200000000       -3.23708600000000
H           19.09153800000000       -3.16987700000000       -3.18253000000000
H           21.80208700000000       -3.16829800000000       -3.18046100000000
H           23.66863000000000       -1.91771300000000       -1.92425400000000
H           23.42838300000000        1.89639100000000        1.90580000000000
H           21.42646900000000        3.20060700000000        3.21571800000000
H           18.82837800000000        3.21067200000000        3.22608300000000
H           16.14658000000000        3.18474500000000        3.20041300000000
H           14.41363400000000        1.82598600000000        1.83582800000000
Zn          69.96256300000000       -0.06072300000000       -0.00484600000000
C           73.33622000000000        0.09442900000000       -0.01250400000000
C           72.66331400000000        1.24788100000000       -0.06981800000000
C           73.29201500000001        2.56498100000000       -0.13520400000000
C           72.33119200000000        3.47284100000000       -0.18030900000000
C           71.04807000000000        2.77397100000000       -0.14563700000000
N           71.24225600000000        1.36464500000000       -0.07565400000000
C           69.85983200000000        3.38390300000000       -0.17590800000000
C           68.56014700000000        2.68821400000000       -0.14132800000000
C           67.28046500000001        3.39327300000000       -0.17614200000000
C           66.32471500000000        2.48551100000000       -0.13104600000000
N           68.40652900000001        1.40161400000000       -0.07754600000000
C           66.99524099999999        1.18936900000000       -0.06688100000000
C           66.38651100000000       -0.00877600000000       -0.00743200000000
C           67.13432500000000       -1.29107800000000        0.05609300000000
C           66.56292000000001       -2.48998100000000        0.11552600000000
C           67.62501100000000       -3.47713300000000        0.16450600000000
C           68.77136900000001       -2.81735300000000        0.13181300000000
N           68.55889500000001       -1.40660800000000        0.06184200000000
C           70.08666299999999       -3.48332400000000        0.16494600000000
C           71.25353699999999       -2.83587400000000        0.13287900000000
C           72.56135300000000       -3.47203800000000        0.16460100000000
C           73.44238000000000       -2.48877500000000        0.11584700000000
C           72.69547199999998       -1.23050200000000        0.05326800000000
N           71.41412300000000       -1.42401600000000        0.06276000000000
H           74.41933100000000        0.12626600000000       -0.01403300000000
H           74.35343200000000        2.77688200000000       -0.14569200000000
H           72.48485700000001        4.54298800000000       -0.23343200000000
H           69.84013400000001        4.46609100000000       -0.22962100000000
H           67.12958500000001        4.46353200000000       -0.22915300000000
H           65.26304200000000        2.69314100000000       -0.14118900000000
H           65.50328900000000       -2.70548900000000        0.12620500000000
H           67.50520299999999       -4.55169300000000        0.21782200000000
H           70.10329400000001       -4.56611300000000        0.21871800000000
H           72.78509199999999       -4.52966100000000        0.21717200000000
H           74.51803799999999       -2.60632400000000        0.12180800000000
C           29.31198699999999       -0.00876900000000        0.00136000000000
C           28.10304800000000       -0.02222400000000       -0.00708700000000
C           26.68151900000000       -0.01340500000000       -0.01907000000000
C           25.46984900000000       -0.00596600000000       -0.00820800000000
C           30.72859100000000       -0.01544400000000        0.00189300000000
C           31.94928700000000       -0.00596600000000       -0.00820800000000
C           45.06928000000000       -0.00876900000000        0.00136000000000
C           43.86034100000000       -0.02222400000000       -0.00708700000000
C           42.43881200000000       -0.01340500000000       -0.01907000000000
C           41.22714200000000       -0.00596600000000       -0.00820800000000
C           46.48588400000000       -0.01544400000000        0.00189300000000
C           47.70658000000000       -0.00596600000000       -0.00820800000000
C           60.82657300000000       -0.00876900000000        0.00136000000000
C           59.61763400000000       -0.02222400000000       -0.00708700000000
C           58.19610500000000       -0.01340500000000       -0.01907000000000
C           56.98443500000000       -0.00596600000000       -0.00820800000000
C           62.24317700000000       -0.01544400000000        0.00189300000000
C           63.46387299999999       -0.00596600000000       -0.00820800000000
Zn          36.54470700000000       -0.04366100000000       -0.03845800000000
C           33.11125500000000        0.01056100000000        0.00975500000000
C           33.77778900000000        0.88399400000000        0.78698600000000
C           33.15347600000000        1.87598500000000        1.66967500000000
C           34.11184800000000        2.55455200000000        2.27355200000000
C           35.39305700000000        2.03432300000000        1.81068500000000
N           35.20096599999999        0.97874500000000        0.87137100000000
C           36.57544100000000        2.49937500000000        2.22456100000000
C           37.88511700000000        1.99618800000000        1.77682800000000
C           39.15176000000000        2.54111500000000        2.26183600000000
C           40.12394000000000        1.87568300000000        1.66967000000000
N           38.06109400000000        1.03674600000000        0.92297300000000
C           39.47630899999999        0.89802500000000        0.79957200000000
C           40.10535800000000        0.01056100000000        0.00975500000000
C           39.37543400000000       -0.95497500000000       -0.84955000000000
C           39.96217800000000       -1.84577400000000       -1.64242400000000
C           38.91210700000000       -2.59309900000000       -2.30743000000000
C           37.75792599999999       -2.10970800000000       -1.87709700000000
N           37.95223800000000       -1.05357800000000       -0.93716500000000
C           36.45284899999999       -2.61969300000000       -2.33077000000000
C           35.27366500000000       -2.15202200000000       -1.91452000000000
C           33.98655400000000       -2.65396900000000       -2.36104900000000
C           33.07998500000000       -1.93833400000000       -1.72425500000000
C           33.78767400000000       -0.97592700000000       -0.86799600000000
N           35.07518000000000       -1.09801000000000       -0.97670200000000
H           32.09610600000000        2.04670900000000        1.82154000000000
H           33.95658400000000        3.35488400000000        2.98572600000000
H           36.58185100000000        3.30904000000000        2.94505600000000
H           39.28290500000000        3.34353500000000        2.97595600000000
H           41.18174400000000        2.04507400000000        1.82045800000000
H           41.02448200000000       -1.99687500000000       -1.77700000000000
H           39.04469700000000       -3.39567900000000       -3.02170400000000
H           36.45437800000000       -3.42980800000000       -3.05163200000000
H           33.79205300000000       -3.44943800000000       -3.06881800000000
H           32.01062300000000       -2.05930800000000       -1.83182700000000
Zn          52.30200000000000       -0.04366100000000       -0.03845800000000
C           48.86854800000000        0.01056100000000        0.00975500000000
C           49.53508200000000        0.88399400000000        0.78698600000000
C           48.91076899999999        1.87598500000000        1.66967500000000
C           49.86913999999999        2.55455200000000        2.27355200000000
C           51.15035000000000        2.03432300000000        1.81068500000000
N           50.95825900000000        0.97874500000000        0.87137100000000
C           52.33273399999999        2.49937500000000        2.22456100000000
C           53.64240999999999        1.99618800000000        1.77682800000000
C           54.90905300000000        2.54111500000000        2.26183600000000
C           55.88123300000000        1.87568300000000        1.66967000000000
N           53.81838700000000        1.03674600000000        0.92297300000000
C           55.23360200000000        0.89802500000000        0.79957200000000
C           55.86265099999999        0.01056100000000        0.00975500000000
C           55.13272700000000       -0.95497500000000       -0.84955000000000
C           55.71947099999999       -1.84577400000000       -1.64242400000000
C           54.66940000000000       -2.59309900000000       -2.30743000000000
C           53.51521900000000       -2.10970800000000       -1.87709700000000
N           53.70953100000000       -1.05357800000000       -0.93716500000000
C           52.21014200000000       -2.61969300000000       -2.33077000000000
C           51.03095800000000       -2.15202200000000       -1.91452000000000
C           49.74384700000000       -2.65396900000000       -2.36104900000000
C           48.83727800000000       -1.93833400000000       -1.72425500000000
C           49.54496700000000       -0.97592700000000       -0.86799600000000
N           50.83247300000000       -1.09801000000000       -0.97670200000000
H           47.85339900000000        2.04670900000000        1.82154000000000
H           49.71387699999999        3.35488400000000        2.98572600000000
H           52.33914400000000        3.30904000000000        2.94505600000000
H           55.04019800000000        3.34353500000000        2.97595600000000
H           56.93903700000000        2.04507400000000        1.82045800000000
H           56.78177500000000       -1.99687500000000       -1.77700000000000
H           54.80199000000000       -3.39567900000000       -3.02170400000000
H           52.21167100000000       -3.42980800000000       -3.05163200000000
H           49.54934600000000       -3.44943800000000       -3.06881800000000
H           47.76791600000000       -2.05930800000000       -1.83182700000000
160
 energy: -282.931124995616 gnorm: 0.488732908743 xtb: 6.5.1 (b24c23e)
Zn          18.97179278400884        0.02625561360425        0.02777737648401
C           15.59610191607736       -0.07142916002783       -0.07028743592567
C           16.27398954116209       -0.89781185663129       -0.90038938663391
C           15.63816549793910       -1.82323854208809       -1.82989787984753
C           16.60586416003908       -2.46922037409708       -2.47877849595137
C           17.88145483996273       -1.97081799633820       -1.97820899908706
N           17.67301641839139       -0.99119530215866       -0.99424359341871
C           19.08636012567727       -2.40399684879764       -2.41328743792140
C           20.36613788044403       -1.92447108084791       -1.93158082291643
C           21.64309424492866       -2.41770575909598       -2.42672789029626
C           22.60856838797983       -1.76690138694964       -1.77301552309158
N           20.53518230858295       -1.00533325723495       -1.00851343467799
C           21.94404651107120       -0.85380745062270       -0.85615973900911
C           22.52893118947335        0.00047408847812        0.00178043056023
C           21.79407634457576        0.88800651693763        0.89310969736200
C           22.37118783860604        1.75779844045783        1.76662103999689
C           21.32771836896962        2.44305149596534        2.45486265092270
C           20.14938496035958        1.96793687633943        1.97774448495873
N           20.38005962262509        0.98376135963223        0.98931910151193
C           18.85816200389073        2.44014855321566        2.45213251167168
C           17.67628935846396        1.98750167133787        1.99759773177743
C           16.37449886571462        2.43740759098484        2.44968546064709
C           15.48097755088892        1.73671816324266        1.74599183494727
C           16.21949517115063        0.84911566218637        0.85431448536767
N           17.51552262328774        0.99880162174110        1.00448961106553
H           14.51270942980872       -0.10170163287692       -0.10062257550579
H           14.57790694560887       -1.97294744957573       -1.98022226951268
H           16.45207131377146       -3.22429500598870       -3.23717999502462
H           19.09548127733151       -3.16929234363317       -3.18194431810652
H           21.79790350715378       -3.17023386420302       -3.18240563557979
H           23.66890488603543       -1.91314764650857       -1.91967243281788
H           23.42952849161154        1.89860222496038        1.90801890452500
H           21.43115599703357        3.20077325434218        3.21588391571128
H           18.83420557342600        3.20813491113675        3.22353273492382
H           16.15165722324125        3.18418601835534        3.19985046612856
H           14.41072258289739        1.82289768242541        1.83272575544377
Zn          69.95988622806583       -0.05838577338737       -0.00495739119993
C           73.33556945115605        0.07986716595004       -0.01178056481006
C           72.65768405400094        1.24973609591131       -0.06991024419811
C           73.29350612188402        2.55976315802679       -0.13494456029189
C           72.32580714558517        3.47424366361281       -0.18037877027246
C           71.05021651332336        2.76872740080544       -0.14537661938048
N           71.25865298525072        1.38197188772105       -0.07651333226989
C           69.84530872790442        3.38192814756082       -0.17580874458391
C           68.56553438504014        2.70307833378387       -0.14206616283411
C           67.28857629688622        3.40111432919662       -0.17653092785209
C           66.32310138116911        2.47981794324011       -0.13076270261655
N           68.39650827469781        1.40203709608238       -0.07756701829043
C           66.98764765410405        1.18744016074159       -0.06678725154418
C           66.40298785465215       -0.02181450507087       -0.00678992472937
C           67.13760798920481       -1.27814217256441        0.05545049831092
C           66.56048087901193       -2.50932319188622        0.11648601795391
C           67.60395016552549       -3.47933124240841        0.16461542346247
C           68.78228431339379       -2.80682747932616        0.13129281359093
N           68.55163060475290       -1.41369085511822        0.06219812519665
C           70.07350733060900       -3.47534578893743        0.16454896200407
C           71.25538199354489       -2.83465635387686        0.13281820066892
C           72.55717209904901       -3.47167231221358        0.16458280004111
C           73.45069324805571       -2.47984008717943        0.11540395803247
C           72.71217613943558       -1.22325066351614        0.05290837131245
N           71.41614959510032       -1.43502791303353        0.06330418127308
H           74.41896231956052        0.12267179316231       -0.01385465729352
H           74.35376409205715        2.77166063189876       -0.14543289965351
H           72.47960020199753        4.54311964407592       -0.23343912917769
H           69.83618908061743        4.46526389931457       -0.22958029169943
H           67.13376690974242        4.46627151530627       -0.22928994757752
H           65.26276501832483        2.68667907764683       -0.14086983606761
H           65.50214612163147       -2.70862276771079        0.12635917250466
H           67.50051487068794       -4.55192459514244        0.21783245533480
H           70.09746488875027       -4.56251859237874        0.21853856407099
H           72.78001432877991       -4.52886831732607        0.21713178596717
H           74.52094888975336       -2.60195167804998        0.12159059277564
C           29.31156251068003       -0.00925921841596        0.00106654972679
C           28.08709120215011       -0.02199110994371       -0.00743221965670
C           26.68535036139196       -0.01337644588873       -0.01858689589733
C           25.46335388434755       -0.00606327530717       -0.00818862821174
C           30.67835491700514       -0.01550858173814        0.00237501419802
C           31.87975450559188       -0.00977642077688       -0.01246208096045
C           45.07767923356662       -0.00911337217805        0.00098369614814
C           43.85569291463976       -0.02230106287657       -0.00710232138401
C           42.50073386521253       -0.01509271775430       -0.02086726294367
C           41.30518235605695       -0.01377310257810       -0.01500435363039
C           46.43635372141151       -0.01545936501305        0.00247223102869
C           47.63856807973727       -0.00975577595682       -0.01244032956492
C           60.84423955917028       -0.00897360636778        0.00123524379572
C           59.62043625119417       -0.02214184853586       -0.00712908390913
C           58.25836803548498       -0.01519073847819       -0.02088640354945
C           57.06389710587273       -0.01378435457399       -0.01502566296099
C           62.24262113424558       -0.01514078799001        0.00184200684632
C           63.46678813190682       -0.00625330719784       -0.00804147383467
Zn          36.54697899812756       -0.04323256601585       -0.03807061499470
C           33.16634585004562        0.00073175342934        0.00120990768020
C           33.80558329217334        0.89509413098780        0.79688381261184
C           33.15319077908504        1.86982721137354        1.66417365798071
C           34.11873672239400        2.55639254744917        2.27519335336564
C           35.39096581277561        2.03253233722976        1.80909601683669
N           35.19050141524453        0.99452125597293        0.88544156062606
C           36.59045099584106        2.49962309017631        2.22477311566174
C           37.87642763263425        2.01197258870724        1.79087316470618
C           39.14101552573145        2.54872662529169        2.26861359005070
C           40.12114632474766        1.87025260437636        1.66483720698246
N           38.06351031642632        1.04088832902291        0.92670953893826
C           39.44605325463498        0.91067462602459        0.81089733386616
C           40.02775869420297        0.00261311118891        0.00267698202519
C           39.34573152605972       -0.95439432445421       -0.84898774823059
C           39.96129137396160       -1.85975197417760       -1.65485555462634
C           38.93183435378079       -2.59573989351959       -2.30978210822171
C           37.74504463149695       -2.10429236867032       -1.87227369752829
N           37.95250628743270       -1.06256503953348       -0.94514809290365
C           36.46588994840847       -2.61474783740372       -2.32637381804386
C           35.27302560953851       -2.15287852820383       -1.91528051213282
C           33.99124309305238       -2.65412811300034       -2.36119001451199
C           33.07253852801649       -1.93063490003158       -1.71741442919885
C           33.78896152567687       -0.97815419548402       -0.86997220722476
N           35.08028568130745       -1.10921899268127       -0.98665518459986
H           32.09577478673815        2.04082354584746        1.81630268967068
H           33.96167797873034        3.35507126865008        2.98589453308896
H           36.58535950995030        3.30913567305128        2.94513853099805
H           39.27886258271670        3.34609853253807        2.97823810850491
H           41.18045078590825        2.03914220622488        1.81518055317909
H           41.02443981425518       -1.99824623678219       -1.77821778193856
H           39.04958663272361       -3.39618221031092       -3.02215323672139
H           36.45979872795193       -3.42753900277018       -3.04961508724625
H           33.79683443401503       -3.44876791529234       -3.06822084645338
H           32.00772113846484       -2.05463951078202       -1.82767266098380
Zn          52.30428231488307       -0.04328768338932       -0.03811402532766
C           48.92372501237711        0.00046731953661        0.00098087719789
C           49.56370813861862        0.89525435477650        0.79701809925919
C           48.91057563562238        1.87010080039704        1.66441570100309
C           49.87584135423553        2.55652060482068        2.27530712528523
C           51.14874018045660        2.03301596352844        1.80952969001627
N           50.94709077390866        0.99407649779459        0.88504425934920
C           52.34660264741083        2.49964049544879        2.22478802808172
C           53.63436692093649        2.01157101992315        1.79051745077115
C           54.89826201304228        2.54860924270945        2.26850845420380
C           55.87847438592161        1.87008568636830        1.66468649933546
N           53.82049786092874        1.04119439168692        0.92698213615028
C           55.20384800590065        0.91037864769139        0.81063396431139
C           55.78501164494007        0.00281433397699        0.00284011752169
C           55.10302719131133       -0.95417185980829       -0.84878675721471
C           55.71854693937702       -1.85969252026532       -1.65480274879493
C           54.68914676738581       -2.59571352126772       -2.30975941521788
C           53.50243976845836       -2.10423938549204       -1.87222551652273
N           53.70968269702670       -1.06258328723175       -0.94516506837907
C           52.22297907658453       -2.61474804701633       -2.32637402650268
C           51.03041768622001       -2.15297707686827       -1.91536529451031
C           49.74852021936857       -2.65415681602291       -2.36121557488643
C           48.82981174546028       -1.93072294145129       -1.71749342652067
C           49.54629395123391       -0.97824734455586       -0.87006605445073
N           50.83738070379820       -1.10909946056508       -0.98655034383524
H           47.85305038895360        2.04084693949648        1.81632369590154
H           49.71887874966301        3.35513422429189        2.98595079237971
H           52.34247922121791        3.30915033774894        2.94515078689389
H           55.03609038483278        3.34604464439764        2.97819096960272
H           56.93771118588617        2.03913402408670        1.81517472737633
H           56.78168266198102       -1.99823139993254       -1.77820395999995
H           54.80687161373199       -3.39616549381792       -3.02213823510930
H           52.21705350309560       -3.42753910049888       -3.04961594105848
H           49.55411033739768       -3.44878257523705       -3.06823375979615
H           47.76498008841954       -2.05466319469575       -1.82769358780548
160
 energy: -283.068336068468 gnorm: 0.222593026065 xtb: 6.5.1 (b24c23e)
Zn          18.97621910682515        0.02231079201164        0.02384069372200
C           15.59742326812922       -0.05896150813474       -0.05776495990732
C           16.27712830282835       -0.89889226258570       -0.90147366374716
C           15.63788449801693       -1.81827011460938       -1.82490668723090
C           16.61347408248724       -2.46953267381096       -2.47909241963314
C           17.88036418716741       -1.96880490527990       -1.97618663672040
N           17.64992129489002       -1.00841981098328       -1.01154887088735
C           19.10539296877127       -2.40109170134343       -2.41036587117781
C           20.36365722331930       -1.93819846748201       -1.94535451994415
C           21.63625025705418       -2.42402130958559       -2.43306788108347
C           22.60736524147935       -1.76316149161642       -1.76927549990353
N           20.55053662551858       -1.00785675558302       -1.01103356932747
C           21.95145354553306       -0.85352460622644       -0.85592558917127
C           22.49961110669598        0.01789721809224        0.01908139802829
C           21.79257689981009        0.88402570823852        0.88906471655797
C           22.37465107544449        1.77620015719833        1.78509028206657
C           21.35634270215938        2.44335298684523        2.45517148628308
C           20.14685272568461        1.96002444081198        1.96981344542969
N           20.39266289321435        0.99200155528080        0.99761203592074
C           18.88081509464088        2.42802565870089        2.43995620531371
C           17.67459143412570        1.98376290706229        1.99384141346974
C           16.37832588195699        2.43294413861214        2.44520279039431
C           15.46997153608755        1.72931949954431        1.73856041772625
C           16.19669523872175        0.84436486107952        0.84954299494748
N           17.50954841425381        1.00832334748947        1.01404474849717
H           14.51395067424838       -0.09599350468787       -0.09488902987365
H           14.57756047370647       -1.96405050568237       -1.97128652259061
H           16.46494155114537       -3.22434781579031       -3.23723503870416
H           19.10529247158494       -3.16704116815685       -3.17968677247371
H           21.79030914710031       -3.17533232963191       -3.18752536491531
H           23.66873240439635       -1.90263327589846       -1.90912708416384
H           23.43456661331552        1.90419283884851        1.91362460064861
H           21.44299042355469        3.20125991029229        3.21637178896303
H           18.85287113907918        3.19806217283034        3.21340901000910
H           16.16349954525995        3.18085771604078        3.19650517365948
H           14.40195114986796        1.81648770550402        1.82628675479563
Zn          69.95547090028454       -0.05282466903777       -0.00522628915206
C           73.33424704348241        0.06221827742025       -0.01090330817996
C           72.65454569755418        1.25126444100240       -0.06998516059871
C           73.29378650300478        2.55272852265244       -0.13459372804124
C           72.31819614732497        3.47468501634218       -0.18040014594057
C           71.05130730160376        2.76587643471374       -0.14523377061442
N           71.28174544007729        1.40636099814713       -0.07772160592670
C           69.82627608083986        3.37781789971884       -0.17560132861329
C           68.56801992044561        2.72251788594950       -0.14303069031800
C           67.29542121735130        3.41005993484504       -0.17697431183252
C           66.32430512008388        2.47454666059195       -0.13049815420570
N           68.38117686779979        1.40561362775133       -0.07774643899288
C           66.98025527301415        1.18710231767230       -0.06677019991565
C           66.43248454297907       -0.04636233318342       -0.00556699591537
C           67.13912480027736       -1.27249991016148        0.05517165859239
C           66.55702191763454       -2.53538166901965        0.11777953965253
C           67.57532667184424       -3.47976779290911        0.16463866265568
C           68.78482224480497       -2.79564867450469        0.13074428783794
N           68.53905433487643       -1.42537708900806        0.06278809198484
C           70.05085445777848       -3.45818758164138        0.16369629565516
C           71.25707979059581       -2.82936408064186        0.13255540379597
C           72.55334423903949       -3.46535452130349        0.16427044574957
C           73.46169895248404       -2.46936689262176        0.11488469418199
C           72.73497603228458       -1.21652709419250        0.05257508618859
N           71.42212391238644       -1.44850296559771        0.06397135420722