754
 energy: -1191.143833298842 gnorm: 0.000993917441 xtb: 6.5.1 (b24c23e)
C          109.25713717697654        0.07447239919443       -0.00155018855879
C          109.86750145502475        1.27252619884359        0.34693126329776
C          109.21830215268895        2.47971144111826        0.72961253265843
C          110.18245646626360        3.41494123811898        0.98133453310050
C          111.45175931691291        2.81212142204497        0.75002106554014
N          111.21097145167263        1.51942560635499        0.37977535819511
C          112.71511810627972        3.39936217315466        0.88280292167619
C          113.92990025062849        2.74336441406790        0.67393550309692
C          115.22545207204851        3.39383866506308        0.75560016235355
C          116.14758427589236        2.44373104809178        0.49663517216447
N          114.08694681415105        1.42921762479320        0.35194368539921
C          115.41407292100888        1.21737598108082        0.24960546299165
C          116.05289891777990       -0.00611702694133       -0.04010799669738
C          115.41603302242805       -1.22908334470660       -0.32564021291954
C          116.05836725094080       -2.46803230417271       -0.58846778364631
C          115.08984246275553       -3.40187876191199       -0.83281879176920
C          113.82491036810202       -2.75841782333649       -0.73541813990252
C          112.56316409958576       -3.33645144066950       -0.90708735270722
C          112.53032694999052       -4.77164276027091       -1.28162346824465
C          111.91676198757847       -5.70233672909164       -0.44379132856294
C          111.88640314996654       -7.04955774802723       -0.78647897383279
C          111.21171056685174       -8.04878769445856        0.11405779535819
C          112.47031737297216       -7.46308059080394       -1.98042609682072
C          113.08550221949321       -6.54665077888702       -2.82782514972774
C          113.69476633361266       -7.00149418778646       -4.12652149145630
C          113.11399426920690       -5.20230074503833       -2.47238389099994
C          111.34655129119160       -2.66347271478466       -0.75261634340440
C          110.04355990477268       -3.26578673895620       -0.98824807518027
C          109.12823535711729       -2.30960924839139       -0.73163354522027
C          109.87094618408393       -1.12141157112644       -0.35016720962521
N          111.20356342121740       -1.36867659364842       -0.38321292469206
N          114.07443902359711       -1.44895550367085       -0.41749243516809
C          112.74594462338878        4.83019093487334        1.27637675627742
C          113.35594245589954        5.21682877028056        2.46817031982666
C          113.38066341641340        6.55517177999530        2.84832521657286
C          114.05282775132301        6.96102754444387        4.13207165418678
C          112.79419782424581        7.50883762229865        2.02311672229825
C          112.18206203320062        7.13869992332993        0.82844078497582
C          111.56971576846014        8.18420634528599       -0.06413407983138
C          112.15935317146879        5.79816504161567        0.46118142456733
H          108.17177908209732        0.08306001507247        0.00218096138128
H          108.14947782559084        2.60167715624814        0.80495297109526
H          110.03400455589298        4.43203174600341        1.30610960196627
H          111.93435457731684        0.84138587408685        0.16489863634837
H          115.38458849396049        4.43853642705430        0.96842195135479
H          117.22112157545763        2.53900701251925        0.46267125438073
H          117.12611242056548       -2.61696888334565       -0.58327058949172
H          115.23471756111655       -4.44707706179743       -1.05239091376579
H          111.47897998682677       -5.37012942788788        0.49114031890567
H          110.18209172503025       -8.20787551283477       -0.21455933760233
H          111.72823408501252       -9.00854425647110        0.08392893480471
H          111.18869085234792       -7.69181098951359        1.14373188019065
H          112.44834254445055       -8.51350362699566       -2.25202365807184
H          114.50620940857077       -6.33905453837918       -4.42844894199606
H          114.08128131626995       -8.01717512517437       -4.03916882681623
H          112.93791580829033       -6.99305324063164       -4.91425575480462
H          113.57830608030197       -4.47713807713116       -3.13186900027289
H          109.87764425015256       -4.27900560935174       -1.31733259512343
H          108.05283538023237       -2.36958519469079       -0.79352901427398
H          113.35409436305893       -0.75028092660913       -0.26733195977295
H          113.79706819884052        4.46270349672991        3.11069032522849
H          113.86228122789163        6.22764761828897        4.91628585017956
H          113.69895071474251        7.93608981041430        4.46682747165020
H          115.13311529612618        7.02195292068174        3.98219044378556
H          112.81067566188011        8.55410471640686        2.31425963259062
H          111.09808026558765        8.96951539356367        0.52740301883094
H          112.34401736874683        8.64495131355006       -0.68174916796380
H          110.82352917678297        7.74374074304902       -0.72549348003786
H          111.69756889811151        5.49956133998483       -0.47368739743656
C          283.54571710052016       -0.07624894330444       -0.04093152803456
C          282.93640604027360       -1.29013829792739       -0.33166414680350
C          283.58675374952782       -2.52752872406935       -0.59833919019562
C          282.62336785337538       -3.46603161492337       -0.84064979832879
C          281.35340150039804       -2.82961506689644       -0.73989431142072
N          281.59306433941236       -1.52268552679198       -0.42272006935124
C          280.09048953353806       -3.40828344591491       -0.90931928385709
C          278.87492884533140       -2.73725813304263       -0.76217897222736
C          277.57948425609828       -3.34712168218345       -1.00318569471346
C          276.65657841294603       -2.39356600154860       -0.76025647512808
N          278.71690701609839       -1.43399345804007       -0.39885748490843
C          277.38948735784658       -1.20134465933898       -0.38009941808559
C          276.74977355600976        0.00916372411097       -0.04163945235750
C          277.38544381639321        1.21764747155979        0.30212980212949
C          276.74170860882776        2.42726713267011        0.67508311798938
C          277.70941888436772        3.36031784877450        0.92559313724636
C          278.97530585714463        2.75055418487567        0.70352691563515
C          280.23679611378952        3.33653790114641        0.84774784147689
C          280.26920892999328        4.76882799663166        1.23343421331059
C          280.87454644057817        5.16018894743353        2.42720189954925
C          280.90444834138708        6.49982469502240        2.79837889282584
C          281.57014833080200        6.91946302828739        4.08110134053574
C          280.32837401123038        7.45220319013867        1.96256123276375
C          279.72160249932830        7.07798926678474        0.76750306411927
C          279.12092828634741        8.11844778373496       -0.13878424483211
C          279.69350529610142        5.73447246356965        0.40879986001696
C          281.45398709138834        2.67409370138154        0.65658172707651
C          282.75674128076128        3.31372327787825        0.75567147823705
C          283.67284119780965        2.35595422007729        0.50795698398960
C          282.93091662524245        1.13492477452636        0.24799456539879
N          281.59798500234041        1.36617678216216        0.33722316149102
N          278.72699289330228        1.45365824058188        0.33675695805283
C          280.06135184683973       -4.84659154380829       -1.27502288789437
C          279.45935488054886       -5.77456462136603       -0.42744323366436
C          279.43574676435099       -7.12539413265216       -0.76053716056003
C          278.77184148966700       -8.11601503639099        0.15729975248086
C          280.01525498130212       -7.54322983314698       -1.95388907642872
C          280.61956481963472       -6.62818311696982       -2.81198348786714
C          281.22425181563017       -7.09187778919433       -4.10970262650350
C          280.64127480472382       -5.28180411696698       -2.46657062121088
H          284.63108212462987       -0.08478726397400       -0.04131619433387
H          284.65578722985435       -2.66929392444771       -0.59564559187117
H          282.77270022741232       -4.51028202789407       -1.06254462205098
H          280.86904245904719       -0.82815975034612       -0.27229218324183
H          277.42077480019231       -4.36280207015437       -1.32753093818816
H          275.58286286196068       -2.46223889990867       -0.83178920929574
H          275.67360560318934        2.55527684633518        0.74625373461384
H          277.56327973598712        4.37917624072302        1.24528887728777
H          281.30623814641172        4.40710126567541        3.07729239501552
H          282.60070789797567        7.22231505915985        3.88201621960466
H          281.04954234399321        7.76635125812332        4.52898325923757
H          281.58945884885861        6.09759289082150        4.79687995148361
H          280.34990743207277        8.49893063508978        2.24810570347404
H          278.31521170521717        7.69390082969806       -0.73794993267604
H          278.72879985511236        8.95609288890732        0.43848122768470
H          279.88432271886762        8.50304612948417       -0.81902839186900
H          279.23579608031179        5.43289830193418       -0.52710503269918
H          282.92197540985597        4.35683370828030        0.97259995571514
H          284.74833542759910        2.43855608823915        0.48789051217637
H          279.44814622136926        0.77024419385938        0.13064046024450
H          279.02358033075251       -5.43912812144798        0.50727878450376
H          278.96252152008680       -7.86363187463752        1.20087660284691
H          279.13206669655068       -9.12696643064748       -0.03314470013202
H          277.69116117122616       -8.10232301332367       -0.00132960402730
H          279.99940741299542       -8.59540106992884       -2.21903445740688
H          281.69145616943763       -8.06997440983883       -3.99109742815231
H          280.44631626349064       -7.17880078723835       -4.87164762308956
H          281.97248427222382       -6.38380709462077       -4.46608716792679
H          281.09702058198974       -4.55795404590230       -3.13345187239800
C          117.45801925071572       -0.02078069572189       -0.04669217378037
C          118.68286475284449       -0.03592328423629       -0.05234968650225
C          120.02520033740778       -0.04797525820094       -0.05659821422214
C          121.25621951651462       -0.05922939653761       -0.05941711067178
C          122.59375089881405       -0.06721308192094       -0.06691057733246
C          123.82488403858035       -0.07254016937870       -0.06996621949407
C          125.16703211936354       -0.07700990922696       -0.07138508007162
C          126.39219173274117       -0.07690259556597       -0.07587872523453
C          136.07113257389403       -0.06692532043379       -0.08001316465444
C          137.29662503453213       -0.06071142846284       -0.07922369662858
C          138.63837163342467       -0.05587946221233       -0.07780115454073
C          139.86992977988263       -0.05091252325661       -0.07632342921198
C          141.20701404161986       -0.04618414503486       -0.07536947325199
C          142.43855451043552       -0.04185791722107       -0.07535536475499
C          143.78028470638981       -0.03830421843926       -0.07485932699391
C          145.00578909396106       -0.03401639250917       -0.07597930949758
C          154.68894008233465       -0.02942117921553       -0.06869966140543
C          155.91451177211187       -0.02603303409441       -0.06908223023523
C          157.25632947772635       -0.02589723391161       -0.06767419588737
C          158.48793946757854       -0.02354595609160       -0.06742246588973
C          159.82511800531319       -0.02139408146134       -0.06837836939728
C          161.05673234780485       -0.02079110072533       -0.06865020697302
C          162.39856574462144       -0.02222813066809       -0.06952112317507
C          163.62413549694654       -0.01992721340938       -0.07098003873987
C          173.31041611761040       -0.02638993488474       -0.06910335472007
C          174.53601817153080       -0.02362923717378       -0.06900576848608
C          175.87790253838273       -0.02328797359448       -0.06871369617281
C          177.10953891589071       -0.02221609676136       -0.06941058049394
C          178.44677981081222       -0.02179247680298       -0.06935076680599
C          179.67842295542795       -0.02075509184553       -0.07017135301788
C          181.02031967222419       -0.02052593888425       -0.07021930698274
C          182.24592918272128       -0.01888325859874       -0.07191015495980
C          191.93371385792659       -0.02600883970269       -0.06996858190486
C          193.15932968544294       -0.02342181476861       -0.06897224622671
C          194.50123959602320       -0.02337653125034       -0.06941946371500
C          195.73288565258824       -0.02440383811851       -0.07110141871560
C          197.07013903049474       -0.02076560217642       -0.07055221173207
C          198.30178082613222       -0.01945863717976       -0.07041833680441
C          199.64368337750832       -0.02269268218042       -0.07035788413345
C          200.86928105968053       -0.02076189322235       -0.07341216156188
C          210.55707470542393       -0.02886350880917       -0.07125112640848
C          211.78266524196178       -0.02679345771081       -0.07132366477725
C          213.12455047946270       -0.02705431827702       -0.07056817627750
C          214.35618201840160       -0.02584396767972       -0.07063873665452
C          215.69343312816221       -0.02534957393754       -0.07128761715203
C          216.92509708898874       -0.02460251827467       -0.07209426610414
C          218.26698483566400       -0.02523936715186       -0.07256738696201
C          219.49257976480905       -0.02334652768396       -0.07427877774093
C          229.17885565603603       -0.03165590085079       -0.07262607969602
C          230.40441934230489       -0.02931516987417       -0.07268681467728
C          231.74622930124858       -0.02840019310072       -0.07122316119392
C          232.97783868528973       -0.02891234211051       -0.07371041395556
C          234.31502121790069       -0.02769322815240       -0.06998322440487
C          235.54661708876728       -0.02517102712130       -0.07166124293541
C          236.88842959915681       -0.02901284588262       -0.07491775430777
C          238.11400200210090       -0.02449268298512       -0.07556249194231
C          247.79711322899223       -0.02797754374716       -0.07444980029348
C          249.02259359447953       -0.02364594004999       -0.07523105420795
C          250.36432745747695       -0.02295793702632       -0.07443014102601
C          251.59592826552418       -0.01657009628198       -0.07536951803940
C          252.93303592560690       -0.01460304250844       -0.07616776937329
C          254.16457968290285       -0.01120465391326       -0.07830485197353
C          255.50630545817984       -0.00517816184951       -0.07607883219707
C          256.73183654627417        0.00115413906944       -0.07779880698676
C          266.41029890314485        0.03966299683334       -0.05858157315149
C          267.63545606974679        0.04682091241907       -0.05518746312033
C          268.97758909503040        0.04955723799198       -0.05133172342131
C          270.20873983552832        0.05094010159111       -0.04871801576728
C          271.54632199870025        0.04918127642082       -0.04583400853777
C          272.77738892125143        0.04453158494129       -0.04364276509941
C          274.11974239912547        0.03658022415523       -0.04265969845300
C          275.34464750852993        0.02402096926996       -0.04247871375284
C          127.79635720251154       -0.07782810298658       -0.07874135436626
C          128.42449264716026       -1.25139261398129        0.38208955518495
C          127.77807658852736       -2.41412431874870        0.87473339395656
C          128.74485264786139       -3.32335154554087        1.20785684098380
C          130.01024456786919       -2.74402281472776        0.91883499639972
N          129.76564967137585       -1.48810860737994        0.43074380093354
C          131.26985334031556       -3.32622805938598        1.10589538074146
C          132.49538641909990       -2.71031616696467        0.85002076924245
C          133.77900764550864       -3.37193525786488        1.00166176121682
C          134.71959133445665       -2.46291457314552        0.67115537729812
N          132.67731224835171       -1.43184560734505        0.41638588015747
C          134.00896288647965       -1.25219618684123        0.31040379933522
C          134.66745266316309       -0.06846201386580       -0.08194574581703
C          134.03894243281437        1.12805388775782       -0.47992697680327
C          134.68518684357917        2.33597080633155       -0.84875635707547
C          133.71836254002673        3.24665763120018       -1.17762129214245
C          132.45298817083605        2.61682256800845       -1.02736497726836
C          131.19363317002274        3.18291723191543       -1.25822660583090
C          131.18032199051447        4.58111373963718       -1.75811839535758
C          130.58826720472325        5.59113102901280       -1.00053380761008
C          130.57042144211812        6.90217966724315       -1.46274080176889
C          129.94985776506863        7.99387024985006       -0.63361140949473
C          131.14842484432924        7.19932448999355       -2.69393957213029
C          131.74031472534637        6.20233953638875       -3.46273812645231
C          132.37452829371287        6.53469242273196       -4.78634612571577
C          131.75695959498995        4.89482284857558       -2.98765305694637
C          129.96785915435999        2.54626392073505       -1.05868783243868
C          128.68421623475047        3.15078239981848       -1.36736310674442
C          127.74366219122415        2.24193094833225       -1.03641246265382
C          128.45432858450349        1.08220007633009       -0.53574733821026
N          129.78632593590820        1.28815423078419       -0.57008568429800
N          132.69790942611087        1.34053251094938       -0.59467983286629
C          131.28112362324964       -4.71844096416085        1.62240531987539
C          130.70232149170755       -5.74846144691914        0.88277054361983
C          130.71260406512422       -7.05442526333723        1.36193393544103
C          130.07478040192024       -8.15891070279702        0.56321850114173
C          131.30056942783764       -7.32384976291397        2.59377431178950
C          131.88118451687325       -6.30575652196883        3.34488342084065
C          132.49627393237262       -6.60725690643398        4.68469993427500
C          131.86970185110567       -5.00510978466666        2.85349218213798
H          126.71002536176226       -2.52954634100413        0.96498067443300
H          128.59679245538766       -4.30593811566459        1.62514514626349
H          130.48456563441630       -0.82830726037281        0.15314306166512
H          133.91851811469110       -4.39636059781168        1.30665580653358
H          135.79171247704517       -2.57723193200540        0.65709770123042
H          135.75320413656254        2.48260318315923       -0.85371313060261
H          133.86614429466218        4.26780489700843       -1.48901749949406
H          130.15092280446081        5.34827202835438       -0.03835466022453
H          130.72312423891722        8.50919676533252       -0.05932297929442
H          129.45533166018717        8.72873064338011       -1.26952108352716
H          129.22123095150843        7.58491951171470        0.06635089454356
H          131.13302094242832        8.22080329039307       -3.05993872374943
H          132.29292890024030        5.69533240323989       -5.47730291453807
H          133.43505408611196        6.75513174323984       -4.64434910516732
H          131.90303096639681        7.40917088470455       -5.23500606744230
H          132.20145964495862        4.10657570444403       -3.58551655864421
H          128.54440264037436        4.13167309416740       -1.79185242377153
H          126.67155533505948        2.32056119716860       -1.12052224196119
H          131.97907806910825        0.65622952526940       -0.38431492391482
H          130.26036238837023       -5.52896127387626       -0.08307081974795
H          130.54675616419530       -9.11756656802728        0.77899242573145
H          130.15201279078690       -7.95928726820618       -0.50578111726149
H          129.01528033322819       -8.23635605080718        0.81809817051684
H          131.31031534441044       -8.34082945205993        2.97228214342790
H          133.25386651148537       -5.86650592933414        4.94067398566160
H          132.95413411092142       -7.59677416875690        4.68689705824725
H          131.72604953118670       -6.58867856807042        5.45916939755209
H          132.30870845093091       -4.20122409925216        3.43408381307400
C          146.40942584928970       -0.03411287544923       -0.07496162177761
C          147.03723107231235       -1.20266814395952        0.39990297946558
C          146.39068224696331       -2.36054849089543        0.90343491224559
C          147.35738233153918       -3.26710943367762        1.24415181466045
C          148.62281609734350       -2.69097201070774        0.94910143705374
N          148.37828805340601       -1.43908562869115        0.45045486389449
C          149.88198956442670       -3.27324657763340        1.13882667627908
C          151.10848543113954       -2.66141692727914        0.87746052787697
C          152.39084615940473       -3.32480596044745        1.03210308945499
C          153.33315253601998       -2.41972303531139        0.69568531808012
N          151.29280512982166       -1.38600240233988        0.43602132082808
C          152.62487005832986       -1.20969229754974        0.32839976633129
C          153.28523206553788       -0.02905336340822       -0.07016612460742
C          152.65729185895100        1.16580113981549       -0.47427776651763
C          153.30361264213153        2.37215395781332       -0.84762982829764
C          152.33686122208405        3.28081246863913       -1.18254082577407
C          151.07154620276575        2.65101710332366       -1.03191782643936
C          149.81245454928785        3.21518703095456       -1.27005381458065
C          149.80100336905795        4.61072211814893       -1.77756180410920
C          149.20736403195528        5.62486205970344       -1.02681356886559
C          149.19240516737293        6.93375219894661       -1.49529555844625
C          148.57070803742477        8.02993774473537       -0.67298354181164
C          149.77471224503040        7.22442946257330       -2.72597225181104
C          150.36796465858188        6.22315675609265       -3.48817823111290
C          151.00693745399758        6.54875095296133       -4.81116807035190
C          150.38178368546787        4.91793333738546       -3.00680680678213
C          148.58596301785602        2.57999861552393       -1.07130845964129
C          147.30376464453306        3.18247398285553       -1.38987145020252
C          146.36148982478241        2.27650765601535       -1.05573741675898
C          147.06968678035582        1.12076133196793       -0.54266222562929
N          148.40172351708063        1.32558356131022       -0.57363126074705
N          151.31628519393681        1.37711714527708       -0.59234041945270
C          149.89192881278177       -4.66207380955330        1.66447858326524
C          149.31139433943454       -5.69614196511633        0.93187448525570
C          149.32104599466240       -6.99910372874444        1.41913673748373
C          148.68161965792669       -8.10807816106723        0.62799245903834
C          149.91003711407166       -7.26132979843513        2.65205124954702
C          150.49226833892229       -6.23909404174654        3.39624551180867
C          151.10855402444128       -6.53283505705300        4.73722471819096
C          150.48147650879690       -4.94153102465384        2.89675045747246
H          145.32265313594354       -2.47492775431947        0.99515416006555
H          147.20918735310087       -4.24590354690405        1.67020276117102
H          149.09697515734058       -0.78192063135334        0.16610422984113
H          152.52847069416654       -4.34770993156678        1.34298025453228
H          154.40502190747853       -2.53635137342752        0.68166926528798
H          154.37156166816246        2.51931738866419       -0.85124333461733
H          152.48480499308744        4.30055194792843       -1.49842116138444
H          148.76665838253135        5.38702321517210       -0.06491338767871
H          149.34209738518788        8.54270437624411       -0.09388759929910
H          148.08433385445747        8.76587496641872       -1.31389019907236
H          147.83507572912765        7.62568945268554        0.02237766862664
H          149.76175267360577        8.24419201579560       -3.09681644486750
H          150.93030404512348        5.70493232012035       -5.49723067727229
H          152.06630313395095        6.77271528234300       -4.66605120519954
H          150.53524689385330        7.41929493271817       -5.26722461002903
H          150.82752996163009        4.12640344237895       -3.59937788980166
H          147.16610987110124        4.16008468222342       -1.82257142638437
H          145.28973202159460        2.35477934521364       -1.14468906418148
H          150.59767697621197        0.69321870552529       -0.37991854285253
H          148.86868791817815       -5.48224416984401       -0.03487836587605
H          149.15544612871179       -9.06515394470155        0.84671545101077
H          148.75481863814665       -7.91353371945480       -0.44221731883937
H          147.62313989003400       -8.18550251976948        0.88706321964482
H          149.91935538122726       -8.27595081356393        3.03683986692816
H          151.86575740436803       -5.79012764398080        4.98862928388917
H          151.56719270461249       -7.52196918916411        4.74441431521066
H          150.33887771464299       -6.51070425837276        5.51213951893994
H          150.92186470980812       -4.13442538017195        3.47179905755092
C          165.02783699118245       -0.02177939331174       -0.07084946337123
C          165.65501382062200       -1.19118335587538        0.40282345182510
C          165.00813218554322       -2.34899241644395        0.90607562206363
C          165.97454117268435       -3.25633849477436        1.24551633769559
C          167.24017320548060       -2.68081685520076        0.94995197447391
N          166.99599185460013       -1.42847297646657        0.45220614659894
C          168.49894768227844       -3.26425417683117        1.13865913229310
C          169.72621624742922       -2.65397216756376        0.87704981377616
C          171.00763032253110       -3.31940118874204        1.03111192331176
C          171.95127723218934       -2.41564633767439        0.69488260096115
N          169.91241638389195       -1.37871392938694        0.43607995541892
C          171.24478997839000       -1.20443352821762        0.32820246875983
C          171.90666154366187       -0.02462775368418       -0.07026455921207
C          171.27945673096528        1.17078170881094       -0.47393268302953
C          171.92627696204767        2.37667425808313       -0.84777505562677
C          170.95983700002941        3.28589238197584       -1.18208521526701
C          169.69419536249035        2.65693891394698       -1.03048537922072
C          168.43542721502226        3.22232509167976       -1.26774414179789
C          168.42572884394113        4.61777526470863       -1.77569504239668
C          167.83546984968439        5.63341816034725       -1.02436504541289
C          167.82282624050765        6.94223140399935       -1.49319623457990
C          167.20503019703571        8.04005212276758       -0.67013061532517
C          168.40397921874950        7.23125095651212       -2.72479192239694
C          168.99380975058867        6.22841984766902       -3.48762879601232
C          169.63168799187741        6.55228075312070       -4.81156863119625
C          169.00536657884754        4.92332105799331       -3.00590654096671
C          167.20812627642547        2.58904922561464       -1.06802970534093
C          165.92669497496354        3.19385737618772       -1.38539144703786
C          164.98306896609949        2.28950090578045       -1.05071950535376
C          165.68960060957326        1.13234811754535       -0.53851864179828
N          167.02198744711674        1.33484182184997       -0.57044725905621
N          169.93845663031874        1.38294327683325       -0.59101591843551
C          168.50795591480795       -4.65337832371234        1.66369623339825
C          167.92745016477190       -5.68689434943224        0.93033915539027
C          167.93703031811310       -6.99020139789462        1.41673669247404
C          167.29791301346194       -8.09862075011747        0.62457184451808
C          168.52582235009979       -7.25326076638647        2.64955251311606