237
 energy: -363.729896131052 gnorm: 1.873047361914 xtb: 6.5.1 (b24c23e)
Zn          27.12367900000000       -0.01839600000000       -0.01572600000000
C           23.74981100000000        0.11412200000000        0.02355700000000
C           24.41852700000000        1.16676200000000        0.50216900000000
C           23.77521000000000        2.34829100000000        1.06495400000000
C           24.72222400000000        3.20075400000000        1.41007800000000
C           26.02266800000000        2.60345900000000        1.07969300000000
N           25.83810100000000        1.30926600000000        0.50726700000000
C           27.21642700000000        3.20099200000000        1.26201000000000
C           27.26198200000000        4.56888600000000        1.84157000000000
C           27.17824800000000        5.70212400000000        0.99837100000000
C           27.04045300000000        5.55167400000000       -0.49466200000000
C           27.22118900000000        6.98740000000000        1.55991000000000
C           27.34078600000000        7.16005900000000        2.94377800000000
C           27.42668400000000        8.54000000000000        3.52725100000000
C           27.44954000000000        6.03844900000000        3.77392300000000
C           27.40273100000000        4.74234500000000        3.23842100000000
C           27.51409500000000        3.55612800000000        4.16091800000000
C           28.50951000000000        2.56154400000000        0.90868100000000
C           29.80164700000000        3.25224300000000        0.98087200000000
C           30.73684500000000        2.39325700000000        0.63284800000000
N           28.64690100000000        1.32624900000000        0.53327900000000
C           30.04909700000000        1.14148500000000        0.33697700000000
C           30.64409600000000       -0.01224600000000       -0.01153900000000
C           29.88684900000000       -1.25420800000000       -0.29917100000000
C           30.44313600000000       -2.45307200000000       -0.42204600000000
C           29.39415400000000       -3.38213800000000       -0.78865600000000
C           28.26277300000000       -2.69178800000000       -0.86513800000000
N           28.48307500000000       -1.31336800000000       -0.55902900000000
C           26.96108900000000       -3.27141000000000       -1.28519700000000
C           26.95061100000000       -4.63351500000000       -1.88351500000000
C           27.18928000000000       -4.80120900000000       -3.26770200000000
C           27.45700800000000       -3.61614200000000       -4.15915300000000
C           27.18598500000000       -6.09113200000000       -3.81976700000000
C           26.94723500000000       -7.21223300000000       -3.01759100000000
C           26.92166100000000       -8.57825600000000       -3.63840200000000
C           26.69811400000000       -7.04462800000000       -1.64993400000000
C           26.70881300000000       -5.76657900000000       -1.07062900000000
C           26.44773500000000       -5.62290200000000        0.40672500000000
C           25.79941500000000       -2.60867000000000       -1.14169800000000
C           24.47941600000000       -3.10424600000000       -1.52450000000000
C           23.61827700000000       -2.17713100000000       -1.15339100000000
C           24.38043600000000       -1.08864300000000       -0.54289500000000
N           25.65371400000000       -1.32967400000000       -0.52982600000000
H           22.66663600000000        0.13947900000000        0.04588500000000
H           22.71212300000000        2.51427200000000        1.18286600000000
H           24.54438100000000        4.17206500000000        1.85335400000000
H           26.08883100000000        5.03228200000000       -0.73281800000000
H           27.89048400000000        4.95971500000000       -0.89422100000000
H           27.03592600000000        6.53600600000000       -1.00908500000000
H           27.16197700000000        7.85938400000000        0.91904500000000
H           27.00282400000000        8.55870600000000        4.55401100000000
H           28.48950500000000        8.85792100000000        3.56794400000000
H           26.85478200000000        9.26457400000000        2.90910000000000
H           27.56890200000000        6.17797300000000        4.84203400000000
H           28.42909000000000        2.97675600000000        3.91672200000000
H           27.57295400000000        3.86647100000000        5.22548400000000
H           26.62479900000000        2.90201500000000        4.04297000000000
H           29.97729800000000        4.28085400000000        1.26739100000000
H           31.79702600000000        2.60502700000000        0.59021200000000
H           31.48874500000000       -2.70022700000000       -0.29822000000000
H           29.52149600000000       -4.43829300000000       -0.98788800000000
H           26.62190800000000       -2.88819500000000       -4.08128400000000
H           27.55283200000000       -3.91561400000000       -5.22431300000000
H           28.40257000000000       -3.12281800000000       -3.85095500000000
H           27.36774400000000       -6.22757600000000       -4.87966700000000
H           27.82261000000000       -8.72229400000000       -4.27279400000000
H           26.91254100000000       -9.37641800000000       -2.86506000000000
H           26.01306500000000       -8.68119800000000       -4.26906400000000
H           26.49925600000000       -7.91350600000000       -1.03368700000000
H           25.49323300000000       -5.07992000000000        0.56716600000000
H           27.27530000000000       -5.05728700000000        0.88394000000000
H           26.37499000000000       -6.61027000000000        0.91017500000000
H           24.23157600000000       -4.04203600000000       -2.00465000000000
H           22.54505500000000       -2.22795400000000       -1.28159600000000
Zn          65.78651499999999       -0.00491000000000       -0.01030200000000
C           69.16038300000000       -0.12773000000000       -0.07370200000000
C           68.49166700000001       -1.21865300000000       -0.45711500000000
C           69.13498400000000       -2.46085600000000       -0.86902500000000
C           68.18797000000001       -3.31491900000000       -1.21017200000000
C           66.88752599999999       -2.65518500000000       -1.03504800000000
N           67.07209300000000       -1.32501100000000       -0.55209700000000
C           65.69376699999999       -3.21257800000000       -1.31718000000000
C           65.64821200000000       -4.60087400000000       -1.84601000000000
C           65.73194599999999       -4.83482900000000       -3.23902000000000
C           65.86974100000000       -3.69259900000000       -4.21220700000000
C           65.68900499999999       -6.15103200000000       -3.72365500000000
C           65.56940800000000       -7.23371000000000       -2.84461500000000
C           65.48351000000000       -8.63340700000000       -3.37896100000000
C           65.46065500000000       -6.99910700000000       -1.46907400000000
C           65.50746300000000       -5.69311800000000       -0.95815500000000
C           65.39609900000001       -5.47583200000000        0.52875400000000
C           64.40068400000000       -2.50654400000000       -1.12942900000000
C           63.10854700000000       -3.05492100000000       -1.55552700000000
C           62.17334900000000       -2.19414500000000       -1.21195600000000
N           64.26329300000000       -1.35527500000000       -0.54508400000000
C           62.86109799999999       -1.08604700000000       -0.55881600000000
C           62.26609799999999       -0.01224600000000       -0.01153900000000
C           63.02334500000000        1.08306800000000        0.64075400000000
C           62.46705800000000        2.03321800000000        1.38209700000000
C           63.51604000000000        2.95743200000000        1.76077500000000
C           64.64742099999999        2.51223700000000        1.22763800000000
N           64.42711900000000        1.30566400000000        0.49420300000000
C           65.94910500000000        3.22130100000000        1.32581900000000
C           65.95958299999999        4.61840600000000        1.83710500000000
C           65.72091399999999        5.69772100000000        0.95439800000000
C           65.45318700000000        5.45977200000000       -0.50931200000000
C           65.72420900000000        7.01071800000000        1.44908700000000
C           65.96295900000000        7.26431800000000        2.80409200000000
C           65.98853300000000        8.67982200000000        3.30186000000000
C           66.21208000000000        6.19651000000000        3.67493300000000
C           66.20138100000000        4.87322300000000        3.20812200000000
C           66.46245900000000        3.74673500000000        4.17468400000000
C           67.11077899999999        2.64373000000000        0.97053200000000
C           68.43077800000000        3.26635400000000        1.03741000000000
C           69.29191800000000        2.34043400000000        0.66332900000000
C           68.52975900000000        1.13233600000000        0.35026200000000
N           67.25648000000000        1.29721200000000        0.52656500000000
H           70.24355799999999       -0.16148500000000       -0.07514600000000
H           70.19807100000000       -2.66225900000000       -0.89885400000000
H           68.36581300000000       -4.32269200000000       -1.56277600000000
H           66.82136300000001       -3.15293300000000       -4.02446800000000
H           65.01971000000000       -2.98882600000000       -4.09069300000000
H           65.87426800000000       -4.04672900000000       -5.26488600000000
H           65.74821700000000       -6.33655300000000       -4.78979100000000
H           65.90737000000000       -9.35775900000000       -2.65101900000000
H           64.42068900000000       -8.89098700000000       -3.56970300000000
H           66.05541200000000       -8.72828500000000       -4.32665200000000
H           65.34129200000000       -7.83926800000000       -0.79493900000000
H           64.48110400000000       -4.88870300000000        0.75366100000000
H           65.33723999999999       -6.43679900000000        1.08206800000000
H           66.28539499999999       -4.92217600000000        0.89650500000000
H           62.93289599999999       -3.99551500000000       -2.06091500000000
H           61.11316800000000       -2.31743600000000       -1.38933500000000
H           61.42144900000000        2.12583400000000        1.64255900000000
H           63.38869800000000        3.85746900000000        2.34821800000000
H           66.28828600000000        4.88058700000000       -0.95710100000000
H           65.35736199999999        6.41330600000000       -1.07058200000000
H           64.50762400000001        4.89042500000000       -0.62846400000000
H           65.54245000000000        7.84297200000000        0.77874300000000
H           65.08758400000001        9.22296400000000        2.94381500000000
H           65.99765300000000        8.72035600000000        4.41248100000000
H           66.89712900000001        9.19072700000000        2.91805500000000
H           66.41093800000000        6.39683300000000        4.72115500000000
H           67.41696100000000        3.24385000000000        3.91453500000000
H           65.63489400000000        3.00820700000000        4.12744400000000
H           66.53520399999999        4.11065100000000        5.22154700000000
H           68.67861800000000        4.27546900000000        1.34019900000000
H           70.36513900000000        2.46586700000000        0.60600400000000
C           32.95977000000000        0.00244400000000       -0.00126400000000
C           34.41799600000000       -0.01939200000000       -0.01913700000000
C           35.55192399999999       -0.04014600000000       -0.02062800000000
C           36.91330599999999       -0.05273600000000       -0.02281900000000
C           38.18752499999999       -0.04242900000000       -0.02758400000000
C           39.37598699999999       -0.02363100000000       -0.03374000000000
C           40.72834800000000        0.00115300000000       -0.01787200000000
C           41.82861500000000        0.00244400000000       -0.00126400000000
C           50.95754199999999        0.00244400000000       -0.00126400000000
C           52.41576900000000       -0.01939200000000       -0.01913700000000
C           53.54969699999999       -0.04014600000000       -0.02062800000000
C           54.91107800000000       -0.05273600000000       -0.02281900000000
C           56.18529699999999       -0.04242900000000       -0.02758400000000
C           57.37375999999999       -0.02363100000000       -0.03374000000000
C           58.72611999999999        0.00115300000000       -0.01787200000000
C           59.82638799999999        0.00244400000000       -0.00126400000000
Zn          46.44711400000000       -0.03263200000000       -0.00141900000000
C           43.00125500000000        0.02429200000000        0.02367200000000
C           43.65977599999999        0.18610100000000        1.18642200000000
C           43.01800200000000        0.42038200000000        2.48235300000000
C           43.95806800000000        0.49578600000000        3.40184600000000
C           45.25761600000000        0.31531200000000        2.74902800000000
N           45.07924799999999        0.12235100000000        1.34427400000000
C           46.44262700000000        0.30848100000000        3.39192200000000
C           46.46687799999999        0.48041900000000        4.86858700000000
C           46.62344500000000        1.76969400000000        5.42984800000000
C           46.78438300000000        2.98505900000000        4.55334000000000
C           46.65277900000000        1.91842600000000        6.82485800000000
C           46.50483800000000        0.80921500000000        7.66612400000000
C           46.56813100000000        0.97675000000000        9.15619200000000
C           46.36677400000000       -0.46756100000000        7.10953900000000
C           46.34785600000000       -0.64537000000000        5.71773800000000
C           46.18310999999999       -2.03227400000000        5.15217900000000
C           47.74707000000000        0.13968000000000        2.70519700000000
C           49.02386700000000       -0.00340200000000        3.41426300000000
C           49.97894999999999       -0.08308800000000        2.51156100000000
N           47.91221200000000        0.14908100000000        1.41856700000000
C           49.31887300000000        0.01025700000000        1.21533000000000
C           49.93807399999999        0.02429200000000        0.02367200000000
C           49.19969700000000        0.11596200000000       -1.25663100000000
C           49.76765899999999        0.36964300000000       -2.42875800000000
C           48.73397700000000        0.27253200000000       -3.43909100000000
C           47.60115500000000       -0.03229600000000       -2.81782600000000
N           47.80372000000000       -0.14505900000000       -1.40913800000000
C           46.32251100000000       -0.31983100000000       -3.51180500000000
C           46.35470100000000       -0.56669500000000       -4.97857500000000
C           46.10746600000000        0.49202500000000       -5.88478300000000
C           45.80428700000000        1.88351500000000       -5.39180400000000
C           46.14577500000000        0.24451500000000       -7.26548500000000
C           46.42286300000000       -1.03704300000000       -7.75531900000000
C           46.50725700000000       -1.27739600000000       -9.23406400000000
C           46.69240200000000       -2.07722300000000       -6.85839100000000
C           46.64877600000000       -1.85936800000000       -5.47294100000000
C           46.94376600000000       -3.00240900000000       -4.53606300000000
C           45.14654699999999       -0.37996900000000       -2.86023100000000
C           43.85500500000000       -0.67296200000000       -3.47098200000000
C           42.96366900000000       -0.57269400000000       -2.50718000000000
C           43.67531900000000       -0.21929200000000       -1.27345300000000
N           44.95273800000000       -0.10600700000000       -1.47305200000000
H           41.95966500000000        0.51516600000000        2.68523100000000
H           43.77437400000000        0.66025300000000        4.45580700000000
H           47.73986099999999        2.91600800000000        3.99308100000000
H           46.79543000000000        3.92225600000000        5.14890600000000
H           45.94180000000000        3.04848800000000        3.83354500000000
H           46.78849300000000        2.90177700000000        7.26003200000000
H           47.61327100000000        0.82966000000000        9.49984500000000
H           45.91256100000000        0.23459900000000        9.65971100000000
H           46.22823200000000        1.99129100000000        9.45519600000000
H           46.27609700000000       -1.32560000000000        7.76537100000000
H           45.20730600000000       -2.10796900000000        4.62868000000000
H           47.00171899999999       -2.24953400000000        4.43459100000000
H           46.21313800000000       -2.80681300000000        5.94783200000000
H           49.17643300000000       -0.03618300000000        4.48515200000000
H           51.03464900000000       -0.19042600000000        2.72277000000000
H           50.81259099999999        0.58010400000000       -2.61259200000000
H           48.87421200000000        0.39029200000000       -4.50575100000000
H           44.85408900000000        1.87922800000000       -4.81797400000000
H           45.69904300000000        2.60411500000000       -6.23071200000000
H           46.62639299999999        2.23911400000000       -4.73558500000000
H           45.96365500000000        1.05241200000000       -7.96461700000000
H           46.19746700000000       -2.31562600000000       -9.47985300000000
H           47.55211800000000       -1.12095300000000       -9.57465800000000
H           45.83864800000000       -0.58148800000000       -9.78472200000000
H           46.93593599999999       -3.06080300000000       -7.24319000000000
H           47.02609000000000       -3.96788400000000       -5.07924400000000
H           46.12859899999999       -3.10268600000000       -3.78909200000000
H           47.90287600000000       -2.81441200000000       -4.01002900000000
H           43.64388200000000       -0.91735000000000       -4.50401600000000
H           41.90066800000000       -0.72907700000000       -2.63125500000000
237
 energy: -364.294836316191 gnorm: 0.619717845007 xtb: 6.5.1 (b24c23e)
Zn          27.12490445319294       -0.01804938584127       -0.01548891649509
C           23.75043716122632        0.10280792944769        0.01814245510031
C           24.42407208022223        1.16874644800629        0.50286418038464
C           23.77405092927134        2.34424901749603        1.06310532079553
C           24.72845414439334        3.20279293393810        1.41058445571730
C           26.02059660566394        2.59877739906508        1.07788217911938
N           25.82427907437348        1.32182117967285        0.51404960170209
C           27.22793270834873        3.19975449597714        1.26052324572655
C           27.26421162332037        4.57251648649896        1.84270138030448
C           27.17846335236861        5.70297335876140        1.00117668026193
C           27.04057733868530        5.55115695478946       -0.49542188167002
C           27.22100989119679        6.98430898344536        1.56187474714713
C           27.34207002352410        7.15824624386657        2.94284569869293
C           27.42552590569234        8.54177961567590        3.52811726213323
C           27.44866203727801        6.03768193913392        3.77041994864534
C           27.40286138424794        4.74491465842190        3.23699409861688
C           27.51398288757792        3.55520973383094        4.16100487953789
C           28.50459746377189        2.57290477672470        0.91346032747988
C           29.79348493836420        3.25881524839919        0.98409523645864
C           30.73829101843349        2.38889649807404        0.63131573003217
N           28.65715689909051        1.32467011977870        0.53103011314717
C           30.05814765610315        1.14020041816502        0.33629468919027
C           30.65083891217126       -0.02225126667107       -0.01270660775874
C           29.88736820625006       -1.24070643198545       -0.29964597066613
C           30.44501995654937       -2.47012784550327       -0.42573546204989
C           29.41081910737115       -3.38441665931897       -0.78724562444223
C           28.25316304200850       -2.68160124101233       -0.86668300410231
N           28.49067759301039       -1.31847344669406       -0.55891981162347
C           26.97085649494637       -3.26737737729485       -1.28279082148492
C           26.95370520188909       -4.63590219946188       -1.88369219317203
C           27.18934888830627       -4.80340981356926       -3.26617739549799
C           27.45688899734359       -3.61514924939481       -4.15926520153659
C           27.18528716598142       -6.09015279182110       -3.81607296691679
C           26.94636644979735       -7.21062556532726       -3.01634612953907
C           26.92230030563599       -8.58021345366360       -3.63882910413776
C           26.69896292883853       -7.04138780839389       -1.65185221528273
C           26.70906227206805       -5.76681832602475       -1.07332857596684
C           26.44799601339245       -5.62236910032306        0.40756913490821
C           25.79784959635209       -2.60770876893317       -1.14155165208382
C           24.48478462485024       -3.10547242358820       -1.52422056898219
C           23.61194089608059       -2.17010441486510       -1.15025953898347
C           24.36684135472542       -1.08254500009883       -0.54007005800256
N           25.65347239812379       -1.33721909986736       -0.53494242915875
H           22.66690872410113        0.13744587439610        0.04467961359352
H           22.71208904489396        2.51087950053489        1.18138015568093
H           24.54877483643657        4.17243697402406        1.85340169784941
H           26.09319629831711        5.03351667616135       -0.73271016855626
H           27.88633684220845        4.96116457291622       -0.89327852845295
H           27.03589796143419        6.53176514373230       -1.00609308257308
H           27.16179320079884        7.85823494876249        0.91933691000118
H           27.00542013206044        8.55897126780112        4.55017555279244
H           28.48473822096905        8.85767088206006        3.56827636521703
H           26.85792568745640        9.26213761181241        2.91148359861870
H           27.56850393163903        6.17736194447403        4.84105014970984
H           28.42481952487673        2.97792029255722        3.91772696984911
H           27.57278101690192        3.86567524927905        5.22037678024105
H           26.62905089133402        2.90350653906838        4.04320250973226
H           29.97377556358743        4.28265737032934        1.26834925963064
H           31.79707562326694        2.60060982396573        0.58890224208976
H           31.48933744214957       -2.70258101943034       -0.29844424249325
H           29.52383683769351       -4.43857962736297       -0.98717585837351
H           26.62605557372370       -2.89007994163806       -4.08127027941265
H           27.55241632620470       -3.91488777216396       -5.21917053794261
H           28.39825717454555       -3.12361816737816       -3.85219337057344
H           27.36766881335328       -6.22684463538453       -4.87851709651601
H           27.81824422011357       -8.72230303919199       -4.27104206598284
H           26.91214691219010       -9.37301161266651       -2.86848269963653
H           26.01738419319409       -8.68177577139696       -4.26697607000338
H           26.49965363342068       -7.91234834296898       -1.03396644560368
H           25.49752363208642       -5.08132974680974        0.56745327450299
H           27.27125920821868       -5.05855566852511        0.88256823852197
H           26.37520926844386       -6.60602461597014        0.90715540312543
H           24.23576239792250       -4.04193319051727       -2.00439609671245
H           22.54340997847499       -2.22505471358208       -1.28039158015019
Zn          65.78523954676139       -0.00532219551541       -0.01037371150940
C           69.15976705869313       -0.11580213567593       -0.06977186353009
C           68.48609885659189       -1.22056049946889       -0.45798678630082
C           69.13613955326294       -2.45665726380955       -0.86755987690598
C           68.18174379133350       -3.31674779709037       -1.21121801888375
C           66.88957261922452       -2.65059697630720       -1.03313897917005
N           67.08593904500964       -1.33875454958476       -0.55588768436083
C           65.68238695201545       -3.21070126312663       -1.31741929868297
C           65.64599675286874       -4.60427310073724       -1.84770231293832
C           65.73172794043548       -4.83738920024809       -3.23757440396324
C           65.86961650640123       -3.69170269073329       -4.21239427672135
C           65.68918306061920       -6.15016326548677       -3.72010084432450
C           65.56812805693673       -7.23174419775575       -2.84402787648089
C           65.48466496572381       -8.63529344279610       -3.37956931940209
C           65.46153096576251       -6.99613236894442       -1.47106890434623
C           65.50733335741668       -5.69398277849153       -0.96097431852436
C           65.39621148189704       -5.47522970980285        0.52944841950899
C           64.40558905396554       -2.51807101597310       -1.13385701286974
C           63.11669620043381       -3.06188108942942       -1.55774432895807
C           62.17194352980644       -2.18978597994649       -1.20997162847071
N           64.25353891146931       -1.35304932660211       -0.54570990307199
C           62.85274113713347       -1.08443853197325       -0.55834880334808
C           62.26349254125686       -0.00402046437924       -0.00537552287662
C           63.02370468267220        1.07352150302764        0.63106579864510
C           62.46529719046213        2.04799022501848        1.39118166101241
C           63.49935284901267        2.95812337741847        1.76338419589795
C           64.65712213962449        2.50603317478437        1.21949783511615
N           64.41991510917919        1.30957972314565        0.49790802159859
C           65.93933897900315        3.21673802918535        1.32477537183659
C           65.95649673519540        4.62024660540259        1.83862968163621
C           65.72084962423479        5.69824922073878        0.95703212723612
C           65.45330616144680        5.45913355607684       -0.51007648072242
C           65.72490558960669        7.00745731284907        1.45107314277690
C           65.96382586170844        7.26228378242402        2.80387438880493
C           65.98789517287253        8.68153342963270        3.30290568247793
C           66.21123124460689        6.19550164139700        3.67130970133843
C           66.20112838241866        4.87526926371251        3.20633030130397
C           66.46219747006094        3.74576853811711        4.17492126639950
C           67.11235759173125        2.64293712194871        0.96997143445395
C           68.42539907066313        3.26704880629509        1.03846050061119
C           69.29825966857442        2.33317982106561        0.66071994671196
C           68.54337045852989        1.12596651598605        0.34807409658637
N           67.25673338983876        1.30622151786740        0.52810611431683
H           70.24329346139955       -0.15918168598577       -0.07460845861464
H           70.19811050558073       -2.65878341804954       -0.89757784974453
H           68.36142574070156       -4.32300161485365       -1.56300186168438
H           66.81699618543585       -3.15389918573639       -4.02524163656755
H           65.02385819918939       -2.99052565523960       -4.09101279667184
H           65.87429636104315       -4.04574041039060       -5.25979544980498
H           65.74840129774044       -6.33593074301986       -4.78879085617173
H           65.90477563470841       -9.35529904486028       -2.65397011245338
H           64.42545194076607       -8.89104256252632       -3.56929265467013
H           66.05227014020646       -8.72818010974181       -4.32324748963196
H           65.34168965292248       -7.83815397335916       -0.79522441112878
H           64.48537597966543       -4.89023687648042        0.75357747027597
H           65.33741290109471       -6.43269214496891        1.07893712554386
H           66.28114192880278       -4.92341163597137        0.89563659758869
H           62.93641366290030       -3.99749309131107       -2.06147776081102
H           61.11322415651841       -2.31346193553724       -1.38730358039236
H           61.42093387045256        2.12769791022891        1.64403790495873
H           63.38634576348381        3.85720469659940        2.34894196574596
H           66.28413769497303        4.88193615609613       -0.95578291917246
H           65.35777738174974        6.40922452787122       -1.06737694462803
H           64.51193852295469        4.89185705545594       -0.62880052604198
H           65.54252452768770        7.84165499246392        0.77906543982406
H           65.09194721555937        9.22176188188384        2.94508652881500
H           65.99804683305092        8.72026986385410        4.40765569241759
H           66.89281278239480        9.18970378418738        2.91996264696464
H           66.41054164642588        6.39619587993390        4.72015770491463
H           67.41266918938884        3.24466840459168        3.91571529713581
H           65.63893478891420        3.01007323209414        4.12732824219498