237
 energy: -364.882969289930 gnorm: 0.000471645431 xtb: 6.5.1 (b24c23e)
Zn          27.82171103403806        0.00808857945043       -0.01525248607502
C           24.40450734574958        0.08757011393197       -0.03767280871234
C           25.04906895445483        1.22281366456164        0.44059648624400
C           24.39450490545942        2.40849406894975        0.92120601131199
C           25.36797687823383        3.27696063313438        1.29442205055857
C           26.62927376120795        2.63169180270166        1.04482083298740
N           26.40120948700082        1.38963113774963        0.52884491289872
C           27.88560540189289        3.19210585151176        1.29217235268197
C           27.91564668005798        4.57153166713060        1.86189313332132
C           27.90505858116682        5.67966536522710        1.01010802386265
C           27.85928958275739        5.47883058177333       -0.48138034124985
C           27.93779748486678        6.95915051535005        1.55198009034799
C           27.97993707687587        7.15089106283897        2.92929291663514
C           28.03787361666830        8.54123115303847        3.50254158206545
C           27.98972273597663        6.04116080459353        3.76786151793801
C           27.95762242652721        4.75277188392506        3.24708511274060
C           27.96872127754995        3.55556674920726        4.16007474270855
C           29.11680512471007        2.57790987292510        1.05551056133880
C           30.39884909665307        3.17342602091286        1.31220235762277
C           31.34024511339196        2.26369102272589        0.95242744856339
N           29.30301419489318        1.32076538903953        0.54501545724815
C           30.64321834901074        1.10530764803884        0.47287801390224
C           31.26419142448830       -0.06933892819608        0.00103453581766
C           30.59599193378837       -1.21626410403421       -0.47395568267126
C           31.24480730196823       -2.40607149374891       -0.94403334742895
C           30.26690115701277       -3.27375013181700       -1.31035367603254
C           29.01051011408466       -2.62022534691506       -1.06811161336733
N           29.24817196904973       -1.37152526954669       -0.55834328017017
C           27.75512964950431       -3.17768402061250       -1.31787902366629
C           27.72722002282048       -4.55923820534007       -1.88253737336975
C           27.78092889550751       -4.74844143895516       -3.26693043248026
C           27.86450011178792       -3.55705192385813       -4.18374988368529
C           27.75867051419998       -6.03849517414318       -3.78179343568973
C           27.68450551962083       -7.14372842757684       -2.93854210563680
C           27.65467767765891       -8.53213413215753       -3.51872843907623
C           27.63031150157301       -6.94421364286795       -1.56398115841407
C           27.65125070898757       -5.66135416821283       -1.02733924952762
C           27.59538505602352       -5.45249277044972        0.46270626523863
C           26.52312240133927       -2.55883723030028       -1.08779604844814
C           25.23659765083363       -3.14505973665389       -1.35382172400705
C           24.29967882802520       -2.23141382147545       -0.99522770353112
C           25.00216665798607       -1.07673743147705       -0.50690637215627
N           26.34616532514511       -1.30646815189331       -0.57665701105845
H           23.31919157294114        0.11275267522718       -0.04514099122933
H           23.32532943436277        2.54671610055933        0.96333860498034
H           25.25397619193612        4.26808510665688        1.70436507837446
H           26.94804880675701        4.94791823771919       -0.76388433563236
H           28.71010209159192        4.87837787575397       -0.80903265273815
H           27.88290162349990        6.43437629135984       -1.00447987086814
H           27.92975470328397        7.81931357037473        0.89041630166122
H           27.60563210236989        8.56795071046429        4.50306794642580
H           29.07706979581732        8.87126302753865        3.57226487415985
H           27.50109017394213        9.24598673369333        2.86689907890521
H           28.02191230097954        6.18116605297041        4.84348226514433
H           28.85698980712464        2.94802044778567        3.97580698146295
H           27.96666844142130        3.86230419180778        5.20561133536379
H           27.09309886147592        2.93015702036936        3.97598322855163
H           30.55028950350173        4.16238734836671        1.71466441517189
H           32.41317216839671        2.36028977866495        1.00346703781642
H           32.31279234557643       -2.55081283905618       -0.98405988942465
H           30.37750831722953       -4.26981951583922       -1.70857034816867
H           27.01820656494353       -2.88851214697637       -4.01479960527130
H           27.86262790902564       -3.86773227964849       -5.22812973782050
H           28.77887888664615       -2.99327628778467       -3.98846533800158
H           27.80122738562187       -6.18625333931637       -4.85604647709944
H           28.46764248103932       -8.66482012399195       -4.23432401508895
H           27.75032690438975       -9.28504104307067       -2.73648274596420
H           26.71275520632476       -8.69897845826753       -4.04555397434032
H           27.57272561812976       -7.79919534997133       -0.89821932621852
H           26.70727517814081       -4.87694006103913        0.73109164214063
H           28.46985240285008       -4.89259500118609        0.79978190597220
H           27.56567854711848       -6.40590675043501        0.98936127958868
H           25.08207132113655       -4.13051410282284       -1.76415536029529
H           23.22589424199010       -2.31966549463490       -1.05194699848583
Zn          65.08706159887315       -0.01885974705905       -0.04341397444075
C           68.50471050748358       -0.07274203220312       -0.07968582532186
C           67.86067174258025       -1.21976319073716       -0.52972588423185
C           68.51585002316871       -2.40959910121942       -0.99910060408020
C           67.54269345972391       -3.29012378056329       -1.34379232292607
C           66.28102224181704       -2.64716569416917       -1.09020492366933
N           66.50850708708883       -1.39575854125928       -0.59707050098834
C           65.02486838515220       -3.21652339669269       -1.31702676930656
C           64.99522502305787       -4.60597211181948       -1.86185384070922
C           65.01056916409968       -4.81575087104444       -3.24360064202654
C           65.06148820784433       -3.63805864615200       -4.18028295758003
C           64.97781465990400       -6.11409566536838       -3.73864161297382
C           64.93092766188283       -7.20597233688469       -2.87777044946096
C           64.87279599964576       -8.60609212662145       -3.42668192363753
C           64.91645046695513       -6.98586625339466       -1.50438223576748
C           64.94851428654145       -5.69574333380413       -0.98798653216553
C           64.93213625593452       -5.46396676975047        0.49962281899726
C           63.79331799852421       -2.60400326974559       -1.07798445159453
C           62.51158111955721       -3.20435212826969       -1.32464670248239
C           61.56963391484076       -2.29601743753037       -0.96281963898046
N           63.60640982621060       -1.34465774388102       -0.57317988081278
C           62.26603235778675       -1.13371070153042       -0.49189902542409
C           61.64422138622418        0.03804319747277       -0.01388777491513
C           62.31174026689543        1.18741841843408        0.45606332116560
C           61.66225167237823        2.36942512124278        0.94452788561322
C           62.63978144207858        3.24443928899116        1.29408226516012
C           63.89666397440444        2.60407403545900        1.02110658567898
N           63.65962455768290        1.35394814708268        0.51454367410986
C           65.15192652050052        3.17530447669611        1.23836168293169
C           65.17990776917165        4.56133774493807        1.79192080972563
C           65.12450123348424        5.65879520918745        0.92712614962877
C           65.03792799828835        5.43816279308559       -0.55975575569349
C           65.14847543947933        6.94465804135570        1.45224603534494
C           65.22602607344777        7.15454802195306        2.82631706027316
C           65.25814991132309        8.55659897630977        3.37258046584953
C           65.28161903744228        6.05655058199330        3.67686990952182
C           65.25910192116777        4.76069982595433        3.17241035407257
C           65.31708958297554        3.57591231455762        4.09972656532061
C           66.38438240269338        2.56736040899355        0.98278690729906
C           67.67076831810375        3.17035686480256        1.20915394139119
C           68.60827998835290        2.26113256037344        0.84101554877259
C           67.90633425298613        1.09313080258634        0.38468249267565
N           66.56204664916756        1.31089485404405        0.48210416208669
H           69.59014949096277       -0.08942272758353       -0.09159508583230
H           69.58517807914944       -2.54254681277309       -1.05274596060841
H           67.65708335266133       -4.28855843822009       -1.73547944433262
H           65.96944169470640       -3.05667432978376       -4.00818146930660
H           64.20709402057680       -2.98050962188181       -4.00866163204954
H           65.04811372039882       -3.96533897491622       -5.21949073340894
H           64.98959845799045       -6.27669506854286       -4.81150022840177
H           65.30715481519864       -9.31774032867259       -2.72417537670512
H           63.83339010226448       -8.89330479707548       -3.60236016215699
H           65.40744766692066       -8.67419749516134       -4.37448764870551
H           64.88046103737055       -7.83158622521581       -0.82536656880332
H           64.04781745767828       -4.88973225770482        0.78298392594087
H           64.92291155340814       -6.40916834395039        1.04160992571807
H           65.81166563040956       -4.89345980998872        0.80413737537210
H           62.36072086278365       -4.19430509957369       -1.72487764800920
H           60.49672744480640       -2.39598625620341       -1.00727531539375
H           60.59407917445974        2.50375082593087        1.00868471443746
H           62.52863297778192        4.23623878977789        1.70268795860273
H           65.88000942354884        4.83430699746827       -0.90318768445265
H           65.04506237894182        6.38675010704748       -1.09583693957791
H           64.11983307434288        4.90263004873678       -0.80954302015652
H           65.10491651043380        7.79689197217476        0.78182373863154
H           64.44324279814711        9.14883043517460        2.95329338298334
H           65.16733172798482        8.55539140757619        4.45870974997959
H           66.19883063000972        9.04253772682272        3.10502773854044
H           65.34180011649158        6.20956728676986        4.74949157769233
H           66.20913400837547        2.97998530152380        3.89676324157769
H           64.44653663163257        2.93446753585852        3.94995350975611
H           65.34118873655372        3.89636262574491        5.14087426104718
H           67.82488386212404        4.16415306727008        1.59900641739095
H           69.68213919847372        2.36093696277223        0.87074736977393
C           32.66888957534163       -0.09714625223955        0.00348857519029
C           33.89344012008503       -0.11492861305218        0.00384018084145
C           35.23613083470796       -0.12884541646128        0.00382221247338
C           36.46674813952381       -0.13594709334353        0.00279507363917
C           37.80473863339786       -0.13869583666001        0.00121220315166
C           39.03537210280622       -0.13583878652365       -0.00082711509673
C           40.37792774543055       -0.12796328855151       -0.00205025423923
C           41.60272419074632       -0.11660897124419       -0.00350754505655
C           51.30552567855585        0.04037983197071       -0.01572166664021
C           52.53021830485076        0.05630644884336       -0.01389146326748
C           53.87275262129641        0.06912706673372       -0.01069507122823
C           55.10341189136512        0.07754309279830       -0.00749481785916
C           56.44142655266273        0.08115649554025       -0.00512613037778
C           57.67205041683974        0.08064192090944       -0.00385995783133
C           59.01480523382352        0.07181825213262       -0.00254691233598
C           60.23940662434575        0.05890365825053       -0.00443210051151
Zn          46.45411297612481       -0.04096320411375       -0.00985041283877
C           43.00700159295120       -0.09788164537494       -0.00539968105040
C           43.65196299060901        0.06462866029172        1.23798094718724
C           42.97897909749798        0.20797357431958        2.49593274015982
C           43.93914614027760        0.33416932871216        3.44801832579148
C           45.20750048930417        0.26818178459935        2.77818102448683
N           44.99636724236635        0.10495020674408        1.43522853392753
C           46.45192922622385        0.35600975184476        3.40563815715807
C           46.45053624860851        0.52533379616687        4.88876304964391
C           46.47609857970636        1.80710115172388        5.44481578307852
C           46.50718646283580        3.01445168059234        4.54581740508183
C           46.47158795702867        1.95294663357203        6.82735881547135
C           46.44115588593772        0.84142606586580        7.66263262496429
C           46.45473376635797        1.00716442765859        9.15837203902950
C           46.41744129049990       -0.43022334541029        7.09819859291578
C           46.42128137007673       -0.59902941801852        5.71884845332684
C           46.39253329504318       -1.97748582450748        5.11395679107995
C           47.69711027648641        0.30003660462559        2.77609780312374
C           48.96456695948681        0.39122621415548        3.44463776737822
C           49.92592969840302        0.29876179708849        2.48987483790949
N           47.90996614965189        0.15258183628262        1.43156578708984
C           49.25459419659905        0.14993021992523        1.23165939453586
C           49.90124187384799        0.02035158084035       -0.01476082411595
C           49.25616737292327       -0.13159302965973       -1.25940861631309
C           49.92880385737260       -0.25766802577790       -2.51939263638468
C           48.96861493005456       -0.38468383327724       -3.47136926971205
C           47.70058744383083       -0.33877094149669       -2.79920347901865
N           47.91191161965486       -0.18265282505989       -1.45543232494585
C           46.45636908748169       -0.44068714037197       -3.42501050258925
C           46.45743771533613       -0.61434874553652       -4.90764209306325
C           46.37656876577041        0.50466911477063       -5.74137856070083
C           46.28875413947050        1.88272297332856       -5.14126639536511
C           46.37744262730862        0.33111856817241       -7.12026211908198
C           46.45632362311298       -0.94001135248329       -7.68049793345607
C           46.47598503240719       -1.11143600126428       -9.17552525535104
C           46.53706331843345       -2.04637244753602       -6.84150706118854
C           46.53802621431454       -1.89574925899957       -5.45957887863536
C           46.62308064243655       -3.09759956519263       -4.55669807474054
C           45.21136478859495       -0.39594468437996       -2.79411503468262
C           43.94419352757057       -0.50631891019992       -3.46037435145429
C           42.98279027448504       -0.41056811203262       -2.50597033775555
C           43.65379185120006       -0.24167834233815       -1.25013241777529
N           44.99833340494037       -0.23810634122441       -1.45080823583089
H           41.90834326469187        0.21091485185928        2.62548567842463
H           43.80831482195149        0.46231236229318        4.51071961970964
H           47.41055158779858        3.00602917378003        3.93267155297072
H           46.48962790954445        3.93501527351972        5.12844368156609
H           45.64752428031734        3.00845795305134        3.87299388195653
H           46.48991123389795        2.94860754356659        7.25846526231438
H           47.47611662796714        0.91111399494364        9.53405190043648
H           45.84516347692553        0.24079689274405        9.63824400040063
H           46.07750167921888        1.98890940390694        9.44513255344959
H           46.39381511377343       -1.30288184197977        7.74278035169212
H           45.49137745280537       -2.10723466528375        4.51132196935505
H           47.25461238300478       -2.12263306621784        4.46014094501214
H           46.40741398476712       -2.74359905585318        5.88858802705349
H           49.09394973720951        0.50931727311216        4.50868994637380
H           50.99637628363487        0.32753623416769        2.61779403386646
H           50.99922818117609       -0.24792759027049       -2.65037463689054
H           49.09913487225781       -0.49806287371815       -4.53579254006684
H           45.38562768882868        1.97424186038877       -4.53460634785921
H           46.26544510302720        2.64576249994442       -5.91872667036530
H           47.14662281205483        2.06891341109759       -4.49231788975832
H           46.31410523374520        1.19977645906617       -7.76755791407075
H           46.10583425994493       -2.09676918251138       -9.45939343011651
H           47.49832807260902       -1.01154491769813       -9.54768166164303
H           45.86381329565788       -0.35084580872201       -9.66105743271125
H           46.59824719786372       -3.04168624955384       -7.26946980365798
H           46.64967256346913       -4.01975615329801       -5.13645492479537
H           45.76232067245486       -3.12942059318157       -3.88599108344001
H           47.52346651541483       -3.04547012640622       -3.94139023043389
H           43.81499642955895       -0.64111348848895       -4.52245865099500
H           41.91251615284975       -0.44976478364269       -2.63259567046031
