      -----------------------------------------------------------      
     |                   =====================                   |     
     |                           x T B                           |     
     |                   =====================                   |     
     |                         S. Grimme                         |     
     |          Mulliken Center for Theoretical Chemistry        |     
     |                    University of Bonn                     |     
      -----------------------------------------------------------      

   * xtb version 6.5.1 (b24c23e) compiled by 'conda@728c89f4b128' on 2022-07-12

   xtb is free software: you can redistribute it and/or modify it under
   the terms of the GNU Lesser General Public License as published by
   the Free Software Foundation, either version 3 of the License, or
   (at your option) any later version.
   
   xtb is distributed in the hope that it will be useful,
   but WITHOUT ANY WARRANTY; without even the implied warranty of
   MERCHANTABILITY or FITNESS FOR A PARTICULAR PURPOSE.  See the
   GNU Lesser General Public License for more details.
   
   Cite this work as:
   * C. Bannwarth, E. Caldeweyher, S. Ehlert, A. Hansen, P. Pracht,
     J. Seibert, S. Spicher, S. Grimme, WIREs Comput. Mol. Sci., 2020, 11,
     e01493. DOI: 10.1002/wcms.1493
   
   for GFN2-xTB:
   * C. Bannwarth, S. Ehlert and S. Grimme., J. Chem. Theory Comput., 2019,
     15, 1652-1671. DOI: 10.1021/acs.jctc.8b01176
   for GFN1-xTB:
   * S. Grimme, C. Bannwarth, P. Shushkov, J. Chem. Theory Comput., 2017,
     13, 1989-2009. DOI: 10.1021/acs.jctc.7b00118
   for GFN0-xTB:
   * P. Pracht, E. Caldeweyher, S. Ehlert, S. Grimme, ChemRxiv, 2019, preprint.
     DOI: 10.26434/chemrxiv.8326202.v1
   for GFN-FF:
   * S. Spicher and S. Grimme, Angew. Chem. Int. Ed., 2020, 59, 15665-15673.
     DOI: 10.1002/anie.202004239
   
   for ALPB and GBSA implicit solvation:
   * S. Ehlert, M. Stahn, S. Spicher, S. Grimme, J. Chem. Theory Comput.,
     2021, 17, 4250-4261. DOI: 10.1021/acs.jctc.1c00471
   
   for DFT-D4:
   * E. Caldeweyher, C. Bannwarth and S. Grimme, J. Chem. Phys., 2017,
     147, 034112. DOI: 10.1063/1.4993215
   * E. Caldeweyher, S. Ehlert, A. Hansen, H. Neugebauer, S. Spicher,
     C. Bannwarth and S. Grimme, J. Chem. Phys., 2019, 150, 154122.
     DOI: 10.1063/1.5090222
   * E. Caldeweyher, J.-M. Mewes, S. Ehlert and S. Grimme, Phys. Chem. Chem. Phys.
     2020, 22, 8499-8512. DOI: 10.1039/D0CP00502A
   
   for sTDA-xTB:
   * S. Grimme and C. Bannwarth, J. Chem. Phys., 2016, 145, 054103.
     DOI: 10.1063/1.4959605
   
   in the mass-spec context:
   * V. Asgeirsson, C. Bauer and S. Grimme, Chem. Sci., 2017, 8, 4879.
     DOI: 10.1039/c7sc00601b
   * J. Koopman and S. Grimme, ACS Omega 2019, 4, 12, 15120-15133.
     DOI: 10.1021/acsomega.9b02011
   
   for metadynamics refer to:
   * S. Grimme, J. Chem. Theory Comput., 2019, 155, 2847-2862
     DOI: 10.1021/acs.jctc.9b00143
   
   for SPH calculations refer to:
   * S. Spicher and S. Grimme, J. Chem. Theory Comput., 2021, 17, 1701-1714
     DOI: 10.1021/acs.jctc.0c01306
   
   with help from (in alphabetical order)
   P. Atkinson, C. Bannwarth, F. Bohle, G. Brandenburg, E. Caldeweyher
   M. Checinski, S. Dohm, S. Ehlert, S. Ehrlich, I. Gerasimov, C. Hölzer
   A. Katbashev, J. Koopman, C. Lavigne, S. Lehtola, F. März, M. Müller,
   F. Musil, H. Neugebauer, J. Pisarek, C. Plett, P. Pracht, F. Pultar,
   J. Seibert, P. Shushkov, S. Spicher, M. Stahn, M. Steiner, T. Strunk,
   J. Stückrath, T. Rose, and J. Unsleber
   
 * started run on 2022/07/30 at 13:35:34.741     

           -------------------------------------------------
          |                Calculation Setup                |
           -------------------------------------------------

          program call               : xtb Cu_BSA_C4_4.xyz --gfn 1 --opt -T 48
          hostname                   : cx3-15-13.cx3.hpc.ic.ac.uk
          coordinate file            : Cu_BSA_C4_4.xyz
          omp threads                :                     1

   ID    Z sym.   atoms
    1   29 Cu     1, 65, 141, 204
    2    6 C      2-6, 8-12, 17-21, 23-28, 30-34, 39-44, 66-70, 72-76, 81-85,
                  87-92, 94-98, 103-108, 129-140, 142-146, 148-152, 157-161,
                  163-168, 170-174, 179-184, 205-209, 211-215, 220-224,
                  226-231, 233-237, 242-247
    3    7 N      7, 22, 29, 45, 71, 86, 93, 109, 147, 162, 169, 185, 210,
                  225, 232, 248
    4   16 S      13, 35, 77, 99, 153, 175, 216, 238
    5    8 O      14-16, 36-38, 78-80, 100-102, 154-156, 176-178, 217-219,
                  239-241
    6    1 H      46-64, 110-128, 186-203, 249-266

molecular fragmentation (1/2 indicates fragments):
111111111111111111111111111111111111111111111111111111111111111122222222
222222222222222222222222222222222222222222222222222222222222222222222222
222222222222222222222222222222222222222222222222222222222222222222222222
22222222222222222222222222222222222222222222222222
# atoms in fragment 1/2:    64   202
 fragment masses (1/2) :      683.19     2191.69
CMA distance (Bohr)    :  52.211
constraining FC (au)   :  0.0500
########################################################################
[WARNING] Please study the warnings concerning your input carefully
-1- prog_main_parseArguments: Unknown option '-T' provided
########################################################################

           -------------------------------------------------
          |                 G F N 1 - x T B                 |
           -------------------------------------------------

        Reference                      10.1021/acs.jctc.7b00118
      * Hamiltonian:
        H0-scaling (s, p, d)           1.850000    2.250000    2.000000
        zeta-weighting                 0.000000
      * Dispersion:
        s8                             2.400000
        a1                             0.630000
        a2                             5.000000
        s9                             0.000000
      * Repulsion:
        kExp                           1.500000
        rExp                           1.000000
      * Coulomb:
        alpha                          2.000000
        third order                    atomic
        anisotropic                    false
      * Halogen bond correction:
        rad-scale                      1.300000
        damping                        0.440000


          ...................................................
          :                      SETUP                      :
          :.................................................:
          :  # basis functions                 988          :
          :  # atomic orbitals                 976          :
          :  # shells                          544          :
          :  # electrons                       950          :
          :  # halogen bonds                     0          :
          :  max. iterations                   250          :
          :  Hamiltonian                  GFN1-xTB          :
          :  restarted?                      false          :
          :  GBSA solvation                  false          :
          :  PC potential                    false          :
          :  electronic temp.          300.0000000     K    :
          :  accuracy                    1.0000000          :
          :  -> integral cutoff          0.2500000E+02      :
          :  -> integral neglect         0.1000000E-07      :
          :  -> SCF convergence          0.1000000E-05 Eh   :
          :  -> wf. convergence          0.2000000E-04 e    :
          :  Broyden damping             0.4000000          :
          ...................................................

 iter      E             dE          RMSdq      gap      omega  full diag
   1   -551.1422086 -0.551142E+03  0.103E+01    0.03       0.0  T
   2   -547.7074019  0.343481E+01  0.650E+00    0.02       1.0  T
   3    866.7098328  0.141442E+04  0.172E+01    0.06       1.0  T
   4    965.2916926  0.985819E+02  0.155E+01    0.01       1.0  T
   5   -354.5610985 -0.131985E+04  0.862E+00    0.02       1.0  T
   6   -533.9781446 -0.179417E+03  0.355E+00    0.01       1.0  T
   7   -536.1763270 -0.219818E+01  0.273E+00    0.06       1.0  T
   8   -526.9518491  0.922448E+01  0.306E+00    0.06       1.0  T
   9   -550.7382410 -0.237864E+02  0.141E+00    0.30       1.0  T
  10   -550.4259636  0.312277E+00  0.106E+00    0.20       1.0  T
  11   -550.4451965 -0.192329E-01  0.952E-01    0.15       1.0  T
  12   -549.5231494  0.922047E+00  0.919E-01    0.10       1.0  T
  13   -551.4070293 -0.188388E+01  0.820E-01    0.06       1.0  T
  14   -550.9464927  0.460537E+00  0.769E-01    0.15       1.0  T
  15   -551.3812167 -0.434724E+00  0.618E-01    0.04       1.0  T
  16   -551.6463493 -0.265133E+00  0.645E-01    0.07       1.0  T
  17   -551.6776384 -0.312890E-01  0.640E-01    0.10       1.0  T
  18   -551.7480081 -0.703697E-01  0.548E-01    0.05       1.0  T
  19   -551.5551257  0.192882E+00  0.865E-01    0.10       1.0  T
  20   -551.6345300 -0.794042E-01  0.797E-01    0.08       1.0  T
  21   -551.6116087  0.229213E-01  0.813E-01    0.09       1.0  T
  22   -551.7891875 -0.177579E+00  0.654E-01    0.01       1.0  T
  23   -551.7113990  0.777885E-01  0.723E-01    0.04       1.0  T
  24   -551.6409968  0.704022E-01  0.748E-01    0.11       1.0  T
  25   -551.8070456 -0.166049E+00  0.512E-01    0.02       1.0  T
  26   -551.8607909 -0.537453E-01  0.499E-01    0.03       1.0  T
  27   -551.8862217 -0.254308E-01  0.515E-01    0.03       1.0  T
  28   -551.8982956 -0.120739E-01  0.486E-01    0.03       1.0  T
  29   -551.9384086 -0.401130E-01  0.390E-01    0.05       1.0  T
  30   -551.9899492 -0.515406E-01  0.309E-01    0.02       1.0  T
  31   -551.9951596 -0.521045E-02  0.251E-01    0.03       1.0  T
  32   -552.0550179 -0.598583E-01  0.268E-01    0.01       1.0  T
  33   -552.0624200 -0.740206E-02  0.197E-01    0.01       1.0  T
  34   -552.0489819  0.134381E-01  0.263E-01    0.03       1.0  T
  35   -552.0674950 -0.185131E-01  0.152E-01    0.01       1.0  T
  36   -552.0720174 -0.452233E-02  0.105E-01    0.01       1.0  T
  37   -552.0747166 -0.269918E-02  0.864E-02    0.01       1.0  T
  38   -552.0704083  0.430830E-02  0.117E-01    0.02       1.0  T
  39   -552.0764591 -0.605082E-02  0.540E-02    0.00       1.0  T
  40   -552.0735367  0.292235E-02  0.102E-01    0.01       1.0  T
  41   -552.0750223 -0.148558E-02  0.826E-02    0.01       1.0  T
  42   -552.0769801 -0.195775E-02  0.502E-02    0.00       1.0  T
  43   -552.0769577  0.223297E-04  0.460E-02    0.01       1.0  T
  44   -552.0776489 -0.691161E-03  0.164E-02    0.00       1.0  T
  45   -552.0777113 -0.624030E-04  0.837E-03    0.00       1.0  T
  46   -552.0775891  0.122179E-03  0.187E-02    0.00       1.0  T
  47   -552.0777385 -0.149378E-03  0.583E-03    0.00       1.1  T
  48   -552.0777298  0.872523E-05  0.579E-03    0.00       1.1  T
  49   -552.0777318 -0.201844E-05  0.548E-03    0.00       1.1  T
  50   -552.0777425 -0.106821E-04  0.274E-03    0.00       2.2  T
  51   -552.0777335  0.899856E-05  0.463E-03    0.00       1.3  T
  52   -552.0777432 -0.971915E-05  0.276E-03    0.00       2.2  T
  53   -552.0777482 -0.499278E-05  0.193E-03    0.00       3.2  T
  54   -552.0777502 -0.205548E-05  0.511E-04    0.00      12.0  T
  55   -552.0777503 -0.684427E-07  0.525E-04    0.00      11.7  T
  56   -552.0777504 -0.427134E-07  0.364E-04    0.00      16.8  T
  57   -552.0777504 -0.379428E-07  0.241E-04    0.00      25.4  T
  58   -552.0777504  0.169535E-07  0.264E-04    0.00      23.2  T
  59   -552.0777504 -0.259232E-07  0.126E-04    0.00      48.6  T
  60   -552.0777504 -0.584885E-08  0.536E-05    0.00     114.4  T

   *** convergence criteria satisfied after 60 iterations ***

         #    Occupation            Energy/Eh            Energy/eV
      -------------------------------------------------------------
         1        2.0000           -1.0321427             -28.0860
       ...           ...                  ...                  ...
       469        2.0000           -0.4159877             -11.3196
       470        2.0000           -0.4148792             -11.2894
       471        2.0000           -0.4087827             -11.1235
       472        2.0000           -0.4039731             -10.9927
       473        2.0000           -0.3922364             -10.6733
       474        1.4609           -0.3795103             -10.3270
       475        1.0082           -0.3785788             -10.3017 (HOMO)
       476        1.0082           -0.3785787             -10.3017 (LUMO)
       477        0.5203           -0.3775703             -10.2742
       478        0.0024           -0.3721855             -10.1277
       479                         -0.3624630              -9.8631
       480                         -0.3623749              -9.8607
       ...                                ...                  ...
       976                          1.5570472              42.3694
      -------------------------------------------------------------
                  HL-Gap            0.0000001 Eh            0.0000 eV
             Fermi-level           -0.3785632 Eh          -10.3012 eV

 SCC (total)                   0 d,  0 h,  0 min, 20.375 sec
 SCC setup                      ...        0 min,  0.019 sec (  0.094%)
 Dispersion                     ...        0 min,  0.012 sec (  0.057%)
 classical contributions        ...        0 min,  0.004 sec (  0.018%)
 integral evaluation            ...        0 min,  0.322 sec (  1.579%)
 iterations                     ...        0 min, 19.234 sec ( 94.404%)
 molecular gradient             ...        0 min,  0.720 sec (  3.532%)
 printout                       ...        0 min,  0.064 sec (  0.316%)

         :::::::::::::::::::::::::::::::::::::::::::::::::::::
         ::                     SUMMARY                     ::
         :::::::::::::::::::::::::::::::::::::::::::::::::::::
         :: total energy            -545.184870278861 Eh    ::
         :: gradient norm              1.123723290115 Eh/a0 ::
         :: HOMO-LUMO gap              0.000002046818 eV    ::
         ::.................................................::
         :: SCC energy              -552.077750406826 Eh    ::
         :: -> electrostatic           1.112422584778 Eh    ::
         :: repulsion energy           7.137243752982 Eh    ::
         :: dispersion energy         -0.244363625017 Eh    ::
         :: halogen bond corr.         0.000000000000 Eh    ::
         :: add. restraining           0.000000000000 Eh    ::
         :: total charge              -0.000000000000 e     ::
         :::::::::::::::::::::::::::::::::::::::::::::::::::::

      ----------------------------------------------------------- 
     |                   =====================                   |
     |                        A N C O P T                        |
     |                   =====================                   |
     |               Approximate Normal Coordinate               |
     |                Rational Function Optimizer                |
      ----------------------------------------------------------- 

          ...................................................
          :                      SETUP                      :
          :.................................................:
          :   optimization level            normal          :
          :   max. optcycles                   798          :
          :   ANC micro-cycles                  20          :
          :   degrees of freedom               792          :
          :.................................................:
          :   RF solver                   davidson          :
          :   write xtbopt.log                true          :
          :   linear?                        false          :
          :   energy convergence         0.5000000E-05 Eh   :
          :   grad. convergence          0.1000000E-02 Eh/α :
          :   maximium RF displ.         1.0000000          :
          :   Hlow (freq-cutoff)         0.1000000E-01      :
          :   Hmax (freq-cutoff)         5.0000000          :
          :   S6 in model hess.         20.0000000          :
          ...................................................

generating ANC from model Hessian ...
Using Lindh-Hessian (1995)
 Shifting diagonal of input Hessian by    1.0032829653593296E-002
 Lowest  eigenvalues of input Hessian
    0.010000    0.010006    0.010010    0.010016    0.010018    0.010022
    0.010023    0.010023    0.010025    0.010026    0.010031    0.000000
    0.000000    0.000000    0.000000    0.000000    0.000000    0.010033
 Highest eigenvalues
    2.702255    2.702255    2.703953    2.703958    3.024330    3.028383


........................................................................
.............................. CYCLE    1 ..............................
........................................................................
   1   -552.0777504 -0.552078E+03  0.364E-05    0.00       0.0  T
   2   -552.0777487  0.167357E-05  0.146E-03    0.00       4.2  T
   3   -552.0777504 -0.166033E-05  0.139E-04    0.00      44.2  T
   4   -552.0777504 -0.689954E-08  0.979E-05    0.00      62.7  T
   5   -552.0777504  0.222766E-07  0.199E-04    0.00      30.8  T
     SCC iter.                  ...        0 min,  1.615 sec
     gradient                   ...        0 min,  0.728 sec
 * total energy  :  -545.1848703 Eh     change        0.2772799E-07 Eh
   gradient norm :     1.1237233 Eh/α   predicted     0.0000000E+00 (-100.00%)
   displ. norm   :     0.5522133 α      lambda       -0.5585485E+00
   maximum displ.:     0.1217945 α      in ANC's #782, #600, #550, ...

........................................................................
.............................. CYCLE    2 ..............................
........................................................................
   1   -552.3373124 -0.552337E+03  0.219E-01    0.00       0.0  T
   2   -551.9024635  0.434849E+00  0.809E-01    0.22       1.0  T
   3   -552.1301811 -0.227718E+00  0.606E-01    0.13       1.0  T
   4   -552.1186100  0.115711E-01  0.602E-01    0.06       1.0  T
   5   -552.1133836  0.522641E-02  0.565E-01    0.06       1.0  T
   6   -552.2771829 -0.163799E+00  0.345E-01    0.01       1.0  T
   7   -552.2729307  0.425211E-02  0.351E-01    0.01       1.0  T
   8   -552.3509347 -0.780040E-01  0.132E-01    0.01       1.0  T
   9   -552.3581840 -0.724929E-02  0.839E-02    0.01       1.0  T
  10   -552.3631438 -0.495984E-02  0.245E-02    0.00       1.0  T
  11   -552.3635552 -0.411394E-03  0.622E-03    0.00       1.0  T
  12   -552.3634975  0.577339E-04  0.112E-02    0.00       1.0  T
  13   -552.3635684 -0.708724E-04  0.474E-03    0.00       1.3  T
  14   -552.3635690 -0.673508E-06  0.453E-03    0.00       1.4  T
  15   -552.3635819 -0.128410E-04  0.180E-03    0.00       3.4  T
  16   -552.3635836 -0.169140E-05  0.831E-04    0.00       7.4  T
  17   -552.3635839 -0.313299E-06  0.519E-04    0.00      11.8  T
  18   -552.3635840 -0.956185E-07  0.331E-04    0.00      18.5  T
  19   -552.3635841 -0.642344E-07  0.136E-04    0.00      45.1  T
  20   -552.3635841 -0.108150E-07  0.662E-05    0.00      92.6  T
     SCC iter.                  ...        0 min,  6.404 sec
     gradient                   ...        0 min,  0.727 sec
 * total energy  :  -545.6294916 Eh     change       -0.4446214E+00 Eh
   gradient norm :     0.6683452 Eh/α   predicted    -0.3644362E+00 ( -18.03%)
   displ. norm   :     0.6235865 α      lambda       -0.3821033E+00
   maximum displ.:     0.1305723 α      in ANC's #782, #600, #550, ...

........................................................................
.............................. CYCLE    3 ..............................
........................................................................
   1   -552.7412558 -0.552741E+03  0.238E-01    0.01       0.0  T
   2   -552.3179137  0.423342E+00  0.807E-01    0.28       1.0  T
   3   -552.4831910 -0.165277E+00  0.667E-01    0.14       1.0  T
   4   -552.4837038 -0.512751E-03  0.659E-01    0.11       1.0  T
   5   -552.4536138  0.300900E-01  0.635E-01    0.11       1.0  T
   6   -552.7031395 -0.249526E+00  0.305E-01    0.01       1.0  T
   7   -552.6255012  0.776383E-01  0.451E-01    0.05       1.0  T
   8   -552.7540160 -0.128515E+00  0.144E-01    0.01       1.0  T
   9   -552.7611832 -0.716720E-02  0.108E-01    0.00       1.0  T
  10   -552.7685320 -0.734881E-02  0.349E-02    0.00       1.0  T
  11   -552.7693105 -0.778489E-03  0.111E-02    0.00       1.0  T
  12   -552.7693244 -0.139319E-04  0.980E-03    0.00       1.0  T
  13   -552.7693852 -0.607413E-04  0.307E-03    0.00       2.0  T
  14   -552.7693864 -0.123641E-05  0.268E-03    0.00       2.3  T
  15   -552.7693895 -0.311288E-05  0.153E-03    0.00       4.0  T
  16   -552.7693901 -0.597109E-06  0.120E-03    0.00       5.1  T
  17   -552.7693910 -0.852290E-06  0.293E-04    0.00      20.9  T
  18   -552.7693910 -0.585186E-07  0.829E-05    0.00      74.0  T
  19   -552.7693910 -0.393709E-08  0.330E-05    0.00     186.1  T
     SCC iter.                  ...        0 min,  6.094 sec
     gradient                   ...        0 min,  0.728 sec
 * total energy  :  -545.8634978 Eh     change       -0.2340062E+00 Eh
   gradient norm :     0.2829351 Eh/α   predicted    -0.2653440E+00 (  13.39%)
   displ. norm   :     0.6341720 α      lambda       -0.1230550E+00
   maximum displ.:     0.1615673 α      in ANC's #193, #309, #74, ...

........................................................................
.............................. CYCLE    4 ..............................
........................................................................
   1   -552.8626549 -0.552863E+03  0.165E-01    0.01       0.0  T
   2   -552.4441723  0.418483E+00  0.793E-01    0.43       1.0  T
   3   -552.7880223 -0.343850E+00  0.376E-01    0.01       1.0  T
   4   -552.7399575  0.480647E-01  0.463E-01    0.04       1.0  T
   5   -552.5823061  0.157651E+00  0.615E-01    0.11       1.0  T
   6   -552.8109619 -0.228656E+00  0.311E-01    0.02       1.0  T
   7   -552.7764306  0.345313E-01  0.383E-01    0.04       1.0  T
   8   -552.8626966 -0.862660E-01  0.151E-01    0.01       1.0  T
   9   -552.8787264 -0.160298E-01  0.915E-03    0.00       1.0  T
  10   -552.8774741  0.125233E-02  0.434E-02    0.00       1.0  T
  11   -552.8786727 -0.119860E-02  0.131E-02    0.00       1.0  T
  12   -552.8787904 -0.117691E-03  0.118E-03    0.00       5.2  T
  13   -552.8787812  0.917151E-05  0.383E-03    0.00       1.6  T
  14   -552.8787911 -0.994686E-05  0.607E-04    0.00      10.1  T
  15   -552.8787913 -0.141088E-06  0.409E-04    0.00      15.0  T
  16   -552.8787913 -0.310628E-07  0.343E-04    0.00      17.9  T
  17   -552.8787914 -0.556732E-07  0.191E-04    0.00      32.1  T
  18   -552.8787914 -0.240107E-07  0.681E-05    0.00      90.0  T
     SCC iter.                  ...        0 min,  5.769 sec
     gradient                   ...        0 min,  0.735 sec
 * total energy  :  -545.9575613 Eh     change       -0.9406354E-01 Eh
   gradient norm :     0.1382961 Eh/α   predicted    -0.8627364E-01 (  -8.28%)
   displ. norm   :     0.7793583 α      lambda       -0.8676186E-01
   maximum displ.:     0.2579339 α      in ANC's #193, #74, #309, ...

........................................................................
.............................. CYCLE    5 ..............................
........................................................................
   1   -552.9258477 -0.552926E+03  0.125E-01    0.00       0.0  T
   2   -552.5352999  0.390548E+00  0.761E-01    0.36       1.0  T
   3   -552.7914030 -0.256103E+00  0.465E-01    0.00       1.0  T
   4   -552.8692585 -0.778555E-01  0.304E-01    0.02       1.0  T
   5   -552.7519106  0.117348E+00  0.495E-01    0.03       1.0  T
   6   -552.9320213 -0.180111E+00  0.642E-02    0.01       1.0  T
   7   -552.9182473  0.137740E-01  0.155E-01    0.00       1.0  T
   8   -552.9301622 -0.119148E-01  0.818E-02    0.00       1.0  T
   9   -552.9333893 -0.322713E-02  0.430E-02    0.00       1.0  T
  10   -552.9343727 -0.983404E-03  0.214E-02    0.00       1.0  T
  11   -552.9346724 -0.299735E-03  0.367E-03    0.00       1.7  T
  12   -552.9346805 -0.808891E-05  0.172E-03    0.00       3.6  T
  13   -552.9346822 -0.168089E-05  0.688E-04    0.00       8.9  T
  14   -552.9346825 -0.281341E-06  0.297E-04    0.00      20.6  T
  15   -552.9346825  0.397393E-07  0.384E-04    0.00      16.0  T
  16   -552.9346825 -0.926028E-07  0.107E-04    0.00      57.2  T
  17   -552.9346826 -0.705199E-08  0.307E-05    0.00     199.7  T
     SCC iter.                  ...        0 min,  5.481 sec
     gradient                   ...        0 min,  0.741 sec
 * total energy  :  -546.0314769 Eh     change       -0.7391554E-01 Eh
   gradient norm :     0.1087238 Eh/α   predicted    -0.6973070E-01 (  -5.66%)
   displ. norm   :     0.8588428 α      lambda       -0.7193883E-01
   maximum displ.:     0.3020212 α      in ANC's #193, #74, #78, ...

........................................................................
.............................. CYCLE    6 ..............................
........................................................................
   1   -552.9215113 -0.552922E+03  0.991E-02    0.00       0.0  T
   2   -552.5453784  0.376133E+00  0.744E-01    0.35       1.0  T
   3   -552.8640105 -0.318632E+00  0.308E-01    0.04       1.0  T
   4   -552.8951706 -0.311601E-01  0.213E-01    0.03       1.0  T
   5   -552.7756492  0.119521E+00  0.445E-01    0.06       1.0  T
   6   -552.9207370 -0.145088E+00  0.963E-02    0.00       1.0  T
   7   -552.8844009  0.363361E-01  0.249E-01    0.02       1.0  T
   8   -552.9262488 -0.418479E-01  0.259E-02    0.00       1.0  T
   9   -552.9254120  0.836897E-03  0.433E-02    0.00       1.0  T
  10   -552.9265627 -0.115072E-02  0.147E-02    0.00       1.0  T
  11   -552.9267110 -0.148353E-03  0.169E-03    0.00       3.6  T
  12   -552.9267113 -0.231620E-06  0.162E-03    0.00       3.8  T
  13   -552.9267128 -0.156423E-05  0.577E-04    0.00      10.6  T
  14   -552.9267130 -0.197529E-06  0.210E-04    0.00      29.1  T
  15   -552.9267130 -0.255859E-07  0.740E-05    0.00      82.9  T
  16   -552.9267130 -0.257603E-08  0.406E-05    0.00     151.2  T
     SCC iter.                  ...        0 min,  5.168 sec
     gradient                   ...        0 min,  0.741 sec
 * total energy  :  -546.0904731 Eh     change       -0.5899624E-01 Eh
   gradient norm :     0.0863547 Eh/α   predicted    -0.6250110E-01 (   5.94%)
   displ. norm   :     0.8054716 α      lambda       -0.4448874E-01
   maximum displ.:     0.2781726 α      in ANC's #74, #78, #193, ...

........................................................................
.............................. CYCLE    7 ..............................
........................................................................
   1   -552.9362538 -0.552936E+03  0.384E-02    0.00       0.0  T
   2   -552.8827755  0.534783E-01  0.264E-01    0.03       1.0  T
   3   -552.9232353 -0.404599E-01  0.134E-01    0.02       1.0  T
   4   -552.9095900  0.136453E-01  0.195E-01    0.01       1.0  T
   5   -552.9197409 -0.101509E-01  0.158E-01    0.01       1.0  T
   6   -552.9231481 -0.340719E-02  0.148E-01    0.02       1.0  T
   7   -552.9359192 -0.127711E-01  0.365E-02    0.00       1.0  T
   8   -552.9366924 -0.773223E-03  0.951E-03    0.00       1.0  T
   9   -552.9367446 -0.522381E-04  0.388E-03    0.00       1.6  T
  10   -552.9367495 -0.484849E-05  0.261E-03    0.00       2.4  T
  11   -552.9367518 -0.234236E-05  0.175E-03    0.00       3.5  T
  12   -552.9367534 -0.163324E-05  0.719E-04    0.00       8.5  T
  13   -552.9367537 -0.258770E-06  0.324E-04    0.00      18.9  T
  14   -552.9367537 -0.471583E-07  0.182E-04    0.00      33.6  T
  15   -552.9367538 -0.157288E-07  0.942E-05    0.00      65.1  T
     SCC iter.                  ...        0 min,  4.811 sec
     gradient                   ...        0 min,  0.729 sec
 * total energy  :  -546.1237553 Eh     change       -0.3328222E-01 Eh
   gradient norm :     0.0754695 Eh/α   predicted    -0.3667620E-01 (  10.20%)
   displ. norm   :     0.7605705 α      lambda       -0.3153324E-01
   maximum displ.:     0.2821447 α      in ANC's #74, #54, #66, ...

........................................................................
.............................. CYCLE    8 ..............................
........................................................................
   1   -552.9784988 -0.552978E+03  0.641E-02    0.00       0.0  T
   2   -552.5847882  0.393711E+00  0.762E-01    0.25       1.0  T
   3   -552.8699911 -0.285203E+00  0.392E-01    0.04       1.0  T
   4   -552.9602190 -0.902278E-01  0.174E-01    0.00       1.0  T
   5   -552.9570084  0.321052E-02  0.191E-01    0.01       1.0  T
   6   -552.9757411 -0.187327E-01  0.910E-02    0.00       1.0  T
   7   -552.9813141 -0.557298E-02  0.122E-02    0.00       1.0  T
   8   -552.9810891  0.224944E-03  0.214E-02    0.00       1.0  T
   9   -552.9814020 -0.312906E-03  0.274E-03    0.00       2.2  T
  10   -552.9814041 -0.201765E-05  0.220E-03    0.00       2.8  T
  11   -552.9814063 -0.227805E-05  0.128E-03    0.00       4.8  T
  12   -552.9814074 -0.107972E-05  0.145E-04    0.00      42.3  T
  13   -552.9814074  0.618320E-08  0.185E-04    0.00      33.2  T
  14   -552.9814074 -0.177641E-07  0.828E-05    0.00      74.1  T
     SCC iter.                  ...        0 min,  4.497 sec
     gradient                   ...        0 min,  0.726 sec
 * total energy  :  -546.1487887 Eh     change       -0.2503338E-01 Eh
   gradient norm :     0.0555095 Eh/α   predicted    -0.2488710E-01 (  -0.58%)
   displ. norm   :     0.8847572 α      lambda       -0.3093743E-01
   maximum displ.:     0.3381039 α      in ANC's #74, #78, #54, ...

........................................................................
.............................. CYCLE    9 ..............................
........................................................................
   1   -553.0152503 -0.553015E+03  0.107E-01    0.01       0.0  T
   2   -552.5953117  0.419939E+00  0.796E-01    0.34       1.0  T
   3   -552.7453942 -0.150083E+00  0.608E-01    0.09       1.0  T
   4   -552.9422796 -0.196885E+00  0.350E-01    0.03       1.0  T
   5   -552.9953661 -0.530865E-01  0.202E-01    0.01       1.0  T
   6   -553.0062443 -0.108782E-01  0.157E-01    0.01       1.0  T
   7   -553.0219360 -0.156916E-01  0.367E-02    0.00       1.0  T
   8   -553.0226247 -0.688732E-03  0.171E-02    0.00       1.0  T
   9   -553.0228137 -0.188969E-03  0.483E-03    0.00       1.3  T
  10   -553.0227519  0.617239E-04  0.106E-02    0.00       1.0  T
  11   -553.0228264 -0.745133E-04  0.180E-03    0.00       3.4  T
  12   -553.0228275 -0.101614E-05  0.136E-03    0.00       4.5  T
  13   -553.0228284 -0.946042E-06  0.668E-04    0.00       9.2  T
  14   -553.0228287 -0.279619E-06  0.924E-05    0.00      66.4  T
  15   -553.0228287  0.365765E-08  0.120E-04    0.00      50.9  T
     SCC iter.                  ...        0 min,  4.808 sec
     gradient                   ...        0 min,  0.726 sec
 * total energy  :  -546.1662311 Eh     change       -0.1744238E-01 Eh
   gradient norm :     0.0814817 Eh/α   predicted    -0.2757757E-01 (  58.11%)
   displ. norm   :     0.7400373 α      lambda       -0.2617216E-01
   maximum displ.:     0.2747008 α      in ANC's #74, #54, #66, ...

........................................................................
.............................. CYCLE   10 ..............................
........................................................................
   1   -553.0678338 -0.553068E+03  0.101E-01    0.00       0.0  T
   2   -552.6489965  0.418837E+00  0.792E-01    0.31       1.0  T
   3   -552.7782823 -0.129286E+00  0.626E-01    0.10       1.0  T
   4   -553.0197365 -0.241454E+00  0.291E-01    0.02       1.0  T
   5   -553.0588701 -0.391336E-01  0.151E-01    0.00       1.0  T
   6   -553.0587198  0.150238E-03  0.153E-01    0.01       1.0  T
   7   -553.0743163 -0.155965E-01  0.169E-02    0.00       1.0  T
   8   -553.0743745 -0.581729E-04  0.136E-02    0.00       1.0  T
   9   -553.0744208 -0.463339E-04  0.110E-02    0.00       1.0  T
  10   -553.0745011 -0.802730E-04  0.143E-03    0.00       4.3  T
  11   -553.0745011 -0.438965E-07  0.138E-03    0.00       4.5  T
  12   -553.0745023 -0.119031E-05  0.424E-04    0.00      14.5  T
  13   -553.0745024 -0.794175E-07  0.247E-04    0.00      24.8  T
  14   -553.0745024 -0.376133E-08  0.235E-04    0.00      26.1  T
  15   -553.0745024 -0.326604E-07  0.694E-05    0.00      88.4  T
  16   -553.0745024 -0.243165E-08  0.326E-05    0.00     188.1  T
     SCC iter.                  ...        0 min,  5.125 sec
     gradient                   ...        0 min,  0.724 sec
 * total energy  :  -546.1861508 Eh     change       -0.1991973E-01 Eh
   gradient norm :     0.0510860 Eh/α   predicted    -0.2025275E-01 (   1.67%)
   displ. norm   :     0.8376065 α      lambda       -0.2101950E-01
   maximum displ.:     0.2930450 α      in ANC's #34, #74, #77, ...

........................................................................
.............................. CYCLE   11 ..............................
........................................................................
   1   -553.1129471 -0.553113E+03  0.995E-02    0.01       0.0  T
   2   -552.6890088  0.423938E+00  0.795E-01    0.35       1.0  T
   3   -552.8817511 -0.192742E+00  0.561E-01    0.09       1.0  T
   4   -553.1001842 -0.218433E+00  0.172E-01    0.02       1.0  T
   5   -553.1095536 -0.936938E-02  0.118E-01    0.01       1.0  T
   6   -553.1130761 -0.352254E-02  0.966E-02    0.01       1.0  T
   7   -553.1183880 -0.531188E-02  0.347E-02    0.00       1.0  T
   8   -553.1192082 -0.820159E-03  0.492E-03    0.00       1.2  T
   9   -553.1192136 -0.542359E-05  0.352E-03    0.00       1.7  T
  10   -553.1192218 -0.816225E-05  0.942E-04    0.00       6.5  T
  11   -553.1192222 -0.403351E-06  0.552E-04    0.00      11.1  T
  12   -553.1192222 -0.698697E-08  0.555E-04    0.00      11.1  T
  13   -553.1192223 -0.144602E-06  0.294E-04    0.00      20.9  T
  14   -553.1192224 -0.387276E-07  0.163E-04    0.00      37.5  T
  15   -553.1192224 -0.165188E-07  0.326E-05    0.00     188.0  T
     SCC iter.                  ...        0 min,  4.806 sec
     gradient                   ...        0 min,  0.726 sec
 * total energy  :  -546.1978400 Eh     change       -0.1168922E-01 Eh
   gradient norm :     0.0643662 Eh/α   predicted    -0.1788324E-01 (  52.99%)
   displ. norm   :     0.7580069 α      lambda       -0.2237148E-01
   maximum displ.:     0.2759097 α      in ANC's #74, #54, #75, ...

........................................................................
.............................. CYCLE   12 ..............................
........................................................................
   1   -553.1750944 -0.553175E+03  0.104E-01    0.01       0.0  T
   2   -552.7462562  0.428838E+00  0.802E-01    0.35       1.0  T
   3   -552.8913770 -0.145121E+00  0.615E-01    0.12       1.0  T
   4   -553.1723491 -0.280972E+00  0.120E-01    0.00       1.0  T
   5   -553.1390257  0.333234E-01  0.257E-01    0.03       1.0  T
   6   -553.1723528 -0.333271E-01  0.120E-01    0.01       1.0  T
   7   -553.1811275 -0.877470E-02  0.328E-02    0.00       1.0  T
   8   -553.1817939 -0.666414E-03  0.907E-03    0.00       1.0  T
   9   -553.1818383 -0.443812E-04  0.351E-03    0.00       1.7  T
  10   -553.1818441 -0.575276E-05  0.215E-03    0.00       2.9  T
  11   -553.1818471 -0.303414E-05  0.529E-04    0.00      11.6  T
  12   -553.1818471 -0.132134E-07  0.509E-04    0.00      12.0  T
  13   -553.1818473 -0.149771E-06  0.174E-04    0.00      35.3  T
  14   -553.1818473 -0.131591E-07  0.880E-05    0.00      69.7  T
     SCC iter.                  ...        0 min,  4.490 sec
     gradient                   ...        0 min,  0.726 sec
 * total energy  :  -546.2116990 Eh     change       -0.1385893E-01 Eh
   gradient norm :     0.0774481 Eh/α   predicted    -0.1761279E-01 (  27.09%)
   displ. norm   :     0.7049127 α      lambda       -0.1645461E-01
   maximum displ.:     0.2693925 α      in ANC's #54, #34, #74, ...

........................................................................
.............................. CYCLE   13 ..............................
........................................................................
   1   -553.1989347 -0.553199E+03  0.103E-01    0.00       0.0  T
   2   -552.7885109  0.410424E+00  0.788E-01    0.20       1.0  T
   3   -552.8107840 -0.222730E-01  0.721E-01    0.22       1.0  T
   4   -553.1894840 -0.378700E+00  0.159E-01    0.00       1.0  T
   5   -553.1724015  0.170826E-01  0.224E-01    0.02       1.0  T
   6   -553.1986604 -0.262589E-01  0.101E-01    0.00       1.0  T
   7   -553.2036418 -0.498140E-02  0.560E-02    0.01       1.0  T
   8   -553.2055222 -0.188036E-02  0.223E-02    0.00       1.0  T
   9   -553.2058600 -0.337862E-03  0.292E-03    0.00       2.1  T
  10   -553.2058401  0.199309E-04  0.612E-03    0.00       1.0  T
  11   -553.2058621 -0.220196E-04  0.238E-03    0.00       2.6  T
  12   -553.2058661 -0.395708E-05  0.496E-04    0.00      12.4  T
  13   -553.2058661 -0.247518E-07  0.433E-04    0.00      14.2  T
  14   -553.2058662 -0.114286E-06  0.196E-04    0.00      31.2  T
  15   -553.2058662 -0.208777E-07  0.848E-05    0.00      72.3  T
     SCC iter.                  ...        0 min,  4.836 sec
     gradient                   ...        0 min,  0.747 sec
 * total energy  :  -546.2224361 Eh     change       -0.1073715E-01 Eh
   gradient norm :     0.0486803 Eh/α   predicted    -0.1231549E-01 (  14.70%)
   displ. norm   :     0.7845636 α      lambda       -0.1252489E-01
   maximum displ.:     0.3080524 α      in ANC's #34, #54, #74, ...

........................................................................
.............................. CYCLE   14 ..............................
........................................................................
   1   -553.2339798 -0.553234E+03  0.726E-02    0.00       0.0  T
   2   -552.8305727  0.403407E+00  0.778E-01    0.21       1.0  T
   3   -552.9894938 -0.158921E+00  0.570E-01    0.10       1.0  T
   4   -553.2356590 -0.246165E+00  0.524E-02    0.01       1.0  T
   5   -553.2124305  0.232285E-01  0.198E-01    0.03       1.0  T
   6   -553.2371451 -0.247146E-01  0.163E-02    0.00       1.0  T
   7   -553.2372977 -0.152674E-03  0.483E-03    0.00       1.3  T
   8   -553.2372542  0.435450E-04  0.915E-03    0.00       1.0  T
   9   -553.2373075 -0.533138E-04  0.216E-03    0.00       2.8  T
  10   -553.2373097 -0.218115E-05  0.105E-03    0.00       5.8  T
  11   -553.2373102 -0.535465E-06  0.627E-04    0.00       9.8  T
  12   -553.2373104 -0.192544E-06  0.323E-04    0.00      19.0  T
  13   -553.2373104 -0.226929E-07  0.251E-04    0.00      24.5  T
  14   -553.2373105 -0.440922E-07  0.365E-05    0.00     167.9  T
  15   -553.2373105  0.461455E-09  0.440E-05    0.00     139.3  T
     SCC iter.                  ...        0 min,  4.845 sec
     gradient                   ...        0 min,  0.747 sec
 * total energy  :  -546.2325759 Eh     change       -0.1013975E-01 Eh
   gradient norm :     0.0366060 Eh/α   predicted    -0.1011722E-01 (  -0.22%)
   displ. norm   :     0.8174500 α      lambda       -0.1007280E-01
   maximum displ.:     0.3616401 α      in ANC's #34, #54, #74, ...

........................................................................
.............................. CYCLE   15 ..............................
........................................................................
   1   -553.2751152 -0.553275E+03  0.455E-02    0.00       0.0  T
   2   -553.0306424  0.244473E+00  0.606E-01    0.07       1.0  T
   3   -553.1652187 -0.134576E+00  0.393E-01    0.02       1.0  T
   4   -553.2728769 -0.107658E+00  0.722E-02    0.00       1.0  T
   5   -553.2581668  0.147101E-01  0.163E-01    0.01       1.0  T
   6   -553.2744628 -0.162960E-01  0.509E-02    0.01       1.0  T
   7   -553.2762922 -0.182941E-02  0.517E-03    0.00       1.2  T
   8   -553.2759682  0.324072E-03  0.226E-02    0.00       1.0  T
   9   -553.2762759 -0.307709E-03  0.716E-03    0.00       1.0  T
  10   -553.2762521  0.237502E-04  0.909E-03    0.00       1.0  T
  11   -553.2763028 -0.507028E-04  0.314E-03    0.00       2.0  T
  12   -553.2763095 -0.667481E-05  0.404E-04    0.00      15.2  T
  13   -553.2763096 -0.110036E-06  0.109E-04    0.00      56.2  T
  14   -553.2763096  0.350381E-07  0.248E-04    0.00      24.8  T
  15   -553.2763096 -0.371278E-07  0.887E-05    0.00      69.1  T
     SCC iter.                  ...        0 min,  4.815 sec
     gradient                   ...        0 min,  0.740 sec
 * total energy  :  -546.2406165 Eh     change       -0.8040624E-02 Eh
   gradient norm :     0.0297711 Eh/α   predicted    -0.8401876E-02 (   4.49%)
   displ. norm   :     0.8324647 α      lambda       -0.8931040E-02
   maximum displ.:     0.4065647 α      in ANC's #34, #54, #53, ...

........................................................................
.............................. CYCLE   16 ..............................
........................................................................
   1   -553.3022624 -0.553302E+03  0.449E-02    0.00       0.0  T
   2   -553.0949320  0.207330E+00  0.561E-01    0.05       1.0  T
   3   -553.2207740 -0.125842E+00  0.359E-01    0.01       1.0  T
   4   -553.3012304 -0.804564E-01  0.549E-02    0.00       1.0  T
   5   -553.2721393  0.290912E-01  0.205E-01    0.01       1.0  T
   6   -553.3028186 -0.306794E-01  0.304E-02    0.00       1.0  T
   7   -553.3032740 -0.455343E-03  0.131E-02    0.00       1.0  T
   8   -553.3031950  0.789501E-04  0.172E-02    0.00       1.0  T
   9   -553.3033828 -0.187832E-03  0.318E-03    0.00       1.9  T
  10   -553.3033778  0.504964E-05  0.431E-03    0.00       1.4  T
  11   -553.3033893 -0.115188E-04  0.636E-04    0.00       9.6  T
  12   -553.3033895 -0.182568E-06  0.291E-04    0.00      21.0  T
  13   -553.3033895 -0.375877E-07  0.196E-04    0.00      31.2  T
  14   -553.3033895 -0.109412E-07  0.141E-04    0.00      43.4  T
     SCC iter.                  ...        0 min,  4.484 sec
     gradient                   ...        0 min,  0.731 sec
 * total energy  :  -546.2470298 Eh     change       -0.6413277E-02 Eh
   gradient norm :     0.0259887 Eh/α   predicted    -0.7560122E-02 (  17.88%)
   displ. norm   :     0.7915999 α      lambda       -0.7623407E-02
   maximum displ.:     0.4206986 α      in ANC's #34, #54, #27, ...

........................................................................
.............................. CYCLE   17 ..............................
........................................................................
   1   -553.3265338 -0.553327E+03  0.433E-02    0.00       0.0  T
   2   -553.0595906  0.266943E+00  0.608E-01    0.07       1.0  T
   3   -553.2039575 -0.144367E+00  0.432E-01    0.03       1.0  T
   4   -553.3268534 -0.122896E+00  0.359E-02    0.00       1.0  T
   5   -553.3054589  0.213945E-01  0.183E-01    0.01       1.0  T
   6   -553.3274992 -0.220403E-01  0.159E-02    0.00       1.0  T
   7   -553.3276034 -0.104203E-03  0.913E-03    0.00       1.0  T
   8   -553.3276058 -0.240593E-05  0.932E-03    0.00       1.0  T
   9   -553.3276540 -0.481437E-04  0.305E-03    0.00       2.0  T
  10   -553.3276533  0.644804E-06  0.334E-03    0.00       1.8  T
  11   -553.3276596 -0.627898E-05  0.106E-03    0.00       5.8  T
  12   -553.3276600 -0.412099E-06  0.673E-04    0.00       9.1  T
  13   -553.3276603 -0.275011E-06  0.140E-04    0.00      43.8  T
  14   -553.3276603 -0.858222E-08  0.828E-05    0.00      74.1  T
     SCC iter.                  ...        0 min,  4.490 sec
     gradient                   ...        0 min,  0.730 sec
 * total energy  :  -546.2512316 Eh     change       -0.4201877E-02 Eh
   gradient norm :     0.0478325 Eh/α   predicted    -0.6200236E-02 (  47.56%)
   displ. norm   :     0.6603128 α      lambda       -0.6980238E-02
   maximum displ.:     0.3686485 α      in ANC's #34, #54, #27, ...

........................................................................
.............................. CYCLE   18 ..............................
........................................................................
   1   -553.3475528 -0.553348E+03  0.262E-02    0.00       0.0  T
   2   -553.2115432  0.136010E+00  0.459E-01    0.02       1.0  T
   3   -553.3445619 -0.133019E+00  0.740E-02    0.00       1.0  T
   4   -553.3442802  0.281678E-03  0.740E-02    0.00       1.0  T
   5   -553.3477503 -0.347004E-02  0.159E-02    0.00       1.0  T
   6   -553.3377990  0.995128E-02  0.116E-01    0.01       1.0  T
   7   -553.3478844 -0.100854E-01  0.768E-03    0.00       1.0  T
   8   -553.3478129  0.715403E-04  0.126E-02    0.00       1.0  T
   9   -553.3479186 -0.105696E-03  0.229E-03    0.00       2.7  T
  10   -553.3479196 -0.108138E-05  0.195E-03    0.00       3.1  T
  11   -553.3479222 -0.253050E-05  0.521E-04    0.00      11.8  T
  12   -553.3479221  0.454430E-07  0.542E-04    0.00      11.3  T
  13   -553.3479223 -0.205238E-06  0.124E-04    0.00      49.5  T
  14   -553.3479223 -0.312673E-08  0.109E-04    0.00      56.4  T
     SCC iter.                  ...        0 min,  4.491 sec
     gradient                   ...        0 min,  0.735 sec
 * total energy  :  -546.2559728 Eh     change       -0.4741189E-02 Eh
   gradient norm :     0.0244358 Eh/α   predicted    -0.5011858E-02 (   5.71%)
   displ. norm   :     0.7294655 α      lambda       -0.5727616E-02
   maximum displ.:     0.4147781 α      in ANC's #34, #27, #33, ...

........................................................................
.............................. CYCLE   19 ..............................
........................................................................
   1   -553.3586970 -0.553359E+03  0.361E-02    0.00       0.0  T
   2   -553.1834424  0.175255E+00  0.510E-01    0.04       1.0  T
   3   -553.3030980 -0.119656E+00  0.290E-01    0.02       1.0  T
   4   -553.3584079 -0.553098E-01  0.400E-02    0.00       1.0  T
   5   -553.3360440  0.223639E-01  0.185E-01    0.01       1.0  T
   6   -553.3593900 -0.233460E-01  0.134E-02    0.00       1.0  T
   7   -553.3592817  0.108297E-03  0.186E-02    0.00       1.0  T
   8   -553.3595023 -0.220511E-03  0.434E-03    0.00       1.4  T
   9   -553.3594576  0.447001E-04  0.896E-03    0.00       1.0  T
  10   -553.3595145 -0.569844E-04  0.457E-04    0.00      13.4  T
  11   -553.3595134  0.115511E-05  0.136E-03    0.00       4.5  T
  12   -553.3595146 -0.123550E-05  0.318E-04    0.00      19.3  T
  13   -553.3595147 -0.453878E-07  0.189E-04    0.00      32.4  T
  14   -553.3595147 -0.258581E-07  0.191E-05    0.00     320.8  T
     SCC iter.                  ...        0 min,  4.495 sec
     gradient                   ...        0 min,  0.734 sec
 * total energy  :  -546.2582812 Eh     change       -0.2308373E-02 Eh
   gradient norm :     0.0555510 Eh/α   predicted    -0.4387703E-02 (  90.08%)
   displ. norm   :     0.5805683 α      lambda       -0.6324780E-02
   maximum displ.:     0.3614350 α      in ANC's #34, #27, #48, ...

........................................................................
.............................. CYCLE   20 ..............................
........................................................................
   1   -553.3825597 -0.553383E+03  0.203E-02    0.00       0.0  T
   2   -553.2145089  0.168051E+00  0.482E-01    0.05       1.0  T
   3   -553.3688598 -0.154351E+00  0.141E-01    0.01       1.0  T
   4   -553.3813813 -0.125215E-01  0.480E-02    0.00       1.0  T
   5   -553.3822993 -0.917986E-03  0.272E-02    0.00       1.0  T
   6   -553.3814191  0.880129E-03  0.452E-02    0.00       1.0  T
   7   -553.3827493 -0.133013E-02  0.582E-03    0.00       1.1  T
   8   -553.3827651 -0.158354E-04  0.334E-03    0.00       1.8  T
   9   -553.3827707 -0.561176E-05  0.149E-03    0.00       4.1  T
  10   -553.3827721 -0.135262E-05  0.507E-04    0.00      12.1  T
  11   -553.3827722 -0.162117E-06  0.588E-05    0.00     104.2  T
  12   -553.3827722  0.208765E-07  0.197E-04    0.00      31.0  T
     SCC iter.                  ...        0 min,  3.852 sec
     gradient                   ...        0 min,  0.735 sec
 * total energy  :  -546.2628119 Eh     change       -0.4530692E-02 Eh
   gradient norm :     0.0222597 Eh/α   predicted    -0.4228303E-02 (  -6.67%)
   displ. norm   :     0.7652004 α      lambda       -0.4539111E-02
   maximum displ.:     0.5031730 α      in ANC's #34, #27, #48, ...
 * RMSD in coord.:     0.6809356 α      energy gain  -0.1077942E+01 Eh

generating ANC from model Hessian ...
Using Lindh-Hessian (1995)
 Shifting diagonal of input Hessian by    1.0019056526026136E-002
 Lowest  eigenvalues of input Hessian
    0.010000    0.010003    0.010006    0.010008    0.010009    0.010010
    0.010011    0.010013    0.010015    0.000000    0.000000    0.000000
    0.000000    0.000000    0.000000    0.010040    0.010049    0.010060
 Highest eigenvalues
    3.657486    3.663441    3.666316    3.674030    3.674211    3.674687


........................................................................
.............................. CYCLE   21 ..............................
........................................................................
   1   -553.3862958 -0.553386E+03  0.323E-02    0.00       0.0  T
   2   -553.1203258  0.265970E+00  0.636E-01    0.12       1.0  T
   3   -553.3559118 -0.235586E+00  0.209E-01    0.01       1.0  T
   4   -553.3856727 -0.297608E-01  0.425E-02    0.00       1.0  T
   5   -553.3681470  0.175257E-01  0.169E-01    0.01       1.0  T
   6   -553.3867037 -0.185568E-01  0.169E-02    0.00       1.0  T
   7   -553.3868857 -0.181991E-03  0.611E-03    0.00       1.0  T
   8   -553.3868732  0.125538E-04  0.786E-03    0.00       1.0  T
   9   -553.3869103 -0.371217E-04  0.181E-03    0.00       3.4  T
  10   -553.3869092  0.110017E-05  0.219E-03    0.00       2.8  T
  11   -553.3869118 -0.260170E-05  0.993E-04    0.00       6.2  T
  12   -553.3869124 -0.628090E-06  0.150E-04    0.00      40.8  T
  13   -553.3869124  0.450166E-08  0.168E-04    0.00      36.4  T
     SCC iter.                  ...        0 min,  4.188 sec
     gradient                   ...        0 min,  0.751 sec
 * total energy  :  -546.2661777 Eh     change       -0.3365793E-02 Eh
   gradient norm :     0.0265379 Eh/α   predicted     0.0000000E+00 (-100.00%)
   displ. norm   :     0.3464160 α      lambda       -0.2392718E-02
   maximum displ.:     0.2194270 α      in ANC's #32, #36, #18, ...

........................................................................
.............................. CYCLE   22 ..............................
........................................................................
   1   -553.3922051 -0.553392E+03  0.191E-02    0.00       0.0  T
   2   -553.2721032  0.120102E+00  0.425E-01    0.02       1.0  T
   3   -553.3863221 -0.114219E+00  0.989E-02    0.01       1.0  T
   4   -553.3920270 -0.570486E-02  0.257E-02    0.00       1.0  T
   5   -553.3812953  0.107317E-01  0.122E-01    0.01       1.0  T
   6   -553.3923951 -0.110998E-01  0.630E-03    0.00       1.0  T
   7   -553.3924134 -0.183687E-04  0.382E-03    0.00       1.6  T
   8   -553.3924189 -0.549431E-05  0.250E-03    0.00       2.4  T
   9   -553.3924213 -0.237998E-05  0.154E-03    0.00       4.0  T
  10   -553.3924228 -0.143062E-05  0.364E-04    0.00      16.8  T
  11   -553.3924227  0.122673E-07  0.400E-04    0.00      15.3  T
  12   -553.3924228 -0.435772E-07  0.309E-04    0.00      19.9  T
  13   -553.3924228 -0.581477E-07  0.524E-05    0.00     117.1  T
  14   -553.3924228 -0.115620E-08  0.323E-05    0.00     189.6  T
     SCC iter.                  ...        0 min,  4.517 sec
     gradient                   ...        0 min,  0.749 sec
 * total energy  :  -546.2680578 Eh     change       -0.1880100E-02 Eh
   gradient norm :     0.0120593 Eh/α   predicted    -0.1340418E-02 ( -28.70%)
   displ. norm   :     0.7093044 α      lambda       -0.4298607E-02
   maximum displ.:     0.4176905 α      in ANC's #32, #36, #44, ...

........................................................................
.............................. CYCLE   23 ..............................
........................................................................
   1   -553.3996659 -0.553400E+03  0.463E-02    0.00       0.0  T
   2   -553.1972059  0.202460E+00  0.552E-01    0.05       1.0  T
   3   -553.2963464 -0.991405E-01  0.414E-01    0.02       1.0  T
   4   -553.4008666 -0.104520E+00  0.126E-02    0.00       1.0  T
   5   -553.3717218  0.291449E-01  0.199E-01    0.01       1.0  T
   6   -553.4004843 -0.287625E-01  0.269E-02    0.00       1.0  T
   7   -553.4009065 -0.422198E-03  0.946E-03    0.00       1.0  T
   8   -553.4008646  0.418138E-04  0.123E-02    0.00       1.0  T
   9   -553.4009484 -0.837705E-04  0.477E-03    0.00       1.3  T
  10   -553.4009357  0.126904E-04  0.660E-03    0.00       1.0  T
  11   -553.4009630 -0.272250E-04  0.138E-03    0.00       4.4  T
  12   -553.4009639 -0.980047E-06  0.572E-04    0.00      10.7  T
  13   -553.4009641 -0.213985E-06  0.123E-04    0.00      49.9  T
  14   -553.4009642 -0.513285E-08  0.785E-05    0.00      78.1  T
     SCC iter.                  ...        0 min,  4.510 sec
     gradient                   ...        0 min,  0.735 sec
 * total energy  :  -546.2705476 Eh     change       -0.2489793E-02 Eh
   gradient norm :     0.0307623 Eh/α   predicted    -0.3230645E-02 (  29.76%)
   displ. norm   :     0.6008166 α      lambda       -0.3247343E-02
   maximum displ.:     0.3684424 α      in ANC's #32, #36, #44, ...

........................................................................
.............................. CYCLE   24 ..............................
........................................................................
   1   -553.4016109 -0.553402E+03  0.375E-02    0.00       0.0  T
   2   -553.1957255  0.205885E+00  0.557E-01    0.05       1.0  T
   3   -553.3399704 -0.144245E+00  0.316E-01    0.00       1.0  T
   4   -553.4016351 -0.616646E-01  0.336E-02    0.00       1.0  T
   5   -553.3899178  0.117173E-01  0.132E-01    0.01       1.0  T
   6   -553.4022525 -0.123347E-01  0.187E-02    0.00       1.0  T
   7   -553.4024484 -0.195986E-03  0.746E-03    0.00       1.0  T
   8   -553.4024568 -0.836939E-05  0.645E-03    0.00       1.0  T
   9   -553.4024800 -0.231533E-04  0.216E-03    0.00       2.8  T
  10   -553.4024744  0.556586E-05  0.366E-03    0.00       1.7  T
  11   -553.4024824 -0.800789E-05  0.119E-03    0.00       5.2  T
  12   -553.4024832 -0.830257E-06  0.290E-04    0.00      21.2  T
  13   -553.4024833 -0.511883E-07  0.113E-04    0.00      54.1  T
  14   -553.4024833 -0.252385E-10  0.108E-04    0.00      57.0  T
     SCC iter.                  ...        0 min,  4.500 sec
     gradient                   ...        0 min,  0.732 sec
 * total energy  :  -546.2732225 Eh     change       -0.2674951E-02 Eh
   gradient norm :     0.0251616 Eh/α   predicted    -0.2209795E-02 ( -17.39%)
   displ. norm   :     0.7111365 α      lambda       -0.3508607E-02
   maximum displ.:     0.4381256 α      in ANC's #32, #36, #18, ...

........................................................................
.............................. CYCLE   25 ..............................
........................................................................
   1   -553.3975999 -0.553398E+03  0.438E-02    0.00       0.0  T
   2   -553.1029016  0.294698E+00  0.672E-01    0.12       1.0  T
   3   -553.2871995 -0.184298E+00  0.395E-01    0.04       1.0  T
   4   -553.3957705 -0.108571E+00  0.693E-02    0.01       1.0  T
   5   -553.3933892  0.238128E-02  0.901E-02    0.01       1.0  T
   6   -553.3985578 -0.516859E-02  0.183E-02    0.00       1.0  T
   7   -553.3987540 -0.196246E-03  0.715E-03    0.00       1.0  T
   8   -553.3987249  0.291025E-04  0.974E-03    0.00       1.0  T
   9   -553.3987791 -0.541208E-04  0.318E-03    0.00       1.9  T
  10   -553.3987774  0.163706E-05  0.359E-03    0.00       1.7  T
  11   -553.3987852 -0.781148E-05  0.112E-03    0.00       5.5  T
  12   -553.3987860 -0.739181E-06  0.319E-04    0.00      19.2  T
  13   -553.3987860 -0.638198E-07  0.118E-04    0.00      51.8  T
  14   -553.3987860 -0.237219E-08  0.969E-05    0.00      63.2  T
     SCC iter.                  ...        0 min,  4.480 sec
     gradient                   ...        0 min,  0.731 sec
 * total energy  :  -546.2758520 Eh     change       -0.2629456E-02 Eh
   gradient norm :     0.0151413 Eh/α   predicted    -0.2641483E-02 (   0.46%)
   displ. norm   :     0.7500886 α      lambda       -0.3089701E-02
   maximum displ.:     0.4597357 α      in ANC's #32, #36, #18, ...

........................................................................
.............................. CYCLE   26 ..............................
........................................................................
   1   -553.3961200 -0.553396E+03  0.436E-02    0.00       0.0  T
   2   -553.0656907  0.330429E+00  0.713E-01    0.16       1.0  T
   3   -553.3406671 -0.274976E+00  0.276E-01    0.04       1.0  T
   4   -553.3970628 -0.563957E-01  0.191E-02    0.00       1.0  T
   5   -553.3752005  0.218623E-01  0.191E-01    0.02       1.0  T
   6   -553.3971880 -0.219876E-01  0.120E-02    0.00       1.0  T
   7   -553.3972673 -0.792347E-04  0.587E-03    0.00       1.0  T
   8   -553.3972658  0.146662E-05  0.608E-03    0.00       1.0  T
   9   -553.3972827 -0.168745E-04  0.303E-03    0.00       2.0  T
  10   -553.3972843 -0.160977E-05  0.265E-03    0.00       2.3  T
  11   -553.3972888 -0.452562E-05  0.389E-04    0.00      15.8  T
  12   -553.3972888  0.210119E-07  0.416E-04    0.00      14.7  T
  13   -553.3972889 -0.103892E-06  0.140E-04    0.00      43.7  T
  14   -553.3972889  0.275224E-08  0.152E-04    0.00      40.5  T
     SCC iter.                  ...        0 min,  4.475 sec
     gradient                   ...        0 min,  0.734 sec
 * total energy  :  -546.2779401 Eh     change       -0.2088163E-02 Eh
   gradient norm :     0.0263158 Eh/α   predicted    -0.2414036E-02 (  15.61%)
   displ. norm   :     0.6913466 α      lambda       -0.3347878E-02
   maximum displ.:     0.4289919 α      in ANC's #32, #36, #18, ...

........................................................................
.............................. CYCLE   27 ..............................
........................................................................
   1   -553.4035115 -0.553404E+03  0.375E-02    0.00       0.0  T
   2   -553.0852235  0.318288E+00  0.700E-01    0.16       1.0  T
   3   -553.3838760 -0.298653E+00  0.169E-01    0.01       1.0  T
   4   -553.4038888 -0.200128E-01  0.260E-02    0.00       1.0  T
   5   -553.3863996  0.174892E-01  0.168E-01    0.00       1.0  T
   6   -553.4043597 -0.179601E-01  0.608E-03    0.00       1.0  T
   7   -553.4043725 -0.128167E-04  0.436E-03    0.00       1.4  T
   8   -553.4043755 -0.292165E-05  0.384E-03    0.00       1.6  T
   9   -553.4043825 -0.701587E-05  0.186E-03    0.00       3.3  T
  10   -553.4043835 -0.988696E-06  0.138E-03    0.00       4.4  T
  11   -553.4043847 -0.120854E-05  0.200E-04    0.00      30.7  T
  12   -553.4043847  0.254481E-07  0.284E-04    0.00      21.6  T
  13   -553.4043847 -0.520961E-07  0.495E-05    0.00     123.8  T
  14   -553.4043847  0.603745E-08  0.108E-04    0.00      56.8  T
     SCC iter.                  ...        0 min,  4.477 sec
     gradient                   ...        0 min,  0.733 sec
 * total energy  :  -546.2802461 Eh     change       -0.2305942E-02 Eh
   gradient norm :     0.0266039 Eh/α   predicted    -0.2474014E-02 (   7.29%)
   displ. norm   :     0.6628187 α      lambda       -0.2681589E-02
   maximum displ.:     0.4151747 α      in ANC's #32, #36, #18, ...

........................................................................
.............................. CYCLE   28 ..............................
........................................................................
   1   -553.4171815 -0.553417E+03  0.292E-02    0.00       0.0  T
   2   -553.1592483  0.257933E+00  0.631E-01    0.11       1.0  T
   3   -553.3965546 -0.237306E+00  0.171E-01    0.01       1.0  T
   4   -553.4172280 -0.206733E-01  0.256E-02    0.00       1.0  T
   5   -553.4011855  0.160424E-01  0.164E-01    0.00       1.0  T
   6   -553.4176726 -0.164871E-01  0.663E-03    0.00       1.0  T
   7   -553.4176933 -0.207503E-04  0.411E-03    0.00       1.5  T
   8   -553.4176987 -0.539994E-05  0.296E-03    0.00       2.1  T
   9   -553.4177034 -0.465581E-05  0.102E-03    0.00       6.0  T
  10   -553.4177035 -0.145725E-06  0.952E-04    0.00       6.4  T
  11   -553.4177041 -0.552999E-06  0.294E-04    0.00      20.8  T
  12   -553.4177041 -0.253966E-07  0.209E-04    0.00      29.4  T
  13   -553.4177041 -0.264714E-07  0.752E-05    0.00      81.5  T
  14   -553.4177042 -0.217437E-08  0.513E-05    0.00     119.6  T
     SCC iter.                  ...        0 min,  4.478 sec
     gradient                   ...        0 min,  0.732 sec
 * total energy  :  -546.2824962 Eh     change       -0.2250125E-02 Eh
   gradient norm :     0.0128332 Eh/α   predicted    -0.1929847E-02 ( -14.23%)
   displ. norm   :     0.8077471 α      lambda       -0.2529460E-02
   maximum displ.:     0.5079945 α      in ANC's #32, #36, #18, ...

........................................................................
.............................. CYCLE   29 ..............................
........................................................................
   1   -553.4301994 -0.553430E+03  0.307E-02    0.00       0.0  T
   2   -553.1886139  0.241586E+00  0.610E-01    0.09       1.0  T
   3   -553.3874867 -0.198873E+00  0.244E-01    0.01       1.0  T
   4   -553.4305143 -0.430276E-01  0.209E-02    0.00       1.0  T
   5   -553.4182345  0.122798E-01  0.143E-01    0.00       1.0  T
   6   -553.4307649 -0.125304E-01  0.627E-03    0.00       1.0  T
   7   -553.4307825 -0.176043E-04  0.432E-03    0.00       1.4  T
   8   -553.4307896 -0.709343E-05  0.278E-03    0.00       2.2  T
   9   -553.4307922 -0.266654E-05  0.169E-03    0.00       3.6  T
  10   -553.4307939 -0.160833E-05  0.823E-04    0.00       7.4  T
  11   -553.4307943 -0.438340E-06  0.232E-04    0.00      26.4  T
  12   -553.4307943  0.104271E-07  0.263E-04    0.00      23.3  T
  13   -553.4307943 -0.455722E-07  0.628E-05    0.00      97.7  T
  14   -553.4307943  0.124385E-08  0.754E-05    0.00      81.3  T
     SCC iter.                  ...        0 min,  4.480 sec
     gradient                   ...        0 min,  0.745 sec
 * total energy  :  -546.2845691 Eh     change       -0.2072904E-02 Eh
   gradient norm :     0.0083428 Eh/α   predicted    -0.2089912E-02 (   0.82%)
   displ. norm   :     0.8428501 α      lambda       -0.2405721E-02
   maximum displ.:     0.5316725 α      in ANC's #32, #36, #18, ...

........................................................................
.............................. CYCLE   30 ..............................
........................................................................
   1   -553.4410783 -0.553441E+03  0.294E-02    0.00       0.0  T
   2   -553.2430874  0.197991E+00  0.550E-01    0.05       1.0  T
   3   -553.4087702 -0.165683E+00  0.215E-01    0.01       1.0  T
   4   -553.4413968 -0.326266E-01  0.193E-02    0.00       1.0  T
   5   -553.4296941  0.117027E-01  0.138E-01    0.00       1.0  T
   6   -553.4416171 -0.119230E-01  0.495E-03    0.00       1.2  T
   7   -553.4416225 -0.542023E-05  0.462E-03    0.00       1.3  T
   8   -553.4416309 -0.837041E-05  0.276E-03    0.00       2.2  T
   9   -553.4416310 -0.138782E-06  0.251E-03    0.00       2.4  T
  10   -553.4416353 -0.425647E-05  0.668E-04    0.00       9.2  T
  11   -553.4416354 -0.966661E-07  0.566E-04    0.00      10.8  T
  12   -553.4416356 -0.182625E-06  0.241E-04    0.00      25.5  T
  13   -553.4416356 -0.147858E-07  0.193E-04    0.00      31.8  T
  14   -553.4416356 -0.214270E-07  0.802E-05    0.00      76.4  T
     SCC iter.                  ...        0 min,  4.502 sec
     gradient                   ...        0 min,  0.801 sec
 * total energy  :  -546.2864793 Eh     change       -0.1910217E-02 Eh
   gradient norm :     0.0099502 Eh/α   predicted    -0.2057368E-02 (   7.70%)
   displ. norm   :     0.8242017 α      lambda       -0.1811907E-02
   maximum displ.:     0.5197781 α      in ANC's #32, #36, #18, ...

........................................................................
.............................. CYCLE   31 ..............................
........................................................................
   1   -553.4504653 -0.553450E+03  0.292E-02    0.00       0.0  T
   2   -553.2726687  0.177797E+00  0.513E-01    0.02       1.0  T
   3   -553.4467642 -0.174095E+00  0.821E-02    0.01       1.0  T
   4   -553.4505099 -0.374568E-02  0.284E-02    0.00       1.0  T
   5   -553.4349163  0.155936E-01  0.153E-01    0.01       1.0  T
   6   -553.4510227 -0.161064E-01  0.307E-03    0.00       2.0  T
   7   -553.4510103  0.123933E-04  0.542E-03    0.00       1.1  T
   8   -553.4510251 -0.147579E-04  0.245E-03    0.00       2.5  T
   9   -553.4510221  0.300107E-05  0.307E-03    0.00       2.0  T
  10   -553.4510287 -0.661999E-05  0.537E-04    0.00      11.4  T
  11   -553.4510283  0.388478E-06  0.893E-04    0.00       6.9  T
  12   -553.4510288 -0.541981E-06  0.158E-04    0.00      38.8  T
  13   -553.4510288  0.332108E-07  0.268E-04    0.00      22.9  T
  14   -553.4510288 -0.490680E-07  0.439E-05    0.00     139.5  T
     SCC iter.                  ...        0 min,  4.506 sec
     gradient                   ...        0 min,  0.743 sec
 * total energy  :  -546.2880801 Eh     change       -0.1600783E-02 Eh
   gradient norm :     0.0110124 Eh/α   predicted    -0.1521375E-02 (  -4.96%)
   displ. norm   :     0.8047153 α      lambda       -0.1611752E-02
   maximum displ.:     0.5002164 α      in ANC's #32, #36, #18, ...

........................................................................
.............................. CYCLE   32 ..............................
........................................................................
   1   -553.4682398 -0.553468E+03  0.242E-02    0.00       0.0  T
   2   -553.2376127  0.230627E+00  0.562E-01    0.06       1.0  T
   3   -553.4412889 -0.203676E+00  0.205E-01    0.02       1.0  T
   4   -553.4683952 -0.271063E-01  0.191E-02    0.00       1.0  T
   5   -553.4572203  0.111750E-01  0.138E-01    0.02       1.0  T
   6   -553.4686288 -0.114085E-01  0.365E-03    0.00       1.7  T
   7   -553.4686339 -0.510735E-05  0.238E-03    0.00       2.6  T
   8   -553.4686349 -0.106834E-05  0.200E-03    0.00       3.1  T
   9   -553.4686368 -0.183566E-05  0.993E-04    0.00       6.2  T
  10   -553.4686373 -0.497376E-06  0.538E-04    0.00      11.4  T
  11   -553.4686375 -0.195800E-06  0.155E-04    0.00      39.6  T
  12   -553.4686375  0.200794E-08  0.159E-04    0.00      38.5  T
     SCC iter.                  ...        0 min,  3.845 sec
     gradient                   ...        0 min,  0.757 sec
 * total energy  :  -546.2894168 Eh     change       -0.1336688E-02 Eh
   gradient norm :     0.0064967 Eh/α   predicted    -0.1327740E-02 (  -0.67%)
   displ. norm   :     0.8466841 α      lambda       -0.1343866E-02
   maximum displ.:     0.5227330 α      in ANC's #32, #36, #18, ...

........................................................................
.............................. CYCLE   33 ..............................
........................................................................
   1   -553.4696877 -0.553470E+03  0.329E-02    0.00       0.0  T
   2   -553.2811675  0.188520E+00  0.522E-01    0.01       1.0  T
   3   -553.4545124 -0.173345E+00  0.152E-01    0.00       1.0  T
   4   -553.4691137 -0.146013E-01  0.421E-02    0.00       1.0  T
   5   -553.4584259  0.106878E-01  0.141E-01    0.00       1.0  T
   6   -553.4703433 -0.119173E-01  0.906E-03    0.00       1.0  T
   7   -553.4703621 -0.188441E-04  0.677E-03    0.00       1.0  T
   8   -553.4703848 -0.226604E-04  0.332E-03    0.00       1.8  T
   9   -553.4703737  0.111047E-04  0.509E-03    0.00       1.2  T
  10   -553.4703907 -0.170693E-04  0.116E-03    0.00       5.3  T
  11   -553.4703906  0.156549E-06  0.117E-03    0.00       5.2  T
  12   -553.4703915 -0.925087E-06  0.226E-04    0.00      27.1  T
  13   -553.4703915  0.127754E-07  0.268E-04    0.00      22.9  T
  14   -553.4703915 -0.471732E-07  0.442E-05    0.00     138.6  T
  15   -553.4703915 -0.125749E-08  0.530E-06    0.00    1156.6  T
     SCC iter.                  ...        0 min,  4.803 sec
     gradient                   ...        0 min,  0.735 sec
 * total energy  :  -546.2904556 Eh     change       -0.1038790E-02 Eh
   gradient norm :     0.0146422 Eh/α   predicted    -0.1153629E-02 (  11.06%)
   displ. norm   :     0.7142463 α      lambda       -0.9664667E-03
   maximum displ.:     0.4237319 α      in ANC's #32, #36, #18, ...

........................................................................
.............................. CYCLE   34 ..............................
........................................................................
   1   -553.4798812 -0.553480E+03  0.224E-02    0.00       0.0  T
   2   -553.3115334  0.168348E+00  0.490E-01    0.01       1.0  T
   3   -553.4704563 -0.158923E+00  0.119E-01    0.00       1.0  T
   4   -553.4795111 -0.905479E-02  0.318E-02    0.00       1.0  T
   5   -553.4772757  0.223532E-02  0.702E-02    0.00       1.0  T
   6   -553.4801920 -0.291627E-02  0.513E-03    0.00       1.2  T
   7   -553.4802055 -0.134488E-04  0.188E-03    0.00       3.3  T
   8   -553.4802054  0.833925E-07  0.188E-03    0.00       3.3  T
   9   -553.4802071 -0.175956E-05  0.813E-04    0.00       7.5  T
  10   -553.4802073 -0.143652E-06  0.661E-04    0.00       9.3  T
  11   -553.4802076 -0.280128E-06  0.211E-04    0.00      29.1  T
  12   -553.4802076 -0.104383E-07  0.156E-04    0.00      39.3  T
  13   -553.4802076 -0.149337E-07  0.530E-05    0.00     115.7  T
     SCC iter.                  ...        0 min,  4.161 sec
     gradient                   ...        0 min,  0.735 sec
 * total energy  :  -546.2912658 Eh     change       -0.8101655E-03 Eh
   gradient norm :     0.0094828 Eh/α   predicted    -0.7297607E-03 (  -9.92%)
   displ. norm   :     0.6939942 α      lambda       -0.7637997E-03
   maximum displ.:     0.3934657 α      in ANC's #32, #36, #18, ...

........................................................................
.............................. CYCLE   35 ..............................
........................................................................
   1   -553.4887291 -0.553489E+03  0.205E-02    0.00       0.0  T
   2   -553.3373834  0.151346E+00  0.469E-01    0.00       1.0  T
   3   -553.4844597 -0.147076E+00  0.811E-02    0.00       1.0  T
   4   -553.4877289 -0.326918E-02  0.429E-02    0.00       1.0  T
   5   -553.4808576  0.687129E-02  0.116E-01    0.00       1.0  T
   6   -553.4889853 -0.812776E-02  0.451E-03    0.00       1.4  T
   7   -553.4889950 -0.964138E-05  0.211E-03    0.00       2.9  T
   8   -553.4889964 -0.138877E-05  0.154E-03    0.00       4.0  T
   9   -553.4889976 -0.120167E-05  0.590E-04    0.00      10.4  T
  10   -553.4889976 -0.511434E-07  0.499E-04    0.00      12.3  T
  11   -553.4889978 -0.137871E-06  0.239E-04    0.00      25.6  T
  12   -553.4889978 -0.314857E-07  0.827E-05    0.00      74.2  T
  13   -553.4889978 -0.131479E-08  0.686E-05    0.00      89.4  T
     SCC iter.                  ...        0 min,  4.160 sec
     gradient                   ...        0 min,  0.739 sec
 * total energy  :  -546.2918779 Eh     change       -0.6121262E-03 Eh
   gradient norm :     0.0064642 Eh/α   predicted    -0.5658404E-03 (  -7.56%)
   displ. norm   :     0.6986675 α      lambda       -0.6135118E-03
   maximum displ.:     0.3716813 α      in ANC's #32, #36, #18, ...

........................................................................
.............................. CYCLE   36 ..............................
........................................................................
   1   -553.4932413 -0.553493E+03  0.301E-02    0.00       0.0  T
   2   -553.2421486  0.251093E+00  0.624E-01    0.09       1.0  T
   3   -553.4653275 -0.223179E+00  0.198E-01    0.03       1.0  T
   4   -553.4935014 -0.281739E-01  0.208E-02    0.00       1.0  T
   5   -553.4762953  0.172061E-01  0.171E-01    0.02       1.0  T
   6   -553.4937875 -0.174923E-01  0.605E-03    0.00       1.0  T
   7   -553.4938080 -0.204292E-04  0.239E-03    0.00       2.6  T
   8   -553.4938095 -0.153268E-05  0.188E-03    0.00       3.3  T
   9   -553.4938106 -0.109625E-05  0.126E-03    0.00       4.9  T
  10   -553.4938109 -0.341004E-06  0.105E-03    0.00       5.8  T
  11   -553.4938116 -0.693337E-06  0.263E-04    0.00      23.3  T
  12   -553.4938117 -0.288222E-07  0.147E-04    0.00      41.7  T
  13   -553.4938117 -0.134994E-07  0.428E-05    0.00     143.3  T
     SCC iter.                  ...        0 min,  4.156 sec
     gradient                   ...        0 min,  0.730 sec
 * total energy  :  -546.2923163 Eh     change       -0.4384466E-03 Eh
   gradient norm :     0.0085410 Eh/α   predicted    -0.4564985E-03 (   4.12%)
   displ. norm   :     0.5780813 α      lambda       -0.4041757E-03
   maximum displ.:     0.2937094 α      in ANC's #18, #32, #36, ...

........................................................................
.............................. CYCLE   37 ..............................
........................................................................
   1   -553.4975115 -0.553498E+03  0.181E-02    0.00       0.0  T
   2   -553.3571451  0.140366E+00  0.458E-01    0.02       1.0  T
   3   -553.4975389 -0.140394E+00  0.165E-02    0.00       1.0  T
   4   -553.4878969  0.964202E-02  0.118E-01    0.00       1.0  T
   5   -553.4965865 -0.868955E-02  0.427E-02    0.00       1.0  T
   6   -553.4977076 -0.112108E-02  0.522E-03    0.00       1.2  T
   7   -553.4977222 -0.146019E-04  0.166E-03    0.00       3.7  T
   8   -553.4977236 -0.146288E-05  0.796E-04    0.00       7.7  T
   9   -553.4977238 -0.201603E-06  0.429E-04    0.00      14.3  T
  10   -553.4977239 -0.790360E-07  0.262E-04    0.00      23.4  T
  11   -553.4977239 -0.450516E-07  0.871E-05    0.00      70.4  T
  12   -553.4977240 -0.407761E-08  0.342E-05    0.00     179.1  T
     SCC iter.                  ...        0 min,  3.834 sec
     gradient                   ...        0 min,  0.735 sec
 * total energy  :  -546.2926187 Eh     change       -0.3023935E-03 Eh
   gradient norm :     0.0050473 Eh/α   predicted    -0.2696266E-03 ( -10.84%)
   displ. norm   :     0.4799182 α      lambda       -0.2711201E-03
   maximum displ.:     0.2858795 α      in ANC's #18, #36, #32, ...

........................................................................
.............................. CYCLE   38 ..............................
........................................................................
   1   -553.5030864 -0.553503E+03  0.163E-02    0.00       0.0  T
   2   -553.3669278  0.136159E+00  0.457E-01    0.04       1.0  T
   3   -553.5026180 -0.135690E+00  0.294E-02    0.00       1.0  T
   4   -553.4990125  0.360558E-02  0.758E-02    0.00       1.0  T
   5   -553.5031671 -0.415468E-02  0.120E-02    0.00       1.0  T
   6   -553.5031554  0.117047E-04  0.129E-02    0.00       1.0  T
   7   -553.5032520 -0.965732E-04  0.986E-04    0.00       6.2  T
   8   -553.5032525 -0.504255E-06  0.474E-04    0.00      12.9  T
   9   -553.5032526 -0.631906E-07  0.186E-04    0.00      33.0  T
  10   -553.5032526 -0.141666E-07  0.124E-04    0.00      49.5  T
     SCC iter.                  ...        0 min,  3.206 sec
     gradient                   ...        0 min,  0.753 sec
 * total energy  :  -546.2928078 Eh     change       -0.1890316E-03 Eh
   gradient norm :     0.0055930 Eh/α   predicted    -0.1667861E-03 ( -11.77%)
   displ. norm   :     0.4413859 α      lambda       -0.2242449E-03
   maximum displ.:     0.2673003 α      in ANC's #18, #36, #20, ...

........................................................................
.............................. CYCLE   39 ..............................
........................................................................
   1   -553.5041006 -0.553504E+03  0.166E-02    0.00       0.0  T
   2   -553.3810125  0.123088E+00  0.426E-01    0.02       1.0  T
   3   -553.5033736 -0.122361E+00  0.395E-02    0.00       1.0  T
   4   -553.5032345  0.139081E-03  0.423E-02    0.00       1.0  T
   5   -553.5041040 -0.869518E-03  0.159E-02    0.00       1.0  T
   6   -553.5042258 -0.121758E-03  0.876E-03    0.00       1.0  T
   7   -553.5042813 -0.554893E-04  0.948E-04    0.00       6.5  T
   8   -553.5042816 -0.361491E-06  0.537E-04    0.00      11.4  T
   9   -553.5042815  0.119063E-06  0.609E-04    0.00      10.1  T
  10   -553.5042817 -0.213268E-06  0.268E-04    0.00      22.9  T
  11   -553.5042818 -0.513019E-07  0.414E-05    0.00     148.1  T
  12   -553.5042818  0.943601E-10  0.424E-05    0.00     144.5  T
     SCC iter.                  ...        0 min,  3.864 sec
     gradient                   ...        0 min,  0.751 sec
 * total energy  :  -546.2929629 Eh     change       -0.1551204E-03 Eh
   gradient norm :     0.0058649 Eh/α   predicted    -0.1339676E-03 ( -13.64%)
   displ. norm   :     0.3828833 α      lambda       -0.2178595E-03
   maximum displ.:     0.2574825 α      in ANC's #18, #20, #36, ...

........................................................................
.............................. CYCLE   40 ..............................
........................................................................
   1   -553.5046440 -0.553505E+03  0.104E-02    0.00       0.0  T
   2   -553.4318515  0.727926E-01  0.328E-01    0.01       1.0  T
   3   -553.5044874 -0.726359E-01  0.180E-02    0.00       1.0  T
   4   -553.5012608  0.322657E-02  0.693E-02    0.01       1.0  T
   5   -553.5047088 -0.344794E-02  0.290E-03    0.00       2.1  T
   6   -553.5046620  0.467006E-04  0.947E-03    0.00       1.0  T
   7   -553.5047106 -0.485798E-04  0.257E-03    0.00       2.4  T
   8   -553.5047144 -0.380313E-05  0.314E-04    0.00      19.5  T
   9   -553.5047144 -0.299826E-08  0.176E-04    0.00      34.9  T
  10   -553.5047145 -0.207117E-07  0.932E-05    0.00      65.8  T
     SCC iter.                  ...        0 min,  3.223 sec
     gradient                   ...        0 min,  0.751 sec
 * total energy  :  -546.2931270 Eh     change       -0.1641566E-03 Eh
   gradient norm :     0.0071218 Eh/α   predicted    -0.1249027E-03 ( -23.91%)
   displ. norm   :     0.4936586 α      lambda       -0.3332101E-03
   maximum displ.:     0.3375438 α      in ANC's #18, #20, #34, ...

........................................................................
.............................. CYCLE   41 ..............................
........................................................................
   1   -553.5075029 -0.553508E+03  0.137E-02    0.00       0.0  T
   2   -553.3830571  0.124446E+00  0.415E-01    0.02       1.0  T
   3   -553.5046612 -0.121604E+00  0.673E-02    0.01       1.0  T
[...]
    28   6 C       29   7 N                                       1.3686660
    28   6 C       30   6 C                                       1.3967208
    31   6 C       32   6 C                                       1.3969821
    32   6 C       33   6 C                                       1.3852560
    33   6 C       34   6 C                                       1.3853644
    34   6 C       35  16 S                                       1.7534590
    35  16 S       36   8 O                                       1.4340022
    35  16 S       37   8 O                                       1.6247219
    35  16 S       38   8 O                                       1.4323507
    34   6 C       39   6 C                                       1.3855002
    31   6 C       40   6 C                                       1.3972291
    39   6 C       40   6 C                                       1.3850453
    30   6 C       41   6 C                                       1.3965875
    41   6 C       42   6 C                                       1.4383720
    42   6 C       43   6 C                                       1.3555883
     2   6 C       44   6 C                                       1.3865483
    43   6 C       44   6 C                                       1.4353759
    41   6 C       45   7 N                                       1.3649052
    44   6 C       45   7 N                                       1.3659967
     2   6 C       46   1 H                                       1.0850400
     4   6 C       47   1 H                                       1.0785187
     5   6 C       48   1 H                                       1.0781175
    10   6 C       49   1 H                                       1.0837596
    11   6 C       50   1 H                                       1.0827651
    15   8 O       51   1 H                                       0.9649268
    17   6 C       52   1 H                                       1.0827556
    18   6 C       53   1 H                                       1.0837896
    20   6 C       54   1 H                                       1.0779351
    21   6 C       55   1 H                                       1.0781908
    26   6 C       56   1 H                                       1.0782196
    27   6 C       57   1 H                                       1.0779511
    32   6 C       58   1 H                                       1.0837586
    33   6 C       59   1 H                                       1.0827385
    37   8 O       60   1 H                                       0.9649284
    39   6 C       61   1 H                                       1.0827807
    40   6 C       62   1 H                                       1.0837822
    42   6 C       63   1 H                                       1.0780922
    43   6 C       64   1 H                                       1.0784969
    66   6 C       67   6 C                                       1.3863706
    67   6 C       68   6 C                                       1.4351886
    68   6 C       69   6 C                                       1.3556231
    69   6 C       70   6 C                                       1.4380913
    67   6 C       71   7 N                                       1.3661558
    70   6 C       71   7 N                                       1.3651068
    70   6 C       72   6 C                                       1.3962610
    73   6 C       74   6 C                                       1.3969216
    74   6 C       75   6 C                                       1.3852740
    75   6 C       76   6 C                                       1.3853630
    76   6 C       77  16 S                                       1.7533294
    77  16 S       78   8 O                                       1.4331394
    77  16 S       79   8 O                                       1.6244243
    77  16 S       80   8 O                                       1.4335622
    76   6 C       81   6 C                                       1.3854531
    73   6 C       82   6 C                                       1.3970784
    81   6 C       82   6 C                                       1.3851247
    72   6 C       83   6 C                                       1.3963582
    83   6 C       84   6 C                                       1.4359187
    84   6 C       85   6 C                                       1.3566468
    83   6 C       86   7 N                                       1.3689523
    85   6 C       87   6 C                                       1.4323097
    86   7 N       87   6 C                                       1.3622122
    87   6 C       88   6 C                                       1.4039765
    88   6 C       89   6 C                                       1.4038371
    89   6 C       90   6 C                                       1.4324050
    90   6 C       91   6 C                                       1.3567306
    91   6 C       92   6 C                                       1.4358795
    89   6 C       93   7 N                                       1.3619568
    92   6 C       93   7 N                                       1.3690842
    92   6 C       94   6 C                                       1.3963720
    95   6 C       96   6 C                                       1.3970216
    96   6 C       97   6 C                                       1.3851756
    97   6 C       98   6 C                                       1.3853685
    98   6 C       99  16 S                                       1.7535848
    99  16 S      100   8 O                                       1.4339529
    99  16 S      101   8 O                                       1.6245533
    99  16 S      102   8 O                                       1.4323151
    98   6 C      103   6 C                                       1.3854711
    95   6 C      104   6 C                                       1.3970707
   103   6 C      104   6 C                                       1.3851819
    94   6 C      105   6 C                                       1.3964124
   105   6 C      106   6 C                                       1.4382375
   106   6 C      107   6 C                                       1.3555477
    66   6 C      108   6 C                                       1.3863551
   107   6 C      108   6 C                                       1.4351802
   105   6 C      109   7 N                                       1.3650453
   108   6 C      109   7 N                                       1.3661892
    66   6 C      110   1 H                                       1.0850025
    68   6 C      111   1 H                                       1.0785034
    69   6 C      112   1 H                                       1.0781108
    74   6 C      113   1 H                                       1.0837703
    75   6 C      114   1 H                                       1.0827579
    79   8 O      115   1 H                                       0.9649297
    81   6 C      116   1 H                                       1.0827539
    82   6 C      117   1 H                                       1.0837740
    84   6 C      118   1 H                                       1.0778940
    85   6 C      119   1 H                                       1.0781681
    90   6 C      120   1 H                                       1.0781961
    91   6 C      121   1 H                                       1.0779361
    96   6 C      122   1 H                                       1.0837611
    97   6 C      123   1 H                                       1.0827384
   101   8 O      124   1 H                                       0.9649417
   103   6 C      125   1 H                                       1.0827894
   104   6 C      126   1 H                                       1.0837680
   106   6 C      127   1 H                                       1.0780734
   107   6 C      128   1 H                                       1.0784849
   129   6 C      130   6 C                                       1.2206282
   131   6 C      132   6 C                                       1.2207450
   133   6 C      134   6 C                                       1.2219129
   135   6 C      136   6 C                                       1.2219102
   137   6 C      138   6 C                                       1.2207242
   139   6 C      140   6 C                                       1.2206102
   142   6 C      143   6 C                                       1.4047728
   143   6 C      144   6 C                                       1.4325868
   144   6 C      145   6 C                                       1.3569944
   145   6 C      146   6 C                                       1.4358357
   143   6 C      147   7 N                                       1.3612034
   146   6 C      147   7 N                                       1.3683747
   146   6 C      148   6 C                                       1.3967089
   149   6 C      150   6 C                                       1.3969670
   150   6 C      151   6 C                                       1.3851858
   151   6 C      152   6 C                                       1.3853707
   152   6 C      153  16 S                                       1.7534814
   153  16 S      154   8 O                                       1.4340387
   153  16 S      155   8 O                                       1.6243153
   153  16 S      156   8 O                                       1.4323209
   152   6 C      157   6 C                                       1.3854928
   149   6 C      158   6 C                                       1.3970999
   157   6 C      158   6 C                                       1.3851174
   148   6 C      159   6 C                                       1.3963358
   159   6 C      160   6 C                                       1.4357184
   160   6 C      161   6 C                                       1.3571519
   159   6 C      162   7 N                                       1.3690284
   161   6 C      163   6 C                                       1.4323162
   162   7 N      163   6 C                                       1.3603213
   163   6 C      164   6 C                                       1.4062645
   164   6 C      165   6 C                                       1.4063023
   165   6 C      166   6 C                                       1.4322985
   166   6 C      167   6 C                                       1.3571430
   167   6 C      168   6 C                                       1.4357559
   165   6 C      169   7 N                                       1.3603391
   168   6 C      169   7 N                                       1.3689785
   168   6 C      170   6 C                                       1.3963923
   171   6 C      172   6 C                                       1.3970199
   172   6 C      173   6 C                                       1.3851465
   173   6 C      174   6 C                                       1.3853796
   174   6 C      175  16 S                                       1.7534045
   175  16 S      176   8 O                                       1.4340285
   175  16 S      177   8 O                                       1.6245424
   175  16 S      178   8 O                                       1.4323861
   174   6 C      179   6 C                                       1.3855174
   171   6 C      180   6 C                                       1.3970786
   179   6 C      180   6 C                                       1.3851334
   170   6 C      181   6 C                                       1.3967099
   181   6 C      182   6 C                                       1.4358238
   182   6 C      183   6 C                                       1.3570621
   142   6 C      184   6 C                                       1.4047045
   183   6 C      184   6 C                                       1.4325503
   181   6 C      185   7 N                                       1.3683819
   184   6 C      185   7 N                                       1.3611681
   144   6 C      186   1 H                                       1.0781932
   145   6 C      187   1 H                                       1.0779583
   150   6 C      188   1 H                                       1.0837484
   151   6 C      189   1 H                                       1.0827316
   155   8 O      190   1 H                                       0.9649449
   157   6 C      191   1 H                                       1.0827865
   158   6 C      192   1 H                                       1.0837721
   160   6 C      193   1 H                                       1.0779342
   161   6 C      194   1 H                                       1.0782060
   166   6 C      195   1 H                                       1.0782016
   167   6 C      196   1 H                                       1.0779298
   172   6 C      197   1 H                                       1.0837572
   173   6 C      198   1 H                                       1.0827282
   177   8 O      199   1 H                                       0.9649240 (min)
   179   6 C      200   1 H                                       1.0827838
   180   6 C      201   1 H                                       1.0837661
   182   6 C      202   1 H                                       1.0779766
   183   6 C      203   1 H                                       1.0782184
   205   6 C      206   6 C                                       1.4061157
   206   6 C      207   6 C                                       1.4322387
   207   6 C      208   6 C                                       1.3571491
   208   6 C      209   6 C                                       1.4355371
   206   6 C      210   7 N                                       1.3604716
   209   6 C      210   7 N                                       1.3691997
   209   6 C      211   6 C                                       1.3960789
   212   6 C      213   6 C                                       1.3968906
   213   6 C      214   6 C                                       1.3852384
   214   6 C      215   6 C                                       1.3853013
   215   6 C      216  16 S                                       1.7538083 (max)
   216  16 S      217   8 O                                       1.4341079
   216  16 S      218   8 O                                       1.6237264
   216  16 S      219   8 O                                       1.4321712
   215   6 C      220   6 C                                       1.3855000
   212   6 C      221   6 C                                       1.3970193
   220   6 C      221   6 C                                       1.3851737
   211   6 C      222   6 C                                       1.3965055
   222   6 C      223   6 C                                       1.4357529
   223   6 C      224   6 C                                       1.3568782
   222   6 C      225   7 N                                       1.3686736
   224   6 C      226   6 C                                       1.4324822
   225   7 N      226   6 C                                       1.3613419
   226   6 C      227   6 C                                       1.4046297
   227   6 C      228   6 C                                       1.4044675
   228   6 C      229   6 C                                       1.4324527
   229   6 C      230   6 C                                       1.3569141
   230   6 C      231   6 C                                       1.4357542
   228   6 C      232   7 N                                       1.3613531
   231   6 C      232   7 N                                       1.3685947
   231   6 C      233   6 C                                       1.3965251
   234   6 C      235   6 C                                       1.3968955
   235   6 C      236   6 C                                       1.3852527
   236   6 C      237   6 C                                       1.3853058
   237   6 C      238  16 S                                       1.7537355
   238  16 S      239   8 O                                       1.4341118
   238  16 S      240   8 O                                       1.6237613
   238  16 S      241   8 O                                       1.4322329
   237   6 C      242   6 C                                       1.3854864
   234   6 C      243   6 C                                       1.3970252
   242   6 C      243   6 C                                       1.3851524
   233   6 C      244   6 C                                       1.3960865
   244   6 C      245   6 C                                       1.4355926
   245   6 C      246   6 C                                       1.3571183
   205   6 C      247   6 C                                       1.4061687
   246   6 C      247   6 C                                       1.4322280
   244   6 C      248   7 N                                       1.3692218
   247   6 C      248   7 N                                       1.3604509
   207   6 C      249   1 H                                       1.0782116
   208   6 C      250   1 H                                       1.0779493
   213   6 C      251   1 H                                       1.0837551
   214   6 C      252   1 H                                       1.0827259
   218   8 O      253   1 H                                       0.9650045
   220   6 C      254   1 H                                       1.0827978
   221   6 C      255   1 H                                       1.0837690
   223   6 C      256   1 H                                       1.0779078
   224   6 C      257   1 H                                       1.0781650
   229   6 C      258   1 H                                       1.0781805
   230   6 C      259   1 H                                       1.0779169
   235   6 C      260   1 H                                       1.0837528
   236   6 C      261   1 H                                       1.0827315
   240   8 O      262   1 H                                       0.9649770
   242   6 C      263   1 H                                       1.0827899
   243   6 C      264   1 H                                       1.0837650
   245   6 C      265   1 H                                       1.0779384
   246   6 C      266   1 H                                       1.0782056

 * 6 distinct bonds (by element types)

   Z      Z             #   av. dist./Å        max./Å        min./Å
   1 H    6 C          66     1.0808247     1.0850400     1.0778940
   6 C    6 C         134     1.3908609     1.4383720     1.2206102
   6 C    7 N          32     1.3651506     1.3692218     1.3603213
   1 H    8 O           8     0.9649471     0.9650045     0.9649240
   6 C   16 S           8     1.7535002     1.7538083     1.7531984
   8 O   16 S          24     1.4969175     1.6247219     1.4321712


optimized geometry written to: xtbopt.xyz


           -------------------------------------------------
          | TOTAL ENERGY             -546.294934378579 Eh   |
          | GRADIENT NORM               0.000627154466 Eh/α |
          | HOMO-LUMO GAP               0.000612530135 eV   |
           -------------------------------------------------

------------------------------------------------------------------------
 * finished run on 2022/07/30 at 13:41:46.951     
------------------------------------------------------------------------
 total:
 * wall-time:     0 d,  0 h,  6 min, 12.210 sec
 *  cpu-time:     0 d,  0 h,  6 min, 10.634 sec
 * ratio c/w:     0.996 speedup
 SCF:
 * wall-time:     0 d,  0 h,  0 min, 20.377 sec
 *  cpu-time:     0 d,  0 h,  0 min, 20.290 sec
 * ratio c/w:     0.996 speedup
 ANC optimizer:
 * wall-time:     0 d,  0 h,  5 min, 51.540 sec
 *  cpu-time:     0 d,  0 h,  5 min, 50.057 sec
 * ratio c/w:     0.996 speedup

