154
 energy: -267.084419054502 gnorm: 7.683245132071 xtb: 6.5.1 (b24c23e)
Zn          23.82447800000000        0.02642500000000        0.02748600000000
C           20.45082100000000       -0.08320700000000       -0.08256700000000
C           21.12372700000000       -0.89799100000000       -0.90101900000000
C           20.49502600000000       -1.82841400000000       -1.83554600000000
C           21.45584900000000       -2.46972000000000       -2.47972900000000
C           22.73897100000000       -1.97601000000000       -1.98387400000000
N           22.54478500000000       -0.98044900000000       -0.98389600000000
C           23.92720900000000       -2.40688300000000       -2.41663500000000
C           25.22689400000000       -1.91546400000000       -1.92298800000000
C           26.50657600000000       -2.41365800000000       -2.42311200000000
C           27.46232600000000       -1.77241900000000       -1.77900100000000
N           25.38051200000000       -1.00652600000000       -1.01016800000000
C           26.79179999999999       -0.85667900000000       -0.85947900000000
C           27.40053000000000       -0.01026600000000       -0.00937800000000
C           26.65271600000000        0.89566500000000        0.90036000000000
C           27.22412100000000        1.74264900000000        1.75095900000000
C           26.16203000000000        2.44000800000000        2.45135700000000
C           25.01567200000000        1.97388600000000        1.98326600000000
N           25.22814600000000        0.97726800000000        0.98234200000000
C           23.70037800000000        2.44429200000000        2.45584700000000
C           22.53350400000000        1.98687100000000        1.99651600000000
C           21.22568800000000        2.43617500000000        2.44800000000000
C           20.34466000000000        1.74154000000000        1.75038500000000
C           21.09156900000000        0.85275000000000        0.85751400000000
N           22.37291800000000        0.98952900000000        0.99473400000000
H           19.36771000000000       -0.10573200000000       -0.10511900000000
H           19.43360900000000       -1.97812600000000       -1.98587300000000
H           21.30218400000000       -3.22569300000000       -3.23903200000000
H           23.94690700000000       -3.17136700000000       -3.18447600000000
H           26.65745600000000       -3.16978900000000       -3.18240700000000
H           28.52399900000000       -1.91920300000000       -1.92620000000000
H           28.28375200000000        1.89490000000000        1.90385400000000
H           26.28183800000000        3.19911700000000        3.21377200000000
H           23.68374700000000        3.20918200000000        3.22413700000000
H           21.00194900000000        3.18325500000000        3.19846800000000
H           19.26900300000000        1.82449500000000        1.83388200000000
Zn          65.09700100000001       -0.06221300000000       -0.00679200000000
C           68.47065799999999        0.09293900000000       -0.01444900000000
C           67.79775200000000        1.24639000000000       -0.07176400000000
C           68.42645300000000        2.56349000000000       -0.13715000000000
C           67.46563000000000        3.47135100000000       -0.18225500000000
C           66.18250800000000        2.77248100000000       -0.14758300000000
N           66.37669400000000        1.36315500000000       -0.07760000000000
C           64.99427000000000        3.38241200000000       -0.17785400000000
C           63.69458500000000        2.68672300000000       -0.14327400000000
C           62.41490300000000        3.39178300000000       -0.17808700000000
C           61.45915300000000        2.48402000000000       -0.13299200000000
N           63.54096699999999        1.40012300000000       -0.07949200000000
C           62.12967900000000        1.18787800000000       -0.06882700000000
C           61.52094900000000       -0.01026600000000       -0.00937800000000
C           62.26876299999999       -1.29256900000000        0.05414700000000
C           61.69735800000000       -2.49147200000000        0.11358000000000
C           62.75944900000000       -3.47862400000000        0.16256000000000
C           63.90580700000000       -2.81884300000000        0.12986800000000
N           63.69333300000000       -1.40809800000000        0.05989600000000
C           65.22110100000000       -3.48481400000000        0.16300000000000
C           66.38797500000000       -2.83736400000000        0.13093300000000
C           67.69579100000000       -3.47352900000000        0.16265500000000
C           68.57681800000000       -2.49026500000000        0.11390200000000
C           67.82991000000000       -1.23199300000000        0.05132300000000
N           66.54856100000001       -1.42550700000000        0.06081400000000
H           69.55376900000000        0.12477600000000       -0.01597900000000
H           69.48787000000000        2.77539100000000       -0.14763800000000
H           67.61929499999999        4.54149700000000       -0.23537800000000
H           64.97457199999999        4.46460100000000       -0.23156700000000
H           62.26402300000000        4.46204100000000       -0.23109900000000
H           60.39747999999999        2.69165100000000       -0.14313500000000
H           60.63772700000000       -2.70697900000000        0.12425900000000
H           62.63964100000000       -4.55318400000000        0.21587600000000
H           65.23773199999999       -4.56760400000000        0.21677200000000
H           67.91952999999999       -4.53115200000000        0.21522600000000
H           69.65247599999999       -2.60781500000000        0.11986200000000
C           30.95078500000000        0.00356200000000       -0.00654300000000
C           29.69851500000000       -0.01561900000000       -0.01089200000000
C           32.26445300000000        0.00279600000000       -0.00461100000000
C           33.76758700000000       -0.01561900000000       -0.01089200000000
C           43.71419299999999        0.00356200000000       -0.00654300000000
C           42.46192200000000       -0.01561900000000       -0.01089200000000
C           45.02786099999999        0.00279600000000       -0.00461100000000
C           46.53099400000000       -0.01561900000000       -0.01089200000000
C           56.47760000000000        0.00356200000000       -0.00654300000000
C           55.22532900000000       -0.01561900000000       -0.01089200000000
C           57.79126800000000        0.00279600000000       -0.00461100000000
C           59.29440200000000       -0.01561900000000       -0.01089200000000
Zn          38.04110500000000       -0.04098500000000       -0.03670000000000
C           34.60765300000000        0.01323700000000        0.01151300000000
C           35.27418600000000        0.88667100000000        0.78874400000000
C           34.64987299999999        1.87866100000000        1.67143300000000
C           35.60824499999999        2.55722800000000        2.27531000000000
C           36.88945400000000        2.03700000000000        1.81244300000000
N           36.69736300000000        0.98142200000000        0.87312900000000
C           38.07183900000000        2.50205100000000        2.22631900000000
C           39.38151400000000        1.99886400000000        1.77858600000000
C           40.64815700000000        2.54379200000000        2.26359500000000
C           41.62033700000000        1.87836000000000        1.67142800000000
N           39.55749099999999        1.03942300000000        0.92473100000000
C           40.97270600000000        0.90070200000000        0.80133000000000
C           41.60175500000000        0.01323700000000        0.01151300000000
C           40.87183199999999       -0.95229800000000       -0.84779200000000
C           41.45857500000000       -1.84309700000000       -1.64066500000000
C           40.40850399999999       -2.59042300000000       -2.30567200000000
C           39.25432400000000       -2.10703200000000       -1.87533900000000
N           39.44863500000000       -1.05090100000000       -0.93540600000000
C           37.94924600000000       -2.61701600000000       -2.32901200000000
C           36.77006300000000       -2.14934500000000       -1.91276200000000
C           35.48295099999999       -2.65129200000000       -2.35929100000000
C           34.57638200000000       -1.93565700000000       -1.72249600000000
C           35.28407200000000       -0.97325000000000       -0.86623800000000
N           36.57157700000000       -1.09533300000000       -0.97494300000000
H           33.59250300000000        2.04938500000000        1.82329800000000
H           35.45298099999999        3.35756100000000        2.98748400000000
H           38.07824799999999        3.31171600000000        2.94681400000000
H           40.77930200000000        3.34621200000000        2.97771400000000
H           42.67814100000000        2.04775000000000        1.82221600000000
H           42.52088000000000       -1.99419900000000       -1.77524200000000
H           40.54109499999999       -3.39300300000000       -3.01994600000000
H           37.95077500000000       -3.42713100000000       -3.04987400000000
H           35.28845000000000       -3.44676200000000       -3.06706000000000
H           33.50702000000000       -2.05663100000000       -1.83006900000000
Zn          50.80451200000000       -0.04098500000000       -0.03670000000000
C           47.37106000000000        0.01323700000000        0.01151300000000
C           48.03759400000000        0.88667100000000        0.78874400000000
C           47.41327999999999        1.87866100000000        1.67143300000000
C           48.37165199999999        2.55722800000000        2.27531000000000
C           49.65286200000000        2.03700000000000        1.81244300000000
N           49.46077100000000        0.98142200000000        0.87312900000000
C           50.83524599999999        2.50205100000000        2.22631900000000
C           52.14492100000000        1.99886400000000        1.77858600000000
C           53.41156400000000        2.54379200000000        2.26359500000000
C           54.38374400000000        1.87836000000000        1.67142800000000
N           52.32089799999999        1.03942300000000        0.92473100000000
C           53.73611400000000        0.90070200000000        0.80133000000000
C           54.36516300000000        0.01323700000000        0.01151300000000
C           53.63523899999999       -0.95229800000000       -0.84779200000000
C           54.22198199999999       -1.84309700000000       -1.64066500000000
C           53.17191099999999       -2.59042300000000       -2.30567200000000
C           52.01773100000000       -2.10703200000000       -1.87533900000000
N           52.21204200000000       -1.05090100000000       -0.93540600000000
C           50.71265300000000       -2.61701600000000       -2.32901200000000
C           49.53347000000000       -2.14934500000000       -1.91276200000000
C           48.24635799999999       -2.65129200000000       -2.35929100000000
C           47.33979000000000       -1.93565700000000       -1.72249600000000
C           48.04747900000000       -0.97325000000000       -0.86623800000000
N           49.33498400000000       -1.09533300000000       -0.97494300000000
H           46.35591099999999        2.04938500000000        1.82329800000000
H           48.21638899999999        3.35756100000000        2.98748400000000
H           50.84165500000000        3.31171600000000        2.94681400000000
H           53.54270900000000        3.34621200000000        2.97771400000000
H           55.44154799999999        2.04775000000000        1.82221600000000
H           55.28428700000000       -1.99419900000000       -1.77524200000000
H           53.30450199999999       -3.39300300000000       -3.01994600000000
H           50.71418200000000       -3.42713100000000       -3.04987400000000
H           48.05185800000000       -3.44676200000000       -3.06706000000000
H           46.27042800000000       -2.05663100000000       -1.83006900000000
154
 energy: -269.916738652238 gnorm: 1.471586746345 xtb: 6.5.1 (b24c23e)
Zn          23.82530492065930        0.02632956120872        0.02739032930229
C           20.45101345686766       -0.08018549382011       -0.07953210756077
C           21.12627386721553       -0.89892498648483       -0.90195709656532
C           20.49431770230613       -1.82745047565865       -1.83457822946340
C           21.45726551957127       -2.47018207528731       -2.48019290333237
C           22.73752053608256       -1.97431719896911       -1.98217351752595
N           22.54078992485178       -0.98340034685003       -0.98686061788896
C           23.93142807475757       -2.40655226354001       -2.41630408612195
C           25.22463360691374       -1.91835677949199       -1.92589470041997
C           26.50437819402404       -2.41499366969388       -2.42445256991473
C           27.46315267773733       -1.77114336466696       -1.77772184235394
N           25.38279963717878       -1.00553875066834       -1.00916998212461
C           26.79319886540560       -0.85688515173614       -0.85968236960567
C           27.40235511106152       -0.00814910055408       -0.00729377051827
C           26.65175451048012        0.89186950405476        0.89655151382806
C           27.22430703739965        1.74681049492009        1.75513783157698
C           26.16825269052637        2.44044433425706        2.45179525230292
C           25.01061193472867        1.97172344373873        1.98109451495940
N           25.23029534503434        0.97885941159248        0.98394291865223
C           23.70388146321559        2.44330906229544        2.45485890651634
C           22.53241168657628        1.98634400923275        1.99598677045847
C           21.22723845105269        2.43664934844562        2.44847638950466
C           20.34289106517398        1.73996684724541        1.74880504381544
C           21.08720817783852        0.85091432761186        0.85567070245662
N           22.37380338752600        0.99159840199993        0.99681217014161
H           19.36772734785906       -0.10552484483560       -0.10491095140287
H           19.43361410043711       -1.97770794901065       -1.98545312774444
H           21.30277688989326       -3.22566900874886       -3.23900799111187
H           23.94722883244381       -3.17133969785258       -3.18444848958630
H           26.65695822644054       -3.16985667173698       -3.18247491055678
H           28.52398856379519       -1.91865162369797       -1.92564586764915
H           28.28371730352295        1.89496115569749        1.90391547840599
H           26.28214515325607        3.19903287633835        3.21368741825702
H           23.68421183990352        3.20906362217803        3.22401790369980
H           21.00253213158697        3.18319203396851        3.19840462617240
H           19.26892003259855        1.82413255001335        1.83351786396515
Zn          65.09619365885604       -0.06207651382658       -0.00679864791175
C           68.47046354699319        0.08866437893998       -0.01423673947262
C           67.79521052663947        1.24771252192405       -0.07182989928743
C           68.42716130970770        2.56212713147860       -0.13708233043197
C           67.46421356521927        3.47200471128750       -0.18228783615197
C           66.18396972086818        2.77007606866870       -0.14746296654263
N           66.38067937790092        1.36733483716343       -0.07780709307456
C           64.99002630737552        3.38193760896931       -0.17782940667392
C           63.69685401262782        2.69085580880635       -0.14348076530290
C           62.41710603172437        3.39367538471781       -0.17818185346673
C           61.45832598247789        2.48222635186760       -0.13290210761889
N           63.53862861156780        1.39864501717647       -0.07942408463698
C           62.12825576469462        1.18826833203038       -0.06883925662159
C           61.51875774731236       -0.01318266489267       -0.00920215125717
C           62.26965065997247       -1.28727752917083        0.05387733524723
C           61.69716555048461       -2.49736765091903        0.11387404039693
C           62.75323781896860       -3.47923858129973        0.16259011284335
C           63.91084615807492       -2.81578563921047        0.12971764080696
N           63.69115891901750       -1.41030973630769        0.06000420214054
C           65.21760988097314       -3.48341887146176        0.16293071995029
C           66.38905916320451       -2.83662317777071        0.13089620017008
C           67.69424878840992       -3.47419930805352        0.16268814163476
C           68.57858477112707       -2.48804674379072        0.11379194887263
C           67.83426488700141       -1.22939523291894        0.05119427473913
N           66.54767236694836       -1.42842775824530        0.06095892104862
H           69.55375012120761        0.12448287926662       -0.01596438707984
H           69.48786315528930        2.77479874050336       -0.14760857744627
H           67.61870138093751        4.54146130733188       -0.23537627577710
H           64.97424814244904        4.46455888627645       -0.23156470778971
H           62.26451929373405        4.46213156142014       -0.23110353953089
H           60.39748488563716        2.69086136376851       -0.14309355577047
H           60.63775602701945       -2.70706072609762        0.12426136386873
H           62.63933320207429       -4.55306051144306        0.21586967534870
H           65.23726585883972       -4.56743407396455        0.21676348599257
H           67.91894664380658       -4.53106142328628        0.21522141754432
H           69.65255706240073       -2.60730163361314        0.11983645155543
C           30.94884682237078        0.00360143954492       -0.00652170621347
C           29.69404454701104       -0.01563620620394       -0.01085890018418
C           32.26496145028135        0.00256536358981       -0.00474820472973
C           33.60574308359388       -0.02191127847442       -0.01603810701645
C           43.73997019487300        0.00314645424284       -0.00679862625299
C           42.59008303455077       -0.02168432661771       -0.01596385984310
C           45.02572899279038        0.00263238890734       -0.00473245868004
C           46.37038320113975       -0.02181424748703       -0.01599646475958
C           56.50164004475466        0.00315661608315       -0.00679466506108
C           55.35473762520956       -0.02164831085692       -0.01591906195241
C           57.80711755288593        0.00269849939799       -0.00463915158749
C           59.28489974207751       -0.01556829250037       -0.01088030614564
Zn          38.04214507211051       -0.04100667816880       -0.03671980362661
C           34.74191873083655        0.01474681025707        0.01237535389817
C           35.29110576242145        0.89486324485059        0.79600901728029
C           34.64867519377120        1.87576554593774        1.66885631905041
C           35.61117251879617        2.55798918830216        2.27598761017241
C           36.88703338763041        2.03594289757029        1.81150259888464
N           36.69336900220809        0.98505254812076        0.87636195840054
C           38.07694294088036        2.50167097707909        2.22598076964953
C           39.37911133883416        2.00381473521483        1.78299195926246
C           40.64434257372515        2.54551506427410        2.26512799962019
C           41.62132062267493        1.87533151286258        1.66873259731844
N           39.56052791688222        1.03839412054200        0.92381848097514
C           40.95716449613283        0.90877261951839        0.80849637214968
C           41.47428900716080        0.01415059731686        0.01198261252706
C           40.85921739688012       -0.95305797939699       -0.84847120933602
C           41.45889435473217       -1.84653929871980       -1.64372990001116
C           40.41416963888438       -2.59097099222605       -2.30616087324894
C           39.24920763311841       -2.10530346651030       -1.87379964379458
N           39.45028359229378       -1.05320157987464       -0.93745143969743
C           37.95296005585203       -2.61594622124960       -2.32806065970257
C           36.76869509544299       -2.14912836292318       -1.91256714112041
C           35.48507206724642       -2.65187431161596       -2.35980937829674
C           34.57422407295568       -1.93312110345802       -1.72023920361022
C           35.28996544181589       -0.97637980922379       -0.86904619418103
N           36.57314772794900       -1.09807598767761       -0.97737895516671
H           33.59240168477044        2.04868148785268        1.82267155102126
H           35.45356847624182        3.35749854512359        2.98742833396385
H           38.07851230437951        3.31169211415444        2.94679278581762
H           40.77880179084996        3.34627756992673        2.97777205719922
H           42.67812222942349        2.04709825514319        1.82163575771255
H           42.52084247023654       -1.99421604441975       -1.77525734977494
H           40.54141380249173       -3.39291220626788       -3.01986547528955
H           37.95118377909029       -3.42699903675922       -3.04975704203332
H           35.28900883249064       -3.44664771984194       -3.06695852606945
H           33.50683638931291       -2.05605383820913       -1.82955580665026
Zn          50.80550129216694       -0.04098901041373       -0.03670244849612
C           47.50464965846466        0.01467003726741        0.01231209129359
C           48.05498005540685        0.89536768894449        0.79645471049476
C           47.41206112846504        1.87555466811048        1.66866987120717
C           48.37478976097603        2.55805759736951        2.27604810079075
C           49.65031116759697        2.03597994246067        1.81153743693231
N           49.45668469528955        0.98507511915050        0.87638413985431
C           50.84045186395387        2.50170311863751        2.22601025321534
C           52.14242389625748        2.00364084905542        1.78283995214472
C           53.40802580309714        2.54544544286305        2.26506555687110
C           54.38472161589024        1.87556740769018        1.66894309096608
N           52.32366947011018        1.03846518645515        0.92387832079533
C           53.72117913489767        0.90817502068643        0.80795019893805
C           54.23688691250871        0.01434156287362        0.01215319746227
C           53.62289790095397       -0.95276758372203       -0.84819889037581
C           54.22231652684308       -1.84666640130324       -1.64384416324706
C           53.17771893756706       -2.59092942444703       -2.30612463285139
C           52.01253095749804       -2.10526693342230       -1.87376862369269
N           52.21366921263849       -1.05316097945689       -0.93741712910103
C           50.71644434417787       -2.61592472387258       -2.32804223826165
C           49.53209630544104       -2.14919775233914       -1.91262867973256
C           48.24853784773604       -2.65190263101527       -2.35983449642890
C           47.33764641059231       -1.93309185947966       -1.72021332044338
C           48.05400991137879       -0.97672909558131       -0.86935386262940
N           49.33639705431584       -1.09810809213894       -0.97740704642273
H           46.35581049658185        2.04867407301693        1.82266497862422
H           48.21698373237246        3.35750105514258        2.98743023054850
H           50.84192829811461        3.31169161452893        2.94679142083412
H           53.54221459339193        3.34626880869203        2.97776420280950
H           55.44152255159734        2.04710688638975        1.82164378704514
H           55.28423819521045       -1.99422132364368       -1.77526190783798
H           53.30482617414123       -3.39290345813512       -3.01985732529595
H           50.71459864066500       -3.42699776484716       -3.04975516831648
H           48.05242073802813       -3.44664951758236       -3.06696018290083
H           46.27024685614637       -2.05605147188335       -1.82955369854355
154
 energy: -270.340947548987 gnorm: 0.907749335281 xtb: 6.5.1 (b24c23e)
Zn          23.82854259683570        0.02440096164951        0.02546794728241
C           20.45205130201826       -0.07018114489543       -0.06948474321344
C           21.13095888028765       -0.89986233225670       -0.90290004441853
C           20.49322165744254       -1.82370439670826       -1.83081644342729
C           21.46274612679051       -2.47088051681689       -2.48089607936530
C           22.73595910567955       -1.97113881672854       -1.97898137298984
N           22.52390485295853       -0.99590139170377       -0.99941755277701
C           23.94602687728771       -2.40451981281114       -2.41426358939842
C           25.22018280797155       -1.92778680237112       -1.93536894964221
C           26.49669882405853       -2.42010600712916       -2.42958844600190
C           27.46413967614907       -1.76795865136497       -1.77452115945719
N           25.39738075701778       -1.00462495026064       -1.00825974475068
C           26.80564205058368       -0.85498092538530       -0.85775580944872
C           27.41663129879200        0.00101335232453        0.00190116324951
C           26.65418912357600        0.88305501301711        0.88770588616990
C           27.22660271605272        1.76019053833479        1.76857560038534
C           26.18874541061746        2.44101302674067        2.45236442136055
C           25.00243399700788        1.96410798031042        1.97344662549614
N           25.24128637556889        0.98285709045620        0.98795805350417
C           23.71791213148131        2.43692184703898        2.44844030216849
C           22.53080387904059        1.98523232216322        1.99486822713743
C           21.23100712693913        2.43563363101584        2.44745384785548
C           20.33484535458530        1.73381161670995        1.74262102345178
C           21.07055781747933        0.84622913850620        0.85096383749027
N           22.37093484756199        0.99943672799710        1.00467697519030
H           19.36838148433836       -0.10274221514455       -0.10211737797969
H           19.43327875617451       -1.97356886247717       -1.98129705508544
H           21.30866867320677       -3.22574007263166       -3.23908096057721
H           23.95160799903007       -3.17035794835437       -3.18346198570408
H           26.65230684696204       -3.17211487339882       -3.18474474280119
H           28.52421328023407       -1.91398090898347       -1.92095704522240
H           28.28527253095639        1.89776481727723        1.90673090757327
H           26.28721019594842        3.19905706455779        3.21370843614105
H           23.69109680050422        3.20569460788218        3.22063133269605
H           21.00812584173413        3.18238529746597        3.19759109710510
H           19.26540604260759        1.82077932500481        1.83014757713439
Zn          65.09311387198164       -0.05938286652450       -0.00693488032735
C           68.46937885193834        0.07455704334604       -0.01354244134213
C           67.79056565610934        1.24903918619301       -0.07190324005601
C           68.42825787769975        2.55685953327852       -0.13682720693501
C           67.45875877545862        3.47297922716963       -0.18234377983081
C           66.18555711207256        2.76545673522171       -0.14723861401593
N           66.39746688639553        1.38507700118614       -0.07868962760050
C           64.97524239443975        3.37894412285259       -0.17768254537626
C           63.70129799889967        2.70412014573866       -0.14415384355357
C           62.42473472338123        3.40093407149694       -0.17854943948384
C           61.45720136399083        2.47797189692437       -0.13269030242718
N           63.52360341605712        1.39696724442464       -0.07935390787987
C           62.11504916460246        1.18569055193555       -0.06870148118994
C           61.50305584097604       -0.02608616667315       -0.00849683732960
C           62.26643918808483       -1.27496500277948        0.05324999119374
C           61.69467827116652       -2.51651660454533        0.11482336485732
C           62.73272796113687       -3.48001139009785        0.16262448472338
C           63.91889017694874       -2.80486557809804        0.12917495563574
N           63.67983632506971       -1.41565421413779        0.06026835726925
C           65.20359161814788       -3.47430442738963        0.16247237441967
C           66.39063825455732       -2.83504246814379        0.13081054702222
C           67.69053036517874       -3.47276198576864        0.16261088888553
C           68.58661101082006       -2.47939397014460        0.11335662439963
C           67.85085000825954       -1.22278860002713        0.05085968783754
N           66.55050682040446       -1.43946758673053        0.06149857306076
H           69.55305666615132        0.12055465291046       -0.01577616243568
H           69.48817520630044        2.76894569693338       -0.14732517399302
H           67.61279720022414        4.54153660632905       -0.23538760198235
H           64.96980918161388        4.46308820160086       -0.23149749881298
H           62.26915989296901        4.46530718228366       -0.23126807075222
H           60.39715758223441        2.68425865591189       -0.14276618941646
H           60.63608518890280       -2.71107157369991        0.12444988538668
H           62.63427676621947       -4.55303777731500        0.21586218160183
H           65.23035921186772       -4.56260751482468        0.21651700287991
H           67.91335694257744       -4.52989835242978        0.21515667637401
H           69.65603818864658       -2.60255181887185        0.11959361309662
C           30.92609438369514        0.00317137668881       -0.00671763401346