152
 energy: -229.005424135004 gnorm: 2.131970170542 xtb: 6.5.1 (b24c23e)
Zn          15.92881600000000       -0.00596600000000       -0.00413400000000
C           12.55494800000000        0.12655300000000        0.03514900000000
C           13.22366400000000        1.17919200000000        0.51376100000000
C           12.58034700000000        2.36072200000000        1.07654500000000
C           13.52736100000000        3.21318500000000        1.42167000000000
C           14.82780500000000        2.61588900000000        1.09128500000000
N           14.64323800000000        1.32169700000000        0.51885800000000
C           16.02156400000000        3.21342200000000        1.27360100000000
C           16.06711900000000        4.58131600000000        1.85316200000000
C           15.98338500000000        5.71455400000000        1.00996200000000
C           15.84559000000000        5.56410400000000       -0.48307100000000
C           16.02632600000000        6.99983100000000        1.57150100000000
C           16.14592200000000        7.17249000000000        2.95537000000000
C           16.23182100000000        8.55243000000000        3.53884300000000
C           16.25467600000000        6.05088000000000        3.78551500000000
C           16.20786800000000        4.75477600000000        3.25001300000000
C           16.31923200000000        3.56855800000000        4.17251000000000
C           17.31464700000000        2.57397400000000        0.92027300000000
C           18.60678400000000        3.26467400000000        0.99246400000000
C           19.54198200000000        2.40568800000000        0.64444000000000
N           17.45203800000000        1.33867900000000        0.54487100000000
C           18.85423300000000        1.15391600000000        0.34856800000000
C           19.44923300000000        0.00018400000000        0.00005200000000
C           18.69198600000000       -1.24177700000000       -0.28758000000000
C           19.24827300000000       -2.44064100000000       -0.41045400000000
C           18.19929100000000       -3.36970800000000       -0.77706500000000
C           17.06791000000000       -2.67935800000000       -0.85354700000000
N           17.28821200000000       -1.30093700000000       -0.54743700000000
C           15.76622600000000       -3.25898000000000       -1.27360600000000
C           15.75574700000000       -4.62108500000000       -1.87192400000000
C           15.99441700000000       -4.78877800000000       -3.25611000000000
C           16.26214400000000       -3.60371200000000       -4.14756100000000
C           15.99112200000000       -6.07870200000000       -3.80817500000000
C           15.75237100000000       -7.19980300000000       -3.00600000000000
C           15.72679800000000       -8.56582500000000       -3.62681100000000
C           15.50325100000000       -7.03219700000000       -1.63834300000000
C           15.51395000000000       -5.75414900000000       -1.05903800000000
C           15.25287200000000       -5.61047100000000        0.41831600000000
C           14.60455200000000       -2.59623900000000       -1.13010700000000
C           13.28455300000000       -3.09181600000000       -1.51290800000000
C           12.42341300000000       -2.16470100000000       -1.14179900000000
C           13.18557200000000       -1.07621200000000       -0.53130300000000
N           14.45885100000000       -1.31724300000000       -0.51823500000000
H           11.47177300000000        0.15190900000000        0.05747700000000
H           11.51725900000000        2.52670200000000        1.19445700000000
H           13.34951800000000        4.18449500000000        1.86494600000000
H           14.89396700000000        5.04471300000000       -0.72122700000000
H           16.69562100000000        4.97214500000000       -0.88263000000000
H           15.84106300000000        6.54843700000000       -0.99749300000000
H           15.96711400000000        7.87181500000000        0.93063600000000
H           15.80796100000000        8.57113700000000        4.56560300000000
H           17.29464200000000        8.87035200000000        3.57953600000000
H           15.65991900000000        9.27700500000000        2.92069200000000
H           16.37403900000000        6.19040300000000        4.85362600000000
H           17.23422700000000        2.98918600000000        3.92831300000000
H           16.37809100000000        3.87890200000000        5.23707500000000
H           15.42993500000000        2.91444500000000        4.05456100000000
H           18.78243500000000        4.29328500000000        1.27898300000000
H           20.60216300000000        2.61745700000000        0.60180400000000
H           20.29388200000000       -2.68779600000000       -0.28662900000000
H           18.32663300000000       -4.42586300000000       -0.97629600000000
H           15.42704500000000       -2.87576500000000       -4.06969300000000
H           16.35796900000000       -3.90318400000000       -5.21272100000000
H           17.20770700000000       -3.11038800000000       -3.83936400000000
H           16.17288100000000       -6.21514500000000       -4.86807600000000
H           16.62774700000000       -8.70986400000000       -4.26120200000000
H           15.71767800000000       -9.36398800000000       -2.85346800000000
H           14.81820200000000       -8.66876700000000       -4.25747200000000
H           15.30439300000000       -7.90107500000000       -1.02209500000000
H           14.29836900000000       -5.06749000000000        0.57875800000000
H           16.08043700000000       -5.04485700000000        0.89553200000000
H           15.18012600000000       -6.59783900000000        0.92176700000000
H           13.03671300000000       -4.02960500000000       -1.99305900000000
H           11.35019200000000       -2.21552300000000       -1.27000500000000
Zn          29.08823100000000        0.00752100000000        0.00128900000000
C           32.46209900000000       -0.11529900000000       -0.06211100000000
C           31.79338300000000       -1.20622200000000       -0.44552400000000
C           32.43670000000000       -2.44842600000000       -0.85743300000000
C           31.48968600000000       -3.30248900000000       -1.19858000000000
C           30.18924200000000       -2.64275500000000       -1.02345700000000
N           30.37380900000000       -1.31258100000000       -0.54050500000000
C           28.99548300000000       -3.20014800000000       -1.30558800000000
C           28.94992800000000       -4.58844300000000       -1.83441800000000
C           29.03366200000000       -4.82239900000000       -3.22742800000000
C           29.17145700000000       -3.68016900000000       -4.20061600000000
C           28.99072100000000       -6.13860200000000       -3.71206300000000
C           28.87112500000000       -7.22128000000000       -2.83302300000000
C           28.78522700000000       -8.62097700000000       -3.36736900000000
C           28.76237100000000       -6.98667700000000       -1.45748300000000
C           28.80917900000000       -5.68068700000000       -0.94656400000000
C           28.69781499999999       -5.46340200000000        0.54034600000000
C           27.70240000000000       -2.49411300000000       -1.11783700000000
C           26.41026300000000       -3.04249100000000       -1.54393500000000
C           25.47506500000000       -2.18171400000000       -1.20036400000000
N           27.56500900000000       -1.34284400000000       -0.53349200000000
C           26.16281400000000       -1.07361600000000       -0.54722400000000
C           25.56781400000000        0.00018400000000        0.00005200000000
C           26.32506200000000        1.09549900000000        0.65234600000000
C           25.76877400000000        2.04564900000000        1.39368800000000
C           26.81775600000000        2.96986200000000        1.77236600000000
C           27.94913700000000        2.52466800000000        1.23923000000000
N           27.72883500000000        1.31809400000000        0.50579500000000
C           29.25082100000000        3.23373200000000        1.33741100000000
C           29.26130000000000        4.63083600000000        1.84869700000000
C           29.02263000000000        5.71015100000000        0.96598900000000
C           28.75490300000000        5.47220300000000       -0.49772100000000
C           29.02592500000000        7.02314800000000        1.46067800000000
C           29.26467600000000        7.27674800000000        2.81568400000000
C           29.29024900000000        8.69225200000000        3.31345200000000
C           29.51379600000000        6.20894100000000        3.68652400000000
C           29.50309700000000        4.88565300000000        3.21971300000000
C           29.76417500000000        3.75916500000000        4.18627600000000
C           30.41249500000000        2.65616100000000        0.98212400000000
C           31.73249400000000        3.27878500000000        1.04900200000000
C           32.59363400000000        2.35286500000000        0.67492000000000
C           31.83147500000000        1.14476700000000        0.36185400000000
N           30.55819600000000        1.30964300000000        0.53815600000000
H           33.54527400000000       -0.14905500000000       -0.06355400000000
H           33.49978800000000       -2.64982800000000       -0.88726200000000
H           31.66752899999999       -4.31026200000000       -1.55118400000000
H           30.12308000000000       -3.14050300000000       -4.01287600000000
H           28.32142600000000       -2.97639500000000       -4.07910100000000
H           29.17598400000000       -4.03429800000000       -5.25329500000000
H           29.04993300000000       -6.32412300000000       -4.77819900000000
H           29.20908600000000       -9.34532900000000       -2.63942700000000
H           27.72240500000000       -8.87855600000000       -3.55811200000000
H           29.35712800000000       -8.71585500000000       -4.31506000000000
H           28.64300800000000       -7.82683700000000       -0.78334700000000
H           27.78282000000000       -4.87627300000000        0.76525300000000
H           28.63895600000000       -6.42436900000000        1.09365900000000
H           29.58711200000000       -4.90974600000000        0.90809600000000
H           26.23461200000000       -3.98308400000000       -2.04932400000000
H           24.41488400000000       -2.30500600000000       -1.37774400000000
H           24.72316500000000        2.13826400000000        1.65415100000000
H           26.69041400000000        3.86990000000000        2.35980900000000
H           29.59000199999999        4.89301800000000       -0.94551000000000
H           28.65907800000000        6.42573700000000       -1.05899000000000
H           27.80934000000000        4.90285500000000       -0.61687200000000
H           28.84416700000000        7.85540200000000        0.79033500000000
H           28.38930000000000        9.23539500000000        2.95540700000000
H           29.29936900000000        8.73278700000000        4.42407300000000
H           30.19884500000000        9.20315800000000        2.92964600000000
H           29.71265400000000        6.40926400000000        4.73274600000000
H           30.71867800000000        3.25628100000000        3.92612700000000
H           28.93661000000000        3.02063800000000        4.13903600000000
H           29.83692100000000        4.12308100000000        5.23313900000000
H           31.98033400000000        4.28790000000000        1.35179000000000
H           33.66685500000000        2.47829800000000        0.61759600000000
C           21.77303200000000        0.01235600000000        0.00241900000000
C           20.52076200000000       -0.00682500000000       -0.00193000000000
C           23.08670000000000        0.01159000000000        0.00435100000000
C           24.58983400000000       -0.00682500000000       -0.00193000000000
152
 energy: -229.545625339829 gnorm: 0.464317348846 xtb: 6.5.1 (b24c23e)
Zn          15.93051320463121       -0.00580608622179       -0.00398371417703
C           12.55549741957053        0.11581852686872        0.03002937420516
C           13.22905454930928        1.18161911648456        0.51467170138073
C           12.57899307016508        2.35668047180836        1.07473788661945
C           13.53347085274247        3.21520602021602        1.42213854482789
C           14.82487692062275        2.61132432218188        1.08963540336010
N           14.62988502651064        1.33369642287521        0.52517434697209
C           16.03282842672634        3.21295745619681        1.27271308405889
C           16.06882587616567        4.58479799959309        1.85427465017605
C           15.98354260209918        5.71535172343904        1.01257657419668
C           15.84569652546734        5.56361986858118       -0.48391384476051
C           16.02618982694418        6.99693836833583        1.57332228016806
C           16.14706581801043        7.17075807511604        2.95448714218119
C           16.23075899896146        8.55419158641638        3.53969319144664
C           16.25389065437379        6.05015190704002        3.78223849676312
C           16.20795323043830        4.75716398768405        3.24869508431369
C           16.31913992179600        3.56760731604069        4.17268151772782
C           17.30792319163720        2.58987576386167        0.92648155021494
C           18.59676023369190        3.27262076390654        0.99620802270887
C           19.54034386314239        2.39888381345216        0.64227835867706
N           17.45561136816599        1.34135591378574        0.54311270186570
C           18.82487054667914        1.17272128430865        0.35437038162194
C           19.36518558643901       -0.00912541537374       -0.00091633097571
C           18.66574741656920       -1.24166818427097       -0.29042964565705
C           19.24760797067804       -2.45549059436992       -0.41385548678608
C           18.21387798415707       -3.37295137025000       -0.77626267449973
C           17.05702841177870       -2.67227889481847       -0.85571443652020
N           17.28950122070556       -1.30998452910412       -0.54788064674731
C           15.77525954955363       -3.25576355032942       -1.27164874107201
C           15.75827960217964       -4.62342823451026       -1.87222593685549
C           15.99443538161752       -4.79087098603074       -3.25472724041609
C           16.26205543163494       -3.60270330525285       -4.14775484643799
C           15.99050069457663       -6.07779271348770       -3.80475973365850
C           15.75159284439485       -7.19827047020838       -3.00481131920530
C           15.72738091550976       -8.56775335788395       -3.62726500902704
C           15.50405492969240       -7.02919798913818       -1.64012760389908
C           15.51415291269267       -5.75440903794323       -1.06158027646181
C           15.25308937667917       -5.60998237863149        0.41922661164759
C           14.60263913508747       -2.59531360949278       -1.13001710145764
C           13.28981529289911       -3.09315901184131       -1.51271465293518
C           12.41747455066019       -2.15796179215188       -1.13885693860818
C           13.17284459380099       -1.07062155642052       -0.52880688588890
N           14.45864679945644       -1.32450797221390       -0.52284103792091
H           11.47198401359184        0.15014678609787        0.05644128111601
H           11.51717866825954        2.52367088624157        1.19313658150340
H           13.35341980945743        4.18481740460238        1.86498792616113
H           14.89792173180538        5.04585330230042       -0.72110884737367
H           16.69186942861564        4.97347659253472       -0.88173156716909
H           15.84103976114124        6.54458680338515       -0.99479468818047
H           15.96695354126368        7.87083426141513        0.93086796276236
H           15.81031137022114        8.57137396221946        4.56209455232446
H           17.29033563149954        8.87010881499913        3.57982861465138
H           15.66277067639217        9.27477120315561        2.92287239277700
H           16.37369529583415        6.18986657239811        4.85279693187362
H           17.23035522036595        2.99028099418445        3.92919602663879
H           16.37793485647313        3.87816842592906        5.23245242212155
H           15.43378873378705        2.91582821136349        4.05477661042812
H           18.77947755527430        4.29519703139533        1.27996045083702
H           20.60121065190954        2.61263066174699        0.60040159595040
H           20.29381084510942       -2.68877510634256       -0.28653173101199
H           18.32877088475052       -4.42637472537299       -0.97578947735510
H           15.43080730150385       -2.87750864113102       -4.06968493167872
H           16.35759484894262       -3.90251049934982       -5.20807085153985
H           17.20379083820023       -3.11114703634668       -3.84046889347768
H           16.17282557569143       -6.21451347232237       -4.86711670599097
H           16.62378306844695       -8.70986319422013       -4.25958719255592
H           15.71732720900047       -9.36088150439332       -2.85658966158524
H           14.82210616502886       -8.66927770992300       -4.25557060906151
H           15.30473624602987       -7.90010212234922       -1.02231763918128
H           14.30225950547596       -5.06878753023819        0.57899665130932
H           16.07677384065991       -5.04603210314295        0.89425286801334
H           15.18032576772729       -6.59398560712994        0.91904877083083
H           13.04040964520848       -4.02953460130009       -1.99284555263226
H           11.34878142940791       -2.21294179873604       -1.26893011545534
Zn          29.08686871551846        0.00714300041047        0.00122914636174
C           32.46161730656159       -0.10388912404619       -0.05833107157910
C           31.78789036158529       -1.20864969264736       -0.44655986161630
C           32.43803437031109       -2.44422801446339       -0.85592528874016
C           31.48351354624157       -3.30429132434676       -1.19964570884574
C           30.19211534695616       -2.63864111772391       -1.02162198688022
N           30.38726880570331       -1.32541392050897       -0.54417718849545
C           28.98457199700515       -3.19935078268838       -1.30598897015875
C           28.94824816981837       -4.59173115231233       -1.83601917620852
C           29.03350204772245       -4.82478276321816       -3.22608848934624
C           29.17135028634986       -3.67923571114764       -4.20088740615930
C           28.99085766791108       -6.13777387610167       -3.70874416513986
C           28.86998290539739       -7.21941375390844       -2.83245889297275
C           28.78628693834403       -8.62283748342185       -3.36797552462208
C           28.76315668918038       -6.98388240869545       -1.45934259004409
C           28.80909153364111       -5.68149645421199       -0.94917173998127
C           28.69790713025401       -5.46283456907836        0.54112692742066
C           27.70881253246123       -2.51091201085465       -1.12495246227073
C           26.42128500673653       -3.05116786009162       -1.54678261552995
C           25.47718472804243       -2.17429515505212       -1.19663888274171
N           27.56241133991052       -1.34415673868423       -0.53647452678418
C           26.19807042768188       -1.09509225748945       -0.55837216898783
C           25.67698491531830        0.00877081873987        0.00576165574425
C           26.35702688124647        1.10072899125332        0.65267633408450
C           25.76966390598656        2.05830827984422        1.40130751596468
C           26.80369116580755        2.97180550464596        1.77521912231227
C           27.95982374599814        2.52141051763862        1.23304588647141
N           27.72885700336827        1.32571214949005        0.51165336302644
C           29.24226699435324        3.23016476686533        1.33660379257654
C           29.25877237260604        4.63276114709681        1.85008944913005
C           29.02260691934391        5.71071622180950        0.96843915829096
C           28.75499366750236        5.47161149010167       -0.49855923193539
C           29.02654518326318        7.02013290138878        1.46251089536464
C           29.26545463372326        7.27481919596594        2.81548073276287
C           29.28966609323741        8.69395800912808        3.31445921168899
C           29.51299373869270        6.20801245576725        3.68316040180373
C           29.50288888944625        4.88760276796363        3.21805729448094
C           29.76395957564767        3.75818287502870        4.18659428611233
C           30.41426548709356        2.65557141319070        0.98165445757523
C           31.72732513565033        3.27963443129080        1.05006600897706
C           32.59953972794973        2.34604925203782        0.67240787875798
C           31.84416001090995        1.13888983982339        0.35975466145572
N           30.55833858401576        1.31794202328802        0.53980638095386
H           33.54507742350236       -0.14704769325049       -0.06307993369092
H           33.49986383352055       -2.64671514941995       -0.88611437127188
H           31.66363036905172       -4.31052846937971       -1.55137868509944
H           30.11912614302297       -3.14140818731149       -4.01357762560227
H           28.32517325921813       -2.97797895311792       -4.07936900639357
H           29.17600718309389       -4.03338837383206       -5.24868455211410
H           29.05009352780856       -6.32357645247552       -4.77735376547413
H           29.20673641307659       -9.34307289185913       -2.64212250353707
H           27.72670989951796       -8.87858541825039       -3.55773348166634
H           29.35427718129657       -8.71575390208737       -4.31194120796931
H           28.64335151372955       -7.82587803634482       -0.78357304509118
H           27.78668835922851       -4.87767052715117        0.76512642647940
H           28.63911204421404       -6.42064125434192        1.09083321553141
H           29.58326043559505       -4.91089148996934        0.90729186923298
H           26.23759661639439       -3.98513957156915       -2.04995494081469
H           24.41589673960374       -2.30005739852066       -1.37514351085552
H           24.72317414609628        2.13852319788655        1.65463455504881
H           26.68825731911762        3.86991145212291        2.36051464593300
H           29.58624016031463        4.89427032634628       -0.94429553676575
H           28.65945216308035        6.42203192061686       -1.05610228061025
H           27.81325400597467        4.90416748944146       -0.61714555490168
H           28.84422249731434        7.85428551233438        0.79058922686752
H           28.39326365736602        9.23427714081133        2.95657163686998
H           29.29971987967498        8.73270666938447        4.41966991488924
H           30.19494062658238        9.20220984842278        2.93137186434700
H           29.71231116592976        6.40871668187368        4.73191232106971
H           30.71478656694962        3.25705320308720        3.92719725137242
H           28.94027406345375        3.02237063386594        4.13892803533258
H           29.83672144051161        4.12218240271730        5.22851026721689
H           31.97665457930165        4.28771169432511        1.35189627031360
H           33.66825773447678        2.47570140382293        0.61658994275675
C           21.81883170207235        0.00995666318652        0.00148179369428
C           20.61109389203391       -0.01558985551297       -0.00614610160593
C           23.09591209163160        0.01384212187730        0.00495424665706
C           24.40277503605869        0.00207845027743        0.00126003135855
152
 energy: -229.630658093004 gnorm: 0.238861525506 xtb: 6.5.1 (b24c23e)
Zn          15.92702923157979       -0.00158903387575       -0.00220033774093
C           12.55537134942619        0.09988951793630        0.02227262130763
C           13.23025934296647        1.18216988763802        0.51531101018968
C           12.57981386831801        2.35088686185949        1.07180731295886
C           13.54323558761197        3.21745914116766        1.42231902720020
C           14.82298909681616        2.61221314803363        1.09091450109403
N           14.60547179185445        1.35593173105368        0.53874531743181
C           16.04444452463526        3.21905408248831        1.27380704541249
C           16.07447625135115        4.59266626507573        1.85622040296713
C           15.98438975751041        5.71720896511095        1.01776500010032
C           15.84648692237874        5.56156185438359       -0.47933530367346
C           16.02569947209035        6.99294177592056        1.57685386207094
C           16.15099361818190        7.16851241731132        2.95303404260704
C           16.22875874623583        8.55366224091585        3.53965150554975
C           16.25210443207507        6.04968782329509        3.77676299070868
C           16.20918184364611        4.76213150434335        3.24540642874870
C           16.31854994710405        3.56956188002308        4.16759597301905
C           17.29477429178909        2.62185578674153        0.93930766843127
C           18.57903704355490        3.28980846050983        1.00585063680004
C           19.52269997042786        2.39573595897318        0.64289787956905
N           17.45252938726309        1.36165462440496        0.54027765858743
C           18.79927897015898        1.18253731918367        0.35591980082831
C           19.33198461231668       -0.02989642256245       -0.00350958800003
C           18.63848239363716       -1.24509856774285       -0.29766140944356
C           19.24334840134162       -2.48122215919296       -0.42552307433739
C           18.23576015865920       -3.38054595807579       -0.78167839942136
C           17.04939368796490       -2.67041080183643       -0.86324807707508
N           17.28416511307322       -1.33159923539802       -0.54462223444881
C           15.79175971669223       -3.24906445477400       -1.26947249048584
C           15.77181000560945       -4.62408567359801       -1.86916059405021
C           15.99739161054812       -4.79323160617947       -3.24877889982525
C           16.26123344542472       -3.60398096690589       -4.14270403984565
C           15.98867237123124       -6.07524213858209       -3.79730524533369
C           15.74902827635768       -7.19487559178536       -3.00273004640007
C           15.72849839353146       -8.56657219764367       -3.62615524371885
C           15.50530479264014       -7.02235999088059       -1.64292445219742
C           15.51692700381209       -5.75186244329909       -1.06599507062907
C           15.25493498908023       -5.60718258715509        0.41526562083357
C           14.60106083080504       -2.59301117549121       -1.13076609848087
C           13.29457707046424       -3.08917869915172       -1.50852100068450
C           12.40492135339920       -2.14934431920280       -1.13345831223195
C           13.14957687858954       -1.06611160395385       -0.52619735528732
N           14.45072937045445       -1.33422589849397       -0.53519371664642
H           11.47225859540774        0.14104088171193        0.05011193893593
H           11.51747081340707        2.51004084910696        1.18706254068317
H           13.37181621137542        4.18699552182114        1.86541795912686
H           14.90866121466827        5.04625964058185       -0.72079143805865
H           16.68184182838375        4.97427292971766       -0.87938994471434
H           15.84106521604522        6.53482832419167       -0.98484529532791
H           15.96561659627603        7.86599266487153        0.93248092751855
H           15.81685247291680        8.57193003465847        4.55489367616644
H           17.27860887925191        8.87173980068581        3.58162872927893
H           15.67029951818599        9.27029129253848        2.92710167472435
H           16.37117775428764        6.18730793637545        4.84826651659005
H           17.21987398252661        2.99122355898353        3.92991996496731
H           16.37742056699909        3.87857516550304        5.21828228159190
H           15.44401229366662        2.91771085045832        4.05301163572588
H           18.76623505108157        4.30981060161004        1.28668750212717
H           20.58729119872855        2.59289416836653        0.59507465596481
H           20.29125355319202       -2.69763204179305       -0.28732881968890
H           18.34099471313696       -4.43366823707466       -0.97445705571636
H           15.44080708103604       -2.88013471770800       -4.06717005016660
H           16.35604616497356       -3.90326887857667       -5.19368945495874
H           17.19358210703938       -3.11061752102242       -3.84207390758581
H           16.17192879905923       -6.21051656380898       -4.86066931464823
H           16.61362739377538       -8.71040175837848       -4.25719789380574
H           15.71588020618581       -9.35304649645487       -2.86323860998320
H           14.83282640474667       -8.67227374744504       -4.25170475205469
H           15.30661175383078       -7.89347102456626       -1.02352464074640
H           14.31303682934673       -5.06949307758521        0.57990401606539
H           16.06740550179002       -5.04601906322028        0.89154561686313
H           15.18107984083636       -6.58409292247798        0.90852294753651
H           13.05708174502714       -4.02682109406288       -1.99080829715492
H           11.33824606115971       -2.20255640214922       -1.26459475247347
Zn          29.08778069379838        0.00288335769167       -0.00050051610563
C           32.46159307148666       -0.08707146944750       -0.05291338607897
C           31.78642774864505       -1.20935173817450       -0.44642927814298