236
 energy: -423.452528110121 gnorm: 0.536391242249 xtb: 6.5.1 (b24c23e)
Fe          53.83487400000000       -0.00879400000000       -0.00889400000000
C           50.49687699999999        0.11436100000000        0.06318500000000
C           51.15885200000000        1.26380500000000        0.22410600000000
C           50.50798100000000        2.56111200000000        0.36128100000000
C           51.44795100000000        3.47177000000000        0.53396800000000
C           52.75302799999999        2.79635400000000        0.52797200000000
N           52.57624200000000        1.39433600000000        0.32088700000000
C           53.94496100000000        3.40220800000000        0.70962600000000
C           53.99417200000000        4.86067300000000        0.96189600000000
C           53.51149299999999        5.38981500000000        2.16960400000000
C           53.57444599999999        6.76566200000000        2.41008800000000
C           54.12528200000000        7.62220600000000        1.44842700000000
C           54.19129400000000        9.03842900000000        1.69714100000000
N           54.24435299999999       10.17700400000000        1.89718800000000
C           54.61439000000000        7.09720300000000        0.24549400000000
C           54.55107300000000        5.72154700000000        0.00370100000000
C           55.23639500000000        2.66648300000000        0.67811000000000
C           56.51973600000000        3.25156300000000        1.08540400000000
C           57.45453800000000        2.34166900000000        0.90059400000000
N           55.37942300000000        1.44463800000000        0.26451900000000
C           56.77475399999999        1.16393400000000        0.37540900000000
C           57.36931400000000        0.02190000000000       -0.00636200000000
C           56.60610100000000       -1.13819200000000       -0.51779000000000
C           57.13701900000000       -2.13071100000000       -1.22064600000000
C           56.09440200000000       -3.11650800000000       -1.43014100000000
C           54.99649500000000       -2.66261400000000       -0.83662600000000
N           55.22989099999999       -1.38929000000000       -0.23272000000000
C           53.71800100000000       -3.41395100000000       -0.75050400000000
C           53.74126000000000       -4.87949000000000       -0.97804600000000
C           53.05708899999999       -5.44353300000000       -2.06749100000000
C           53.09897099999999       -6.82353000000000       -2.28785500000000
C           53.83062499999999       -7.65040500000000       -1.42624900000000
C           53.87464100000000       -9.07096900000000       -1.65428600000000
N           53.91006500000000      -10.21305100000000       -1.83754200000000
C           54.52235700000000       -7.09145600000000       -0.34433300000000
C           54.48044000000000       -5.71162900000000       -0.12261400000000
C           52.55568000000000       -2.79481700000000       -0.46782000000000
C           51.24839100000000       -3.43258400000000       -0.32084200000000
C           50.38641100000000       -2.45763200000000       -0.10544600000000
C           51.13462000000000       -1.20165300000000       -0.10053700000000
N           52.39964600000000       -1.38597400000000       -0.31079000000000
H           49.41351700000000        0.14218700000000        0.05382800000000
H           49.44463100000000        2.76025300000000        0.32407400000000
H           51.25991600000000        4.53052500000000        0.65522900000000
H           53.08918700000000        4.73603700000000        2.92287500000000
H           53.19636300000000        7.16071700000000        3.34539000000000
H           55.04521900000000        7.75034900000000       -0.50384700000000
H           54.93411900000000        5.32631700000000       -0.92917900000000
H           56.69040300000000        4.24766500000000        1.47218700000000
H           58.50831600000000        2.47366600000000        1.10681700000000
H           58.16278799999999       -2.21111000000000       -1.55467900000000
H           56.20351700000000       -4.05896500000000       -1.95101200000000
H           52.49573500000000       -4.81348300000000       -2.74652300000000
H           52.56424700000000       -7.24476400000000       -3.13071300000000
H           55.09427800000000       -7.72145100000000        0.32634000000000
H           55.02080899999999       -5.29106200000000        0.71670000000000
H           51.00679600000000       -4.48605100000000       -0.37197300000000
H           49.32179200000000       -2.58050900000000        0.04440400000000
Fe          87.84635500000000        0.05241300000000       -0.01055200000000
C           91.18435200000000       -0.06666000000000        0.06808800000000
C           90.52237699999999       -1.20570600000000        0.29100100000000
C           91.17324700000000       -2.49368500000000        0.49820600000000
C           90.23327800000000       -3.39365800000000        0.71993900000000
C           88.92820099999999       -2.71955800000000        0.67738800000000
N           89.10498699999999       -1.33080600000000        0.39470600000000
C           87.73626700000000       -3.31468900000000        0.89157400000000
C           87.68705700000000       -4.75735800000000        1.22243000000000
C           88.16973600000000       -5.22034400000000        2.45701200000000
C           88.10678200000000       -6.58115400000000        2.77162800000000
C           87.55594700000000       -7.48850300000000        1.85774700000000
C           87.48993500000000       -8.88918500000000        2.18276500000000
N           87.43687599999998      -10.01526100000000        2.44415700000000
C           87.06683899999999       -7.02939300000000        0.62815600000000
C           87.13015599999999       -5.66884400000000        0.31224400000000
C           86.44483400000000       -2.58175000000000        0.82027400000000
C           85.16149299999999       -3.14392200000000        1.25864500000000
C           84.22669099999999       -2.24536700000000        1.02484800000000
N           86.30180500000000       -1.38408600000000        0.34114400000000
C           84.90647499999999       -1.09779100000000        0.43667500000000
C           84.31191500000000        0.02190000000000       -0.00636200000000
C           85.07512800000001        1.15260400000000       -0.57984300000000
C           84.54421000000001        2.10561800000000       -1.33540000000000
C           85.58682600000000        3.07862800000000       -1.59795500000000
C           86.68473399999999        2.65753100000000       -0.98073800000000
N           86.45133800000001        1.41876700000000       -0.30878500000000
C           87.96322799999999        3.41242800000000       -0.93541800000000
C           87.93996899999999        4.86349900000000       -1.24196500000000
C           88.62414000000000        5.36773600000000       -2.36034700000000
C           88.58225800000000        6.73378000000000       -2.65509600000000
C           87.85060299999999        7.60608700000000       -1.83951800000000
C           87.80658800000000        9.01222200000000       -2.14412400000000
N           87.77116400000000       10.14270900000000       -2.38894000000000
C           87.15887199999999        7.10652900000000       -0.72892900000000
C           87.20078899999999        5.74072800000000       -0.43283600000000
C           89.12554900000001        2.80950600000000       -0.61963100000000
C           90.43283700000001        3.45429400000000       -0.50739400000000
C           91.29481800000001        2.49243200000000       -0.23953400000000
C           90.54660900000000        1.23856100000000       -0.16663700000000
N           89.28158300000000        1.41122900000000       -0.38656100000000
H           92.26771199999999       -0.09495200000000        0.06025200000000
H           92.23659800000000       -2.69454800000000        0.47183400000000
H           90.42131300000000       -4.44429700000000        0.89833900000000
H           88.59204200000001       -4.52674500000000        3.17378600000000
H           88.48486600000000       -6.92499600000000        3.72694400000000
H           86.63600999999998       -7.72214700000000       -0.08472700000000
H           86.74711000000001       -5.32469600000000       -0.64066400000000
H           84.99082500000000       -4.11762500000000        1.69878600000000
H           83.17291299999999       -2.36600600000000        1.23791400000000
H           83.51844100000000        2.16781500000000       -1.67329600000000
H           85.47771200000000        3.99150500000000       -2.16908300000000
H           89.18549400000001        4.70185000000000       -3.00427500000000
H           89.11698199999999        7.10876700000000       -3.51952200000000
H           86.58695100000000        7.77190800000000       -0.09334500000000
H           86.66042000000000        5.36621500000000        0.42801500000000
H           90.67443299999999        4.50344800000000       -0.61548100000000
H           92.35943600000000        2.62324100000000       -0.09655600000000
C           59.42544500000000        0.02190000000000       -0.00636200000000
C           60.64736299999999        0.02190000000000       -0.00636200000000
C           70.22965599999999        0.02190000000000       -0.00636200000000
C           71.45157300000000        0.02190000000000       -0.00636200000000
C           81.03386599999999        0.02190000000000       -0.00636200000000
C           82.25578399999999        0.02190000000000       -0.00636200000000
Fe          65.42195900000000        0.02328300000000       -0.01675300000000
C           61.98541500000000       -0.02343700000000        0.00680900000000
C           62.64098400000000       -1.13287300000000       -0.38109100000000
C           62.00026100000000       -2.40392100000000       -0.72487700000000
C           62.93675900000000       -3.25108400000000       -1.10291000000000
C           64.23390300000000       -2.57126200000000       -1.02721500000000
N           64.05596799999999       -1.23125900000000       -0.56138800000000
C           65.41833000000000       -3.12709200000000       -1.36050400000000
C           65.45393400000000       -4.51044300000000       -1.88908900000000
C           64.93270000000000       -4.79865300000000       -3.16056100000000
C           64.98147200000000       -6.10281600000000       -3.66200600000000
C           65.55603000000001       -7.12746500000000       -2.89924100000000
C           65.60738300000000       -8.46976400000000       -3.41643000000000
N           65.64879700000000       -9.54891300000000       -3.83223200000000
C           66.08283200000000       -6.84258400000000       -1.63306200000000
C           66.03376700000000       -5.53887900000000       -1.13035000000000
C           66.71528200000000       -2.41781000000000       -1.21707800000000
C           67.98390100000000       -2.91431200000000       -1.76558100000000
C           68.93611400000000       -2.08069200000000       -1.39882800000000
N           66.88306000000000       -1.32088900000000       -0.54623900000000
C           68.28122000000000       -1.04065400000000       -0.61607400000000
C           68.89623100000000       -0.02343700000000        0.00680900000000
C           68.14527200000001        1.00432500000000        0.75764800000000
C           68.67801399999999        1.80864700000000        1.66861800000000
C           67.64574100000000        2.74584300000000        2.06971300000000
C           66.55431600000000        2.45183900000000        1.37233900000000
N           66.77966100000000        1.33659500000000        0.51188600000000
C           65.30113000000000        3.24379200000000        1.39885600000000
C           65.36329200000000        4.65129000000000        1.86387900000000
C           64.65406200000000        5.05731700000000        3.00643800000000
C           64.73082700000001        6.38082100000000        3.45030100000000
C           65.52228900000000        7.30795200000000        2.76096800000000
C           65.60114200000000        8.67043500000000        3.21849800000000
N           65.66450900000000        9.76583400000000        3.58631000000000
C           66.23923300000000        6.90565300000000        1.62719200000000
C           66.16271200000000        5.58245800000000        1.18213000000000
C           64.12964700000001        2.71665500000000        0.99330800000000
C           62.85436199999999        3.42093800000000        0.90777100000000
C           61.96627500000000        2.52556400000000        0.52650600000000
C           62.66340599999999        1.24558100000000        0.35917800000000
N           63.92793799999999        1.35139900000000        0.62700800000000
H           60.94557699999999       -2.64079300000000       -0.68343400000000
H           62.75052100000000       -4.27330300000000       -1.40552000000000
H           64.49133999999999       -4.01290800000000       -3.76138400000000
H           64.57373699999999       -6.31155600000000       -4.64378900000000
H           66.53160699999999       -7.62711900000000       -1.03571000000000
H           66.44547000000000       -5.32976600000000       -0.15052800000000
H           68.13349900000000       -3.80376200000000       -2.36343000000000
H           69.98541600000000       -2.17744500000000       -1.64410800000000
H           69.69986900000001        1.79725900000000        2.02348800000000
H           67.76014200000000        3.55874400000000        2.77510600000000
H           64.04598400000000        4.34757000000000        3.55386500000000
H           64.17594900000000        6.68003300000000        4.33145800000000
H           66.85711600000000        7.61389000000000        1.08832800000000
H           66.72260000000000        5.28348800000000        0.30439200000000
H           62.65076600000000        4.46578300000000        1.10216200000000
H           60.91617500000000        2.72676900000000        0.36310200000000
Fe          76.22616900000000        0.02328300000000       -0.01675300000000
C           72.78962500000000       -0.02343700000000        0.00680900000000
C           73.44519400000000       -1.13287300000000       -0.38109100000000
C           72.80447100000001       -2.40392100000000       -0.72487700000000
C           73.74096900000001       -3.25108400000000       -1.10291000000000
C           75.03811399999999       -2.57126200000000       -1.02721500000000
N           74.86017900000000       -1.23125900000000       -0.56138800000000
C           76.22254099999999       -3.12709200000000       -1.36050400000000
C           76.25814500000000       -4.51044300000000       -1.88908900000000
C           75.73690999999999       -4.79865300000000       -3.16056100000000
C           75.78568199999998       -6.10281600000000       -3.66200600000000
C           76.36024100000000       -7.12746500000000       -2.89924100000000
C           76.41159300000000       -8.46976400000000       -3.41643000000000
N           76.45300800000000       -9.54891300000000       -3.83223200000000
C           76.88704299999999       -6.84258400000000       -1.63306200000000
C           76.83797800000001       -5.53887900000000       -1.13035000000000
C           77.51949300000000       -2.41781000000000       -1.21707800000000
C           78.78811100000000       -2.91431200000000       -1.76558100000000
C           79.74032400000000       -2.08069200000000       -1.39882800000000
N           77.68727100000000       -1.32088900000000       -0.54623900000000
C           79.08543100000000       -1.04065400000000       -0.61607400000000
C           79.70044200000000       -0.02343700000000        0.00680900000000
C           78.94948200000000        1.00432500000000        0.75764800000000
C           79.48222399999999        1.80864700000000        1.66861800000000
C           78.44995199999998        2.74584300000000        2.06971300000000
C           77.35852700000000        2.45183900000000        1.37233900000000
N           77.58387200000000        1.33659500000000        0.51188600000000
C           76.10534100000000        3.24379200000000        1.39885600000000
C           76.16750300000000        4.65129000000000        1.86387900000000
C           75.45827199999999        5.05731700000000        3.00643800000000
C           75.53503800000000        6.38082100000000        3.45030100000000
C           76.32650000000000        7.30795200000000        2.76096800000000
C           76.40535199999998        8.67043500000000        3.21849800000000
N           76.46871899999998        9.76583400000000        3.58631000000000
C           77.04344399999998        6.90565300000000        1.62719200000000
C           76.96692299999999        5.58245800000000        1.18213000000000
C           74.93385700000000        2.71665500000000        0.99330800000000
C           73.65857300000000        3.42093800000000        0.90777100000000
C           72.77048600000001        2.52556400000000        0.52650600000000
C           73.46761600000001        1.24558100000000        0.35917800000000
N           74.73214900000001        1.35139900000000        0.62700800000000
H           71.74978700000000       -2.64079300000000       -0.68343400000000
H           73.55473199999999       -4.27330300000000       -1.40552000000000
H           75.29554999999999       -4.01290800000000       -3.76138400000000
H           75.37794800000000       -6.31155600000000       -4.64378900000000
H           77.33581799999999       -7.62711900000000       -1.03571000000000
H           77.24968000000000       -5.32976600000000       -0.15052800000000
H           78.93771000000000       -3.80376200000000       -2.36343000000000
H           80.78962600000000       -2.17744500000000       -1.64410800000000
H           80.50408000000000        1.79725900000000        2.02348800000000
H           78.56435299999998        3.55874400000000        2.77510600000000
H           74.85019400000000        4.34757000000000        3.55386500000000
H           74.98016000000000        6.68003300000000        4.33145800000000
H           77.66132700000000        7.61389000000000        1.08832800000000
H           77.52681000000000        5.28348800000000        0.30439200000000
H           73.45497700000000        4.46578300000000        1.10216200000000
H           71.72038499999999        2.72676900000000        0.36310200000000
236
 energy: -423.619483337833 gnorm: 0.320198092100 xtb: 6.5.1 (b24c23e)
Fe          53.84942678055270        0.00297403539903       -0.00516917856996
C           50.49771170461283        0.09531883157583        0.06180140383761
C           51.16653828972020        1.26048068368383        0.22390345062777
C           50.51127885729642        2.55083371657396        0.35940836038606
C           51.46336455423257        3.47034923129395        0.53454473797521
C           52.75654373380356        2.78507855374453        0.52592002698293
N           52.56479114177051        1.40174730828550        0.31506159392336
C           53.96394213980115        3.39481523913330        0.71078342264070
C           54.00322744064006        4.86017327349098        0.96506635075228
C           53.51269863079749        5.39379935263187        2.16438544397672
C           53.57485924551617        6.76254667087581        2.40621721840033
C           54.12532093342831        7.62246584215947        1.44846395426923
C           54.19113046825588        9.03392163767943        1.69639128889484
N           54.24383045308337       10.16634179014158        1.89532579146088
C           54.61269966057806        7.09357757781795        0.24745317605050
C           54.55215720076887        5.72429666463573        0.00999216777508
C           55.23193983688968        2.67619390620054        0.67869920285515
C           56.50522639064007        3.26294810445862        1.08380250938129
C           57.45405853607489        2.33607048668208        0.89765402192625
N           55.39632540430197        1.42783361826332        0.27623702457781
C           56.79764761995430        1.15432099255763        0.37231716161997
C           57.41043647330707        0.00604440656217       -0.01698178347102
C           56.61794284413218       -1.12842552784733       -0.49851986929058
C           57.14429060934963       -2.15310431666751       -1.22721986065079
C           56.11704713421479       -3.11759797809514       -1.43049988121133
C           54.99088360107423       -2.64880349717369       -0.81957475261386
N           55.23369282972212       -1.37204045272363       -0.25122803917583
C           53.73512147815474       -3.40121292866202       -0.74725096964883
C           53.75311813543416       -4.87372621382744       -0.98275944497273
C           53.06019363635861       -5.44490362113042       -2.06143158468012
C           53.10035749536965       -6.81872240707503       -2.28355893906454
C           53.83064435541534       -7.65000904715707       -1.42614636032079
C           53.87457690882263       -9.06606304954885       -1.65363162690102
N           53.90960706988361      -10.20201198206124       -1.83578318770951
C           54.51983035702771       -7.08673744883405       -0.34573860885988
C           54.48106899206967       -5.71279033763999       -0.12886187783530
C           52.55857166954547       -2.78822773398574       -0.46621328719707
C           51.25815027673240       -3.42721253484582       -0.32234720996664
C           50.37637692580628       -2.44290267711118       -0.10490388582575
C           51.11709317237487       -1.19092362828331       -0.09925739191653
N           52.40534750950528       -1.38879976076581       -0.29913273488541
H           49.41432089087989        0.13241692442096        0.05398365715767
H           49.44741091857498        2.74657420082270        0.32229094784931
H           51.27837492391274        4.52939525431358        0.65640934123767
H           53.09136443310742        4.73736547236663        2.91893971575407
H           53.19762679736116        7.15988108932421        3.34251920581883
H           55.04356818877896        7.74910559471996       -0.50164726308208
H           54.93264269030772        5.32685363769005       -0.92529980002233
H           56.67552614590034        4.25483717514058        1.47170055995193
H           58.50714512993975        2.46198811645077        1.10250061820188
H           58.16570321037102       -2.22144166999387       -1.56147314347849
H           56.21109380009826       -4.05694865343592       -1.95403019584848
H           52.49873130621957       -4.81387986573511       -2.74273687721291
H           52.56617717248017       -7.24282282460065       -3.12761844970798
H           55.09202237677713       -7.71961068847055        0.32436889487130
H           55.01910464020624       -5.29133604331409        0.71356196075195
H           51.02296780792099       -4.48225870193268       -0.37399252424896
H           49.31616562382060       -2.56865204308070        0.04590971428858
Fe          87.83186661165186        0.04090800388159       -0.00614387327127
C           91.18351101866186       -0.04770293125080        0.06566068123485
C           90.51469800884006       -1.20242669148898        0.29060484599695
C           91.16996951059116       -2.48354625644657        0.49577940324570
C           90.21788212552579       -3.39222802784154        0.72044142121173
C           88.92471723390304       -2.70837977774865        0.67466125438268
N           89.11657345621468       -1.33866700456005        0.38940778886898
C           87.71720439270581       -3.30722412099557        0.89233960346095
C           87.67795745691828       -4.75668772657357        1.22559240587994
C           88.16852742645439       -5.22460760908169        2.45201941011591
C           88.10637874788634       -6.57825613226945        2.76758804640398
C           87.55591078509522       -7.48876273887884        1.85779300530537
C           87.49010320547136       -8.88472631130916        2.18176931491733
N           87.43738561148368      -10.00471406647837        2.44173426817226
C           87.06853040762455       -7.02567623333023        0.62991237176589
C           87.12907200344215       -5.67125461983011        0.31868051430333
C           86.44939621368427       -2.59146084937320        0.82140067084658
C           85.17590683195648       -3.15538943497045        1.25767140756547
C           84.22694688261872       -2.24012066521922        1.02166717215577
N           86.28511004848855       -1.36674804415619        0.35175287283946
C           84.88374934638675       -1.08874951786078        0.43304471765466
C           84.27227089647940        0.03645960122633       -0.01825240947970
C           85.06344651275384        1.14386692406193       -0.56011272758932
C           84.53687686759429        2.12773409329938       -1.34324145535312
C           85.56402314333833        3.07962547192733       -1.59838312340554
C           86.69029682940874        2.64459796286513       -0.96295387809173
N           86.44757800253785        1.40062971821042       -0.32613422092398
C           87.94604624394947        3.39983513797407       -0.93148318768321
C           87.92808103063521        4.85747097776467       -1.24637248909716
C           88.62103179481515        5.36942411724244       -2.35436966367724
C           88.58087359197437        6.72920875337689       -2.65054069292065
C           87.85058419685645        7.60569407086416       -1.83938919713809
C           87.80665579347263        9.00735569668551       -2.14320444210463
N           87.77161289221888       10.13177712327496       -2.38660922196206
C           87.16140192921651        7.10173963427871       -0.73007196184982
C           87.20016077169319        5.74154538086267       -0.43913634561010
C           89.12262770536248        2.80297156259329       -0.61763900931029
C           90.42306982420787        3.44882976689576       -0.50860957010465
C           91.30484390018843        2.47774455453237       -0.23819998006261
C           90.56413353060482        1.22787960655062       -0.16478133457393
N           89.27583557496133        1.41467062822660       -0.37506766729836
H           92.26690465983123       -0.08517144811825        0.05988459993220
H           92.23383215315862       -2.68099965253882        0.46931262695206
H           90.40285470036709       -4.44312024356271        0.89946054545223
H           88.58986273627646       -4.52828571005198        3.16992639885091
H           88.48360321368556       -6.92431741867012        3.72403023156894
H           86.63766145523914       -7.72079205036365       -0.08260252667431
H           86.74858938798108       -5.32502364054680       -0.63676283854125
H           85.00566065550494       -4.12480810957875        1.69869327276713
H           83.17389658726323       -2.35456691608702        1.23289936643625
H           83.51553902640454        2.17776704829937       -1.68060413606264
H           85.47006098175902        3.98927623389420       -2.17196412626935
H           89.18249604704198        4.70244860593919       -3.00052003214344
H           89.11505209397235        7.10699224812432       -3.51632625283534
H           86.58920620947823        7.76995971633185       -0.09521391984131
H           86.66212102059387        5.36632091426727        0.42486475443467
H           90.65825236328561        4.49953891304557       -0.61729393476961
H           92.36505619923553        2.61148307288067       -0.09441446501758
C           59.33183279158447        0.01848267741114       -0.00639029175419
C           60.56569741562701        0.02654845015039       -0.00392966826979
C           70.23073117447470        0.03324834609836        0.00285790706377
C           71.44367809703128        0.03088380660658       -0.00331625301487
C           81.10925430085831        0.03289708394584        0.00229802207438
C           82.34429337975115        0.02353968127311       -0.00678110273002
Fe          65.41306905087811        0.02086695855085       -0.01207877421626
C           61.96916802841169       -0.00263561956022        0.00253579052702
C           62.64774535688807       -1.13222595882818       -0.38158239722983
C           62.00204507846765       -2.39176734481932       -0.72078719505335
C           62.95099752097187       -3.24958846944897       -1.10363250795745
C           64.23544057042270       -2.56267997153044       -1.02407176574972
N           64.04521358137106       -1.24358555053158       -0.55263105988949
C           65.43302736237925       -3.12411221113447       -1.36294645641674
C           65.46064226287960       -4.51151802007088       -1.89273959446654
C           64.93351996226001       -4.80421176945522       -3.15688661717205
C           64.98207982545422       -6.10085520158818       -3.65803619154179
C           65.55603672970869       -7.12785985509335       -2.89938016781800
C           65.60722984604490       -8.46558337383139       -3.41486548279218
N           65.64840834371782       -9.53886495642207       -3.82837445240230
C           66.08115483681927       -6.83889067145765       -1.63428196302285
C           66.03446788720676       -5.54080195968121       -1.13715918048084
C           66.70334636749237       -2.43859924011794       -1.22513932217492
C           67.96390855556146       -2.93107733179356       -1.76786963794703
C           68.92470912365316       -2.07501163531148       -1.39376320347392
N           66.87928686785276       -1.31258190739818       -0.56043664861474
C           68.26032733320854       -1.04724261148960       -0.62141232885018
C           68.86669792984321       -0.01098072069831        0.01556454688393
C           68.12389433415105        1.00665747562868        0.74627525465903
C           68.67762020122784        1.82880787871547        1.67843772286508