171
 energy: -289.840149712323 gnorm: 0.536759282594 xtb: 6.5.1 (b24c23e)
Co          30.67435600000000        0.06516700000000        0.01474200000000
C           27.33779300000000       -0.09090400000000        0.00432900000000
C           28.00190200000000       -1.24310800000000       -0.12349900000000
C           27.35222300000000       -2.53984900000000       -0.27388900000000
C           28.29405200000000       -3.46356200000000       -0.32128100000000
C           29.59888100000000       -2.79914100000000       -0.20181300000000
N           29.42059500000000       -1.38756200000000       -0.08137700000000
C           30.78908500000000       -3.43086700000000       -0.15663300000000
C           32.08271800000000       -2.71483000000000       -0.00616500000000
C           33.37326100000000       -3.38962800000000        0.17874600000000
C           34.30797600000000       -2.46315200000000        0.23654000000000
N           32.22333600000000       -1.42577500000000       -0.06613300000000
C           33.62284100000000       -1.18573800000000        0.08113900000000
C           34.21741400000000        0.01669000000000        0.01045000000000
C           33.45640000000000        1.27427300000000       -0.16846000000000
C           33.99336800000000        2.41934400000000       -0.57066400000000
C           32.94963300000000        3.42409500000000       -0.52860600000000
C           31.84361600000000        2.82765000000000       -0.09931300000000
C           30.55850700000000        3.52966300000000        0.15189000000000
C           30.57762700000000        5.00446400000000        0.30985100000000
C           29.91836400000000        5.83041600000000       -0.61639700000000
C           29.95706600000000        7.22052900000000       -0.47130000000000
C           30.65862100000000        7.79448900000000        0.59267500000000
C           31.32466500000000        6.97925500000000        1.51217400000000
C           31.28787000000000        5.58860200000000        1.37125000000000
C           29.39345900000000        2.85966100000000        0.24059300000000
C           28.08110000000000        3.44059700000000        0.51937600000000
C           27.21950700000000        2.44352500000000        0.46689200000000
C           27.97248900000000        1.22657600000000        0.16860900000000
N           29.24064000000000        1.45668400000000        0.03517600000000
N           32.07337500000000        1.43902300000000        0.14771000000000
C           30.82786600000000       -4.90577700000000       -0.24854100000000
C           30.72687700000000       -5.53792800000000       -1.49743700000000
C           30.76497000000000       -6.93317700000000       -1.58202900000000
C           30.90488500000000       -7.70171000000000       -0.42242900000000
C           31.00673400000000       -7.07612800000000        0.82382200000000
C           30.96835200000000       -5.68117700000000        0.91267400000000
H           26.25439100000000       -0.11950400000000        0.00134000000000
H           26.28789700000000       -2.72956600000000       -0.32841300000000
H           28.10861900000000       -4.52542800000000       -0.41906600000000
H           33.55068000000000       -4.45447800000000        0.25085100000000
H           35.36664700000000       -2.64763600000000        0.36139200000000
H           35.02270799999999        2.58702600000000       -0.85782500000000
H           33.06248400000000        4.47073800000000       -0.78002500000000
H           29.37950500000000        5.39710500000000       -1.45007800000000
H           29.44579400000000        7.85296900000000       -1.18545300000000
H           30.68852200000000        8.87075800000000        0.70297000000000
H           31.87046600000000        7.42501600000000        2.33364600000000
H           31.80896000000000        4.96670900000000        2.08887000000000
H           27.83625600000000        4.47280600000000        0.73231400000000
H           26.15223200000000        2.52499300000000        0.62576700000000
H           30.61880200000000       -4.95037900000000       -2.40089600000000
H           30.68640600000000       -7.41864000000000       -2.54615100000000
H           30.93452300000000       -8.78152900000000       -0.48956700000000
H           31.11533100000000       -7.67213700000000        1.72067900000000
H           31.04798900000000       -5.20489200000000        1.88218300000000
Co          53.95073899999999       -0.03192800000000        0.01263300000000
C           57.28730199999999        0.12444700000000        0.00900700000000
C           56.62319300000000        1.28111500000000       -0.06867000000000
C           57.27287100000000        2.58316400000000       -0.16261100000000
C           56.33104199999999        3.50806300000000       -0.16984900000000
C           55.02621300000000        2.83908100000000       -0.07934400000000
N           55.20449900000000        1.42360400000000       -0.02031500000000
C           53.83600999999999        3.46825000000000       -0.00677600000000
C           52.54237700000000        2.74635400000000        0.11245800000000
C           51.25183400000000        3.41248700000000        0.32649600000000
C           50.31711799999999        2.48437500000000        0.34400600000000
N           52.40175900000000        1.46111900000000       -0.00342700000000
C           51.00225400000000        1.21491400000000        0.13328400000000
C           50.40768000000000        0.01669000000000        0.01045000000000
C           51.16869400000000       -1.23193900000000       -0.22289800000000
C           50.63172600000000       -2.35846500000000       -0.67444400000000
C           51.67546100000000       -3.36409500000000       -0.67605400000000
C           52.78147900000000       -2.78685300000000       -0.22126700000000
C           54.06658700000000       -3.49911200000000       -0.00078300000000
C           54.04746699999999       -4.97938100000000        0.09299000000000
C           54.70672999999999       -5.76433400000000       -0.86824900000000
C           54.66802800000000       -7.15943700000000       -0.78365000000000
C           53.96647300000000       -7.77905500000000        0.25440000000000
C           53.30043000000000       -7.00451600000000        1.20843000000000
C           53.33722399999999       -5.60905600000000        1.12802400000000
C           55.23163500000000       -2.83359300000000        0.11692900000000
C           56.54399400000000       -3.42608700000000        0.37022400000000
C           57.40558700000000       -2.42767600000000        0.36108400000000
C           56.65260500000000       -1.19892300000000        0.11592400000000
N           55.38445400000000       -1.42302000000000       -0.02737400000000
N           52.55172000000000       -1.41026200000000        0.08582100000000
C           53.79722899999999        4.94575900000000       -0.03455400000000
C           53.89821700000000        5.63154400000000       -1.25482200000000
C           53.86012499999999        7.02915000000000       -1.27875000000000
C           53.72020900000000        7.74660600000000       -0.08687300000000
C           53.61836100000000        7.06749900000000        1.13103800000000
C           53.65674200000000        5.67000600000000        1.15923500000000
H           58.37070300000000        0.15315000000000        0.00726300000000
H           58.33719700000000        2.77506900000000       -0.20884500000000
H           56.51647500000000        4.57317400000000       -0.22143300000000
H           51.07441400000000        4.47320200000000        0.44477100000000
H           49.25844799999999        2.66326400000000        0.47675100000000
H           49.60238600000000       -2.51352000000000       -0.96861500000000
H           51.56261100000000       -4.39883300000000       -0.97268200000000
H           55.24558999999999       -5.29523200000000       -1.68232800000000
H           55.17929999999999       -7.76027000000000       -1.52459100000000
H           53.93657300000000       -8.85909800000000        0.31785600000000
H           52.75462800000000       -7.48552600000000        2.00977100000000
H           52.81613500000000       -5.01890900000000        1.87197000000000
H           56.78883900000000       -4.46656800000000        0.53814000000000
H           58.47286300000000       -2.51596600000000        0.51627200000000
H           54.00629200000000        5.08377900000000       -2.18294200000000
H           53.93868899999999        7.55601900000000       -2.22088400000000
H           53.69057100000000        8.82832100000000       -0.10706000000000
H           53.50976299999999        7.62400300000000        2.05292900000000
H           53.57710500000000        5.15207200000000        2.10714900000000
C           36.32264800000000        0.01669000000000        0.01045000000000
C           37.54456600000000        0.01669000000000        0.01045000000000
C           47.08052899999999        0.01669000000000        0.01045000000000
C           48.30244600000000        0.01669000000000        0.01045000000000
Co          42.24455799999999        0.06175900000000        0.01951600000000
C           38.87035100000000       -0.03520000000000       -0.02204000000000
C           39.52917200000000       -1.20827200000000       -0.02684900000000
C           38.88372400000000       -2.52296100000000       -0.01492800000000
C           39.82347000000000       -3.44564400000000       -0.02320700000000
C           41.12713300000000       -2.77572600000000       -0.04459600000000
N           40.95119800000000       -1.35720500000000       -0.04367600000000
C           42.31366400000000       -3.41497400000000       -0.06304000000000
C           43.62278700000000       -2.71888300000000       -0.08871900000000
C           44.90774900000000       -3.42247400000000       -0.18674800000000
C           45.86239500000000       -2.51828000000000       -0.18104400000000
N           43.78370400000000       -1.43213500000000       -0.02475300000000
C           45.19625600000000       -1.22491100000000       -0.07725300000000
C           45.81832200000000       -0.03520000000000       -0.02204000000000
C           45.09399300000000        1.25315600000000        0.09209200000000
C           45.69474000000000        2.42557300000000        0.24650400000000
C           44.66417100000000        3.43840000000000        0.28609900000000
C           43.49476700000000        2.82481500000000        0.14632600000000
C           42.18795600000000        3.53421700000000        0.11026300000000
C           42.19711900000000        5.01638600000000        0.13291100000000
C           41.82948500000000        5.70888700000000        1.29796700000000
C           41.85353400000000        7.10669300000000        1.32142500000000
C           42.25025000000000        7.81879900000000        0.18531900000000
C           42.62065299999999        7.13443800000000       -0.97624000000000
C           42.59645200000000        5.73633000000000       -1.00422800000000
C           41.00585600000000        2.88916000000000        0.05766500000000
C           39.69719700000000        3.53286700000000       -0.00763400000000
C           38.81150900000000        2.56149900000000       -0.04886800000000
C           39.53980600000000        1.28863200000000       -0.01188000000000
N           40.82457099999999        1.47166800000000        0.04906900000000
N           43.67376400000000        1.41185500000000        0.02188800000000
C           42.33544500000000       -4.89361900000000       -0.06914800000000
C           42.19478099999999       -5.59714000000000       -1.27554200000000
C           42.23244100000000       -6.99483100000000       -1.27986900000000
C           42.41159800000000       -7.69449100000000       -0.08275300000000
C           42.55200599999999       -6.99726400000000        1.12124400000000
C           42.51656900000000       -5.59966200000000        1.12952600000000
H           37.82344699999999       -2.73699400000000        0.00142200000000
H           39.63716299999999       -4.51196500000000       -0.01243000000000
H           45.06425300000000       -4.49046300000000       -0.25708100000000
H           46.92153799999999       -2.72844500000000       -0.24383400000000
H           46.75749800000000        2.60948300000000        0.32414400000000
H           44.82992700000000        4.50043000000000        0.40029700000000
H           41.52915500000000        5.16610500000000        2.18524500000000
H           41.56791400000000        7.63847700000000        2.22063400000000
H           42.27073399999999        8.90045400000000        0.20684400000000
H           42.93008300000000        7.68679800000000       -1.85411500000000
H           42.89013100000000        5.21493000000000       -1.90707200000000
H           39.46995000000000        4.59142500000000       -0.02563500000000
H           37.74137200000000        2.70683500000000       -0.10356700000000
H           42.05951699999999       -5.06307400000000       -2.20773500000000
H           42.12525299999999       -7.53587200000000       -2.21107800000000
H           42.44238900000000       -8.77596300000000       -0.08762700000000
H           42.69074499999999       -7.54073600000000        2.04715400000000
H           42.62999700000000       -5.06707700000000        2.06547700000000
171
 energy: -290.002016394542 gnorm: 0.305424847292 xtb: 6.5.1 (b24c23e)
Co          30.68954423280415        0.04941567689469        0.01442649254103
C           27.33827558112129       -0.07125601992951        0.00730414559280
C           28.01008342980720       -1.23926120929299       -0.12299954847635
C           27.35581300243526       -2.52930567795943       -0.27328067315121
C           28.30994682835947       -3.46156217560003       -0.32088174499666
C           29.60342161711693       -2.78577265069496       -0.20206792555325
N           29.40725834998736       -1.39331909121431       -0.08320435279728
C           30.80929239283532       -3.42256169466539       -0.15494955478139
C           32.07673311583336       -2.72282346226560       -0.00662215097085
C           33.35734218519310       -3.39908791067928        0.17525839145840
C           34.30658092704509       -2.45583955915079        0.23550923060936
N           32.23894229812392       -1.40963351533460       -0.05429947717756
C           33.64455999416983       -1.17449353541624        0.08065198602502
C           34.25630125356363        0.03556475794837        0.00375840771351
C           33.46575233744391        1.25763918447960       -0.15537011164702
C           33.99968866898051        2.44296695339895       -0.57151377923407
C           32.97318483836018        3.42468423681167       -0.52839440565703
C           31.83620753712544        2.80895712709523       -0.08820079857419
C           30.57701769741414        3.51657049961639        0.15171838970303
C           30.59001588894871        5.00037682732560        0.30376741952170
C           29.92129644241271        5.82911389042958       -0.61009231035623
C           29.95970967247574        7.21452562923035       -0.46632419797623
C           30.65846575971281        7.78858771150780        0.59210595477714
C           31.32073316932083        6.97525549177688        1.50752093301156
C           31.28863136696508        5.59026381974178        1.36511456990540
C           29.39811511031119        2.85169499802629        0.24137132946770
C           28.09261485370960        3.43460073479257        0.51659456664819
C           27.21065205744335        2.42750338035609        0.46313787161080
C           27.95609179193224        1.21404157589841        0.16760943663063
N           29.24959437655503        1.45442869758851        0.04785350072623
N           32.07596166051219        1.42762146668807        0.12664977571956
C           30.83579923179511       -4.90728613857367       -0.24821120822512
C           30.72736519751484       -5.54077148421788       -1.49164951322797
C           30.76488158462923       -6.93023187734265       -1.57601867295560
C           30.90479618216979       -7.69661739201636       -0.42209309181611
C           31.00594472297331       -7.07299949958130        0.81858518597144
C           30.97044939878105       -5.68407805665870        0.90743548780644
H           26.25498254665130       -0.10955630643331        0.00341894079699
H           26.29084565856343       -2.71561262193014       -0.32749320353379
H           28.12772914076868       -4.52392204171182       -0.41867898155518
H           33.53488602071152       -4.46066969493099        0.24922918182009
H           35.36489373117803       -2.63451046492389        0.36072828666050
H           35.02554447199702        2.59870331918817       -0.86028872712945
H           33.07073431671921        4.46945054586412       -0.78220298023074
H           29.38241876683565        5.39558991085476       -1.44641660165037
H           29.44755812282450        7.84894601159366       -1.18306419465913
H           30.68843243986251        8.86751799137018        0.70247499155396
H           31.86821629437722        7.42233965212655        2.33107805429515
H           31.80729811007294        4.96684896266046        2.08572321554966
H           27.85334333253135        4.46885787264678        0.72920082627013
H           26.14733005125790        2.51241940347450        0.62363686542166
H           30.61965846548964       -4.95066441400542       -2.39621853954129
H           30.68655669477239       -7.41639969708207       -2.54303218301986
H           30.93447375344238       -8.77882324173209       -0.48946026584264
H           31.11468156514530       -7.66998820022205        1.71805228135807
H           31.04779112854285       -5.20511155262112        1.87813991799608
Co          53.93563247267961       -0.01619542920464        0.01302083356790
C           57.28681730135291        0.10467249439469        0.01112133787782
C           56.61501403307636        1.27726399881040       -0.06835749945664
C           57.26929570827411        2.57262278523732       -0.16246139509855
C           56.31516199415162        3.50605811904156       -0.16953423985803
C           55.02169049680716        2.82570844480666       -0.08020199523076
N           55.21794518079106        1.42956608040080       -0.02184196605218
C           53.81574303317791        3.45989016913402       -0.00545434829201
C           52.54848585521825        2.75443481324406        0.11233408155534
C           51.26767679956964        3.42203795930092        0.32343624073683
C           50.31852210674375        2.47708080585803        0.34267976117508
N           52.38649819779240        1.44449682267197        0.00762412587110
C           50.98101862209953        1.20364198877077        0.13233124295333
C           50.37094965743216       -0.00258736236204        0.00312105004832
C           51.15973961308612       -1.21644422831822       -0.20925646091405
C           50.62542505662347       -2.38241685668838       -0.67642495965365
C           51.65183150789434       -3.36484018222168       -0.67589608499338
C           52.78889271327266       -2.76874532086772       -0.20940184727676
C           54.04806784696292       -3.48602075752629       -0.00041163246573
C           54.03506809950300       -4.97503683846562        0.08707758762243
C           54.70379638242242       -5.76330830515409       -0.86189662943368
C           54.66538726320837       -7.15365607996924       -0.77841512084723
C           53.96662870895612       -7.77313383688440        0.25408896172094
C           53.30436323031896       -7.00031835649563        1.20395676963920
C           53.33646411642235       -5.61044897835771        1.12182125423221
C           55.22696164645302       -2.82563611512314        0.11807045150196
C           56.53247541621036       -3.41995995032766        0.36770696732153
C           57.41443479626088       -2.41149733475938        0.35802498962444
C           56.66900506477744       -1.18632073573971        0.11546286371444
N           55.37547225534292       -1.42130568167726       -0.01458614998385
N           52.54924107173672       -1.39819955759736        0.06546253683654
C           53.78927189304221        4.94727432978272       -0.03415365725796
C           53.89772923978676        5.63413552821728       -1.24891664016209
C           53.86021905655918        7.02594819668102       -1.27287135598673
C           53.72030146831838        7.74150178401119       -0.08675648645935
C           53.61915481848096        7.06460521018555        1.12567400057986
C           53.65464836846860        5.67313875236628        1.15413538186109
H           58.37011084588930        0.14311021654125        0.00891933921551
H           58.33425951833117        2.76109761780849       -0.20853121255276
H           56.49736408200832        4.57166074972782       -0.22110944903913
H           51.09013742590468        4.47939863775798        0.44341060899390
H           49.26021163401564        2.65009786048037        0.47547768631069
H           49.59951654168739       -2.52521304225453       -0.97161047718216
H           51.55432479848292       -4.39754435980423       -0.97481898880800
H           55.24267633496564       -5.29387779259691       -1.67860536567189
H           55.17753674214687       -7.75635469472603       -1.52202858977790
H           53.93666140810158       -8.85583858067000        0.31750274086034
H           52.75687745546165       -7.48273942303984        2.00732159900893
H           52.81779676450088       -5.01891249215097        1.86882033031942
H           56.77174629490878       -4.46247906288099        0.53519962533965
H           58.47775863204721       -2.50331111182098        0.51468763492576
H           54.00543108176432        5.08385960778274       -2.17825558847468
H           53.93853617061099        7.55364343736034       -2.21786431846122
H           53.69061716278672        8.82561116481822       -0.10707028873228
H           53.51040875155152        7.62197038775068        2.05021270134031
H           53.57729792335285        5.15246775228617        2.10312171884855
C           36.22475864784678        0.01375041392723        0.00805329537572
C           37.45825437576738        0.02080657058041        0.01070576075670
C           47.17791912982531        0.03084693585796        0.00787337021470
C           48.41183793527939        0.01656262908407        0.00946187495310
Co          42.25670440348852        0.04913982619466        0.01586608763857
C           38.85521227893917       -0.01465844489981       -0.01934322434038
C           39.53545707230896       -1.20622187149766       -0.02576700629586
C           38.88554698832001       -2.50917377776821       -0.01488257275495
C           39.83882467968859       -3.44310271241886       -0.02322599356541
C           41.12983663473658       -2.76308757698432       -0.04396264318682
N           40.93615311008649       -1.36115103796472       -0.04166713047980
C           42.32964249003912       -3.41043109808306       -0.06387763942612
C           43.61041081602973       -2.73554995403087       -0.08858266078926
C           44.88688687076156       -3.43516080869082       -0.18615941590875
C           45.85307446111896       -2.50840148466843       -0.18047954610615
N           43.78370367266199       -1.42730324105384       -0.02965842977134
C           45.18173716702341       -1.22717586359569       -0.07758374283365
C           45.80710477660485       -0.01740791059092       -0.01404470083562
C           45.06923835863326        1.24365053070421        0.08935675909672
C           45.69197991123528        2.44774778881159        0.24730134449783
C           44.68285247072236        3.44163901522580        0.28549043373554
C           43.47894428299073        2.81029250653270        0.14243257554893
C           42.20486816873857        3.52130914851511        0.11071131729090
C           42.20913119445036        5.01332987597324        0.13532396055456
C           41.83123093906280        5.70935997442487        1.29168081455779
C           41.85492256725868        7.10208139106206        1.31520489077137
C           42.24986085656955        7.81301158757392        0.18510576372469
C           42.61843126379223        7.13017556544397       -0.97086378443810
C           42.59840566562804        5.73761964250799       -0.99799088125391
C           41.01062156280269        2.88126783415190        0.05789561135350
C           39.70948599744631        3.52651351734715       -0.00710358007153
C           38.80206065769815        2.54382969897957       -0.04873625661206
C           39.52481366044228        1.27990146147851       -0.01208422788969
N           40.83079293728790        1.47167639239515        0.04557968721410
N           43.66427994130426        1.41229727023680        0.02757532237979
C           42.34219946931134       -4.89693928847312       -0.07003032411336
C           42.19560104276928       -5.60051718424673       -1.27033650074312
C           42.23270953350091       -6.99211607140687       -1.27429808910172
C           42.41131809386756       -7.68951038316557       -0.08263125166876
C           42.55103361774418       -6.99468070812832        1.11584587593690
C           42.51754649372045       -5.60313992105273        1.12429495018266
H           37.82423411591732       -2.71885758566685        0.00118225829469
H           39.65569866525014       -4.50980850554422       -0.01307872851811
H           45.04865078372308       -4.49832638401252       -0.25643463681191
H           46.91553667780963       -2.71025097849630       -0.24237456147352
H           46.75563448361437        2.61634654620486        0.32501024067175
H           44.83779108215198        4.50207494785225        0.40104230063626
H           41.53050714546686        5.16535813247380        2.18097098976512
H           41.56899986349436        7.63493364316729        2.21704320037275
H           42.27068617280248        8.89740527508162        0.20659034444455
H           42.92846946413137        7.68397396572925       -1.85126703216377
H           42.88891524635559        5.21492329690699       -1.90331471693487
H           39.48760774708748        4.58631146585686       -0.02468349081311
H           37.73525888381325        2.69114402545832       -0.10359255205027
H           42.06015914251000       -5.06328259186242       -2.20342277967231
H           42.12540611748422       -7.53377799752063       -2.20829438329603
H           42.44223667754006       -8.77353311996688       -0.08764158384127
H           42.69013593240998       -7.53862912993473        2.04438533015565
H           42.62962457151357       -5.06744863475924        2.06133858973019
171
 energy: -290.116665508277 gnorm: 0.134616779599 xtb: 6.5.1 (b24c23e)
Co          30.71641504679086        0.03463791299713        0.01565492018370
C           27.34357405098647       -0.05007781135000        0.01090793620703
C           28.02337414279474       -1.23796683647271       -0.12441486647953
C           27.36350076750072       -2.51739540927180       -0.27240285319827
C           28.32898138176073       -3.45630292262929       -0.32037570321865
C           29.60702537022401       -2.76905399665192       -0.20291866778975
N           29.39334653005954       -1.40202183840161       -0.08525015663950
C           30.83474079943828       -3.40728089962577       -0.15242553615107
C           32.07059461739682       -2.72699235792608       -0.00666798667166
C           33.34003591666310       -3.40095993425183        0.17001946267082
C           34.30162722986101       -2.44886221119385        0.23278227701091
N           32.26067919461022       -1.38304769920624       -0.04004419306740
C           33.67009909205312       -1.16635539815771        0.08493546773678
C           34.33291615062956        0.05172509861183       -0.00300650995003
C           33.49200940786572        1.23433024695336       -0.14493399380635
C           34.00637008800579        2.47171868084594       -0.56614323568271
C           33.00474557761905        3.41761919352882       -0.52266340109143
C           31.83238221369926        2.78188948481157       -0.07897251820731
C           30.60640758167794        3.49475400019686        0.14893617748829
C           30.60610026274096        4.99037785593502        0.29471606885521
C           29.92650565421379        5.82385906630670       -0.60572978585339
C           29.96167577448113        7.20631173870109       -0.46186804241962
C           30.65838384125164        7.78294161697284        0.59163576459472
C           31.31788466016107        6.97001735292125        1.50335339996105
C           31.29138736309150        5.58881959170026        1.35803299503398
C           29.40340147880315        2.83541201691947        0.24607092817159
C           28.10825259911337        3.42240456767648        0.51241805653834
C           27.20834987087248        2.41140608312221        0.45651865203195
C           27.93927022146090        1.19939522540584        0.16759775014539
N           29.26325027622064        1.45261882839173        0.06392931373756
N           32.09644653589285        1.41476720325018        0.10062149114687
C           30.84376612346834       -4.90383989256642       -0.24720649267984
C           30.72884187162467       -5.54039206997559       -1.48617085537703
C           30.76449031203504       -6.92623650740283       -1.57083601969550
C           30.90466103201279       -7.69249897201512       -0.42175373906204
C           31.00520288315820       -7.06946497230974        0.81459325466652
C           30.97297964293011       -5.68432701141659        0.90330685900418
H           26.25911931877849       -0.10243579618676        0.00708717485182
H           26.29766156749167       -2.69881722278563       -0.32609300411753