262
 energy: -519.177172944172 gnorm: 0.000353347023 xtb: 6.5.1 (b24c23e)
Fe          40.81825006377995        0.00409512804853       -0.07264315063930
C           37.43153019861371       -0.02136656252992       -0.19100910800805
C           38.08633052193078       -1.23523538204375       -0.21559557759100
C           37.41497568378045       -2.49922282238750       -0.26086260582994
C           38.37629836971299       -3.44530602497655       -0.37401191931532
C           39.63391313039694       -2.75545094051229       -0.41321790304556
N           39.44482743438638       -1.40778142476715       -0.27032700991213
C           40.85913757569225       -3.37927311881199       -0.62240514430800
C           40.87736064073503       -4.83951946318398       -0.86631756643937
C           41.55760856186674       -5.69232533914469        0.00801771783861
C           41.57692170169329       -7.05711203985260       -0.21487770287254
C           40.91528788100936       -7.57282146589747       -1.32567308913694
N           40.93580215279156       -9.00489222143836       -1.56685709597971
O           40.34843655559558       -9.41583490312632       -2.53455638858641
O           41.53973529255129       -9.69344024836980       -0.78488757838027
C           40.23500557039812       -6.74047065482615       -2.20997366289272
C           40.21659426733635       -5.37781541252815       -1.97459065815979
C           42.06565970125193       -2.69260932507038       -0.62506345237161
C           43.33251469839260       -3.29879605519256       -0.90976711727601
C           44.27168311855107       -2.33714343043245       -0.74241502298099
N           42.22993998142404       -1.36146472595719       -0.32718217524465
C           43.57633171154937       -1.14733040385382       -0.36267278582323
C           44.22685770087458        0.03883798556488       -0.00298899646170
C           43.53954424212679        1.20565413109583        0.35141122360189
C           44.19533981448204        2.40106071584841        0.78047977798950
C           43.22852817803470        3.33449997514804        0.95044921289246
C           41.98566940104877        2.70849290397767        0.60812168333135
N           42.18984792303210        1.38840369328774        0.28510343399753
C           40.76752236706966        3.37242324287625        0.56175813856993
C           40.74047118099062        4.82609978273678        0.84123998024545
C           39.99964423853925        5.32217914024751        1.91820982654683
C           39.97019085798250        6.67877359127825        2.18527013544383
C           40.68297950115143        7.54775165302700        1.36402694079753
N           40.65241622437320        8.97381194387496        1.63754283451585
O           39.99701986113931        9.34763619529956        2.57617611906202
O           41.28404365608392        9.69502528225671        0.90868520400265
C           41.42400362283433        7.07442107233093        0.28495909993620
C           41.45173269473077        5.71536440596376        0.03018123596162
C           39.56940910234876        2.73496070528626        0.25667824017529
C           38.30886897956783        3.40917810772396        0.13235734445866
C           37.37471506406004        2.45445958868149       -0.08652009423580
C           38.06567754036366        1.20033100317234       -0.10268356593614
N           39.41219114586438        1.38874601291555        0.07116677512293
H           36.34849731525320       -0.02842457725866       -0.23693066955918
H           36.34537229481234       -2.62579896553901       -0.21016835909179
H           38.25748944655319       -4.51545401302632       -0.42383585002888
H           42.06003290851986       -5.27871555641664        0.87460742070474
H           42.09594351331907       -7.72703008981191        0.46002589451399
H           39.73175099977959       -7.16664154371433       -3.06949948605097
H           39.70051457339233       -4.71748974219689       -2.66168774716662
H           43.47453356356369       -4.32506180557626       -1.20663914549725
H           45.34060230511115       -2.41216820868684       -0.85986924754293
H           45.25850802831073        2.49733482265673        0.93041760736824
H           43.33733129821808        4.35460072501885        1.28070257901340
H           39.45750895757534        4.63371816898107        2.55585454626991
H           39.40414850593295        7.07241232041569        3.02092500828287
H           41.96643400402172        7.77228488442372       -0.34148061551128
H           42.01508608997589        5.33498804280059       -0.81386909448234
H           38.17048771321475        4.47607957564257        0.19873605251600
H           36.31142375025358        2.56880623061683       -0.22426985793000
Fe          96.47219577831879        0.04270298233197       -0.03330805437434
C           99.85704638457597        0.10788796782104       -0.15781925925378
C           99.20560360923140        1.24130040490792        0.28281107461072
C           99.87882595853337        2.42813776389652        0.71720253232575
C           98.91941951288794        3.35169987248901        0.95986807084715
C           97.66114429328977        2.73078372503109        0.65948743246058
N           97.84767463482410        1.42643412195559        0.29120020894927
C           96.43767516168846        3.39222615316644        0.68624325476377
C           96.42270158873153        4.83984282010472        0.99550993467995
C           95.73273794859442        5.31427017616406        2.11512702424282
C           95.71776408410626        6.66515805981839        2.41086280227296
C           96.39370730387758        7.55023411281824        1.57581746762888
N           96.37853248504929        8.97036709631156        1.87995341606948
O           96.98004208539258        9.70557497399460        1.13976303054423
O           95.76530321185382        9.32547356393405        2.85369420511770
C           97.08359432575570        7.09863190209692        0.45434887894271
C           97.09746906130002        5.74508412414074        0.17092996766917
C           95.23033667212145        2.75670774506772        0.42989420623652
C           93.96396684372937        3.42591610129260        0.38436512165495
C           93.02275894165851        2.46828752372770        0.20485963018489
N           95.06360506888591        1.40739559137342        0.23129926489496
C           93.71655783287183        1.22050565441103        0.13349499746686
C           93.06565064185079       -0.01752303828499        0.06457162776777
C           93.75406438418310       -1.23304608396111       -0.03215438639901
C           93.10162766203501       -2.50468493135804       -0.05382671868709
C           94.06547403362637       -3.43170113625033       -0.27057033566564
C           95.30307159989562       -2.71955495113994       -0.39312553855735
N           95.09986350993455       -1.37447013851825       -0.19864069444939
C           96.51459401951384       -3.31370672147053       -0.71913684298411
C           96.53666456147367       -4.76444376410660       -1.01315371744151
C           97.30193771084330       -5.63160787449038       -0.22753705146955
C           97.32732510806957       -6.98752574279725       -0.49846902510278
C           96.58564925317893       -7.47980007796363       -1.56860390943923
N           96.61272587173411       -8.90226818297310       -1.86082222576255
O           97.29010079817841       -9.60383720180759       -1.15428464010306
O           95.95602932045671       -9.29281057661437       -2.79171085089321
C           95.81910966833304       -6.63304082412090       -2.36418283128728
C           95.79560644694550       -5.27957844136232       -2.08089248140578
C           97.71058058827529       -2.60604016160720       -0.78540158475749
C           98.96591725053561       -3.18083812285089       -1.17631484297283
C           99.90307116472484       -2.21673171742763       -1.01969151875814
C           99.21861129715238       -1.05251029711418       -0.54362290783371
N           97.87267347084789       -1.29143255398408       -0.44357238386132
H          100.94001569301373        0.12944076582784       -0.20062886511400
H          100.94825810654849        2.52306100718521        0.81691309833377
H           99.04004577831982        4.36274403090817        1.31351397234755
H           95.21969366012870        4.61316910185305        2.76299455994170
H           95.19147973075079        7.04197338080425        3.27959797236898
H           97.59792979177863        7.80879338930667       -0.18189275105801
H           97.62109315441160        5.38169591442693       -0.70555910301793
H           93.82345076486629        4.49085857795973        0.47208259369249
H           91.95346777455472        2.58120633750307        0.12818655731090
H           92.04239903454794       -2.65293696617993        0.08091276335919
H           93.95830553137228       -4.50199358300562       -0.33806079618213
H           97.86657830807069       -5.23682045288135        0.60900034636933
H           97.91247987758840       -7.66842510292939        0.10786970503884
H           95.25404262695405       -7.04097233759890       -3.19361801485441
H           95.21233891688497       -4.60775568527008       -2.69971345422457
H           99.09943020238229       -4.19080303256003       -1.52841439359674
H          100.96436775025697       -2.27045872288683       -1.20244941224598
C           45.62783903958997        0.05484278006442        0.00955114576438
C           46.85394910716632        0.06238319111136        0.01471422673969
C           48.19355280881523        0.06674112558177        0.01937926394250
C           49.42620905086576        0.06495919686652        0.02062545023006
C           50.76072996454881        0.06098588059817        0.01859855703587
C           51.99350901061080        0.05336205815921        0.01510317545314
C           53.33263326352992        0.04683878155338        0.01087525632717
C           54.55916461682521        0.04050280267971        0.00303893954965
C           64.18374767490832        0.04264325013254        0.06593674384915
C           65.41070576613232        0.04234753430102        0.07579168454332
C           66.74915334916271        0.04286029296694        0.08092237030111
C           67.98252454648203        0.04043263546134        0.07890120364706
C           69.31613919463103        0.03763822216668        0.07236691631849
C           70.54947832193206        0.03417988375570        0.06189900187478
C           71.88782252317274        0.02936853945015        0.04796445427117
C           73.11474154800571        0.02374528545059        0.03206721338162
C           82.73528588147865       -0.00141287132920        0.10286290750787
C           83.96197504587278       -0.01197424219796        0.12340905613343
C           85.30045221921732       -0.02186866635295        0.13839877381671
C           86.53357624083428       -0.03314018467324        0.14316320635412
C           87.86751396764340       -0.04153054585311        0.14075344020151
C           89.10049132744257       -0.04767533545986        0.13112104768412
C           90.43944475363783       -0.04505769083629        0.11479619373533
C           91.66574487595996       -0.03819312867482        0.09433228519045
Fe          59.37218166164778        0.03827766613527       -0.00869737479653
C           55.95880241608988        0.03822511654767       -0.00566531716650
C           56.63123049964928       -1.16933861749115        0.22176892886091
C           55.96190193687001       -2.40241069631484        0.49285889605155
C           56.91600460357239       -3.36473994862448        0.51265172757520
C           58.16342996342441       -2.71291603962649        0.24654754684518
N           57.97718631757706       -1.35930296611914        0.11638581161810
C           59.37267408288979       -3.37910746369211        0.08391757933406
C           59.36744511469227       -4.85932688102899        0.11260894814082
C           60.09426562292472       -5.55071188162925        1.08620248031699
C           60.08625701313618       -6.93343243381951        1.11827089113396
C           59.34987761083741       -7.63017563338029        0.16463492784493
N           59.33987393819540       -9.08294869245184        0.19255257466423
O           58.68346347408880       -9.65154215796116       -0.64135024514082
O           59.98858152248699       -9.62805726133487        1.04793389898599
C           58.62215079094462       -6.96065318277392       -0.81483305527880
C           58.63162232678489       -5.57783418338504       -0.83444240915176
C           60.58336920123534       -2.72311247767540       -0.09913309670955
C           61.83585369611713       -3.38717043065920       -0.30574596428542
C           62.79087194885400       -2.42572496012885       -0.30566152522576
N           60.76909678830878       -1.36378310688245       -0.03188276139475
C           62.11666876693846       -1.18013814580023       -0.11458100984896
C           62.78489959606458        0.04131513011004        0.04560955530729
C           62.10933935458659        1.26243783177071        0.17236497794723
C           62.77507942087379        2.51293007174393        0.36129196739044
C           61.82106847868826        3.47325343219891        0.29642809035392
C           60.57745881307514        2.80264406431384        0.06013122511521
N           60.76564529317666        1.44265987945202        0.03348667041561
C           59.37187871716825        3.45298209085881       -0.17222174139363
C           59.37179151205611        4.93141728712809       -0.24988871173723
C           60.12043257135786        5.58527114135507       -1.23289403422305
C           60.11765697044959        6.96588092057376       -1.31523110273658
C           59.36509880083397        7.69859942210581       -0.40202388237926
N           59.35963551570126        9.14937387682861       -0.48333161691709
O           60.02108387158034        9.66117278640897       -1.34947396854302
O           58.69355421492605        9.74975670032474        0.32007453659624
C           58.61728885688808        7.06692371669630        0.58739475258046
C           58.62157540812370        5.68566237548408        0.65717173508273
C           58.16435675963070        2.78298328019421       -0.32937287817446
C           56.91657489602202        3.42836793900190       -0.60939458989649
C           55.96074866001467        2.46931701410758       -0.55114935956538
C           56.63032972886666        1.24299798509940       -0.25186651150168
N           57.97693493394170        1.43325111247456       -0.16140244288484
H           54.89921254743022       -2.50410476092653        0.64225904514501
H           56.79543929257634       -4.41988329831995        0.69595283118698
H           60.65376213159553       -4.99580826657871        1.83016195158718
H           60.64068448442383       -7.47876425581560        1.87251827534792
H           58.06001064634120       -7.52680881816303       -1.54772144312049
H           58.07759233767205       -5.04387001280936       -1.59758327469315
H           61.95937986878546       -4.44984788054527       -0.43582975717320
H           63.85679389935530       -2.53517796123635       -0.42322401068366
H           63.83544577243318        2.62625021404242        0.51871386753839
H           61.93898699242081        4.53919905016617        0.40305298065414
H           60.69306691173794        5.00209568768479       -1.94454644660118
H           60.68850202080918        7.48204859548757       -2.07771176791968
H           58.04357660730614        7.66077538779939        1.28872814384366
H           58.05213921415709        5.18143601379267        1.42914169728591
H           56.79622578940572        4.47746520799075       -0.82462350840081
H           54.89722468724600        2.56865459555134       -0.69606416907988
Fe          77.92525677315950        0.00888302935537        0.00209011919553
C           74.51348240168704        0.01791937765738        0.01505055350990
C           75.18394760972937       -1.19263796696468        0.23605694037616
C           74.51325441428877       -2.42549239740113        0.50593014073035
C           75.46473313835446       -3.39059457974937        0.51294213929733
C           76.71205766846003       -2.74091997443223        0.24065458497694
N           76.52802902919773       -1.38567447506353        0.11958308659877
C           77.91825119238706       -3.40772861902150        0.06307519489319
C           77.91557663940476       -4.88785914281665        0.08934009273706
C           78.65674772545907       -5.57641174098455        1.05428965691316
C           78.65551514641569       -6.95903420707453        1.08616459010650
C           77.91137349439541       -7.65873040748705        0.14074175696950
N           77.90925238861593       -9.11157711755075        0.16779942226531
O           77.24739739551677       -9.68308815105492       -0.65978479051720
O           78.56966441111648       -9.65375291274992        1.01601611832908
C           77.16895397626880       -6.99215966538134       -0.82965030035228
C           77.17159800996583       -5.60919632504276       -0.84895484471844
C           79.12885417710132       -2.75165352854175       -0.12562324496035
C           80.37842403998859       -3.41507915490939       -0.34988255925081
C           81.33601366410312       -2.45592882224364       -0.33738492726232
N           79.31789419672104       -1.39440179702813       -0.03895471120912
C           80.66591337723003       -1.21253120328428       -0.12125077452249
C           81.33669314360047        0.00303290513070        0.07105252002971
C           80.66262446867026        1.22288022079117        0.21598956688717
C           81.32831069170959        2.46989813995683        0.42516673192570
C           80.37772360083109        3.43338414061564        0.35215893939925
C           79.13611468251567        2.76768705164865        0.09353482100718
N           79.32096346889485        1.40804775561868        0.06107834808164
C           77.93470335864410        3.42240785845932       -0.15282090426407
C           77.94461429590268        4.90045470736165       -0.23501146768228
C           78.71191425442856        5.54437817580645       -1.21032465486089
C           78.72333405985978        6.92461044471709       -1.29688598462609
C           77.96618797371305        7.66714111806539       -0.39545707559594
N           77.97643954908054        9.11772469098496       -0.48041210641459
O           78.65493023880545        9.62056595078309       -1.33854238177435
O           77.30653116099926        9.72685487162209        0.31315478140056
C           77.19957579796865        7.04550857241505        0.58586845780629
C           77.18971729533715        5.66441907626918        0.65983566825178
C           76.72655785456396        2.75650957109447       -0.31766212103175
C           75.48055726620173        3.40443312977020       -0.60062820970815
C           74.52172576764919        2.44864994400128       -0.53784900543780
C           75.18777917059329        1.22099093913264       -0.23531531705189
N           76.53449727159415        1.40718070387635       -0.14675794767684
H           73.45142611312077       -2.52527740407190        0.66263060297905
H           75.34254589223559       -4.44652219263224        0.69068611641252
H           79.22272545788907       -5.01900488733873        1.79145434167057
H           79.22148816996801       -7.50194129518499        1.83354781030112
H           76.60116886845151       -7.56077952069124       -1.55625236450778
H           76.60650581351972       -5.07769717667681       -1.60566857812517
H           80.49868499209521       -4.47558738907739       -0.49924495665602
H           82.40112174477038       -2.56603943000942       -0.46139119536769
H           82.38660540521150        2.57931103278856        0.59848909555651
H           80.49680242357020        4.49825481149406        0.46785778094188
H           79.28865548792157        4.95356235985154       -1.91229970497897
H           79.30915617393212        7.43299264080209       -2.05321407102175
H           76.62292289770332        7.64696516092013        1.27825845575835
H           76.60625070627614        5.16817242494462        1.42647661900058
H           75.36331945031870        4.45318049150108       -0.81936896529286
H           73.45837795896040        2.55084813054856       -0.68226065677570
