120
 energy: -197.638272477094 gnorm: 0.000399784232 xtb: 6.5.1 (b24c23e)
Zn          13.91041195077674       -0.04800930655854       -0.00747386139904
C           10.50375288197898       -0.06189265078935       -0.14271774838251
C           11.12846022736124       -1.30335127217199       -0.16938238106220
C           10.44917477319877       -2.56757045754443       -0.21727953286979
C           11.40427937074797       -3.53114829465767       -0.23278889669692
C           12.68039467300889       -2.86687015287055       -0.20632355109484
N           12.47661361415804       -1.51808555687366       -0.15620334846552
C           13.92889093937924       -3.50072347500710       -0.21323546115913
C           13.94447064707728       -4.98166242601431       -0.31364559965145
C           13.44141966841601       -5.62123017875330       -1.37997970451075
C           13.43661719350032       -7.12364940601600       -1.49468193916024
N           14.37106236401998       -7.73006002330637       -0.54255195191720
C           14.69944719623026       -7.07787710464414        0.61874523209227
C           14.54532345359984       -5.75062646036721        0.76765928405899
C           15.16853062130658       -2.85532694287744       -0.13834634032533
C           16.44698121390723       -3.50815934596759       -0.19216910172097
C           17.39549358452927       -2.54067034435508       -0.10530538793425
N           15.36512909165870       -1.50410783577019       -0.03061621190932
C           16.70747654930704       -1.28739976566336       -0.00472569890513
C           17.34093530290407       -0.03346200985619        0.10869821368697
C           16.69097777008507        1.21467735144605        0.18794761841559
C           17.35964655938388        2.47310563859858        0.34049793005648
C           16.39900651785328        3.43221380769224        0.36671297391311
C           15.13304413120736        2.76905823305790        0.22125007285224
N           15.34816249849922        1.41983813299724        0.12430639828523
C           13.88582769552782        3.40369591454660        0.20356579429041
C           13.87938768186525        4.88456065934220        0.30595686257590
C           13.28716683676403        5.51726571724451        1.32979838868714
C           13.25437965155019        7.01932430172411        1.44403546492250
N           14.24694196845958        7.63954460053668        0.56218939123742
C           14.67488976653940        6.99089860843722       -0.56801267920610
C           14.55290365786656        5.66126803689714       -0.72572638926258
C           12.64703319940321        2.75948513468068        0.09786160850208
C           11.36770008867516        3.41373378991455        0.02263387883355
C           10.42454631823994        2.44286061585530       -0.07111435883297
C           11.11527794909023        1.18402188831434       -0.06546706188050
N           12.45849401127565        1.40920256022329        0.03003128242827
H            9.41887211329269       -0.06567712857435       -0.18662867991752
H            9.37731670765252       -2.69093327366228       -0.22831283617025
H           11.26156076438471       -4.59986276903734       -0.24893870821885
H           12.99688528017282       -5.08478898649811       -2.21027615180265
H           13.73962188119779       -7.42667374629824       -2.50599921824955
H           12.41595467424095       -7.51695225408405       -1.32818656131452
H           14.29388707468706       -8.73509754238025       -0.48127443331073
H           15.17117594143997       -7.70080757753025        1.37212707166675
H           14.85703337702303       -5.24503729111452        1.67067558848058
H           16.59793248792034       -4.57105928813110       -0.29179526269191
H           18.46763561820633       -2.65729998447879       -0.11302303598056
H           18.42766895771677        2.59864598680406        0.42299328076477
H           16.53356011670936        4.49587311555175        0.48121078448349
H           12.78530117682690        4.97465677318637        2.12256487937285
H           13.47872071906543        7.32544172655506        2.47483670087616
H           12.24325473698130        7.39897392934083        1.20387344593947
H           14.15926532178453        8.64314513934327        0.49296689371929
H           15.19399717029647        7.62024283185478       -1.28402011482134
H           14.94152225834760        5.15989258737716       -1.60084650931044
H           11.21568485282485        4.48125210046001        0.02839928747531
H            9.35438019143892        2.55799241695547       -0.14647473687392
Zn          27.37593861813878        0.04913351028685        0.00293574630932
C           30.78255376081353        0.09169723712252       -0.12728070405633
C           30.15780222717700        1.31008972442323        0.11228831888532
C           30.83713074351622        2.55533584820025        0.33554671715834
C           29.88208750019595        3.49977069866615        0.52757700815416
C           28.60594631291249        2.84508395868002        0.41234778887932
N           28.80966415815713        1.51690059019646        0.17211711556590
C           27.35753388410853        3.46552430242775        0.54300817816486
C           27.34201655029551        4.93344911677870        0.76315662087782
C           27.84362614437834        5.78734242486948       -0.14151257482901
C           27.84840169763005        7.27930602262900        0.06937887642139
N           26.91534076650328        7.66666818541061        1.13089364027755
C           26.58858397265020        6.78009999004356        2.12537740618012
C           26.74280110953041        5.45189314883576        1.98533143477184
C           26.11786788336124        2.81902378828132        0.47889339694628
C           24.83946800841728        3.46810001340880        0.56805669263757
C           23.89088395563781        2.50454159289059        0.44559969375650
N           25.92115716752755        1.47626492239051        0.29368364164847
C           24.57880035462500        1.25901807998866        0.27352853908470
C           23.94540238575365        0.01001689945699        0.11456038801226
C           24.59544385271839       -1.22586968513022       -0.07686975284797
C           23.92663202042541       -2.48755680172065       -0.19884624816097
C           24.88718955695128       -3.42998041147426       -0.37931642377604
C           26.15324740368592       -2.75125124817001       -0.37834192574434
N           25.93824903305677       -1.41269380656104       -0.18298057821682
C           27.40043436399215       -3.36753036105155       -0.53119188221811
C           27.40663778191118       -4.83587876906454       -0.74898275638118
C           27.99791537895883       -5.67378127150235        0.11564252332293
C           28.03035454908658       -7.16536599530546       -0.09516960054833
N           27.03830627297902       -7.58155424853403       -1.09023475441223
C           26.61135741391049       -6.70528721606603       -2.05520289659425
C           26.73378572432411       -5.37284259899633       -1.92381849801792
C           28.63933212436100       -2.71587906435108       -0.49568132137669
C           29.91870853691940       -3.33900385235350       -0.70852790009418
C           30.86187722381230       -2.37058472504903       -0.59223901448616
C           30.17110857643139       -1.14201112840781       -0.31789295147344
N           28.82788442225140       -1.38234609837005       -0.27307372538010
H           31.86742014259609        0.10491759618156       -0.16968966472419
H           31.90898733144403        2.67832897352448        0.35023235658050
H           30.02486408285602        4.54717203610270        0.74051835881295
H           28.28693692218676        5.44197511477665       -1.06832219218296
H           27.54398579229005        7.79255775773265       -0.85274048951985
H           28.86932904009360        7.62786661975449        0.31509722449399
H           26.99246094019085        8.63511269388327        1.40651991270599
H           26.11801152954309        7.22645736844268        2.99571081621579
H           26.43237196756195        4.76394779806200        2.75901499627940
H           24.68862517696861        4.52754204315537        0.69961219050829
H           22.81876047964276        2.62006220716604        0.46423868461965
H           22.85857463635320       -2.62772829721832       -0.14556699779434
H           24.75249044104930       -4.49332816921616       -0.49640200437744
H           28.49921882609945       -5.31416254546864        1.00678807234576
H           27.80523419029770       -7.68552654419347        0.84575873607742
H           29.04158065893543       -7.48494605552951       -0.41056918965199
H           27.12603131995946       -8.54689371373249       -1.37329647606356
H           26.09260043461910       -7.16610194764322       -2.88992568633806
H           26.34589960774453       -4.69520147831971       -2.67120891182341
H           30.07076627539495       -4.38310684133478       -0.93093467600828
H           31.93207935608965       -2.46703658057996       -0.68999942993627
C           19.96843646917016       -0.01817268711942        0.14693968162994
C           18.74627320699085       -0.02675438076841        0.13753783629117
C           21.31794027167191       -0.01105737810282        0.14907708465597
C           22.54006842166267       -0.00297010954769        0.14146267612885
