      -----------------------------------------------------------      
     |                   =====================                   |     
     |                           x T B                           |     
     |                   =====================                   |     
     |                         S. Grimme                         |     
     |          Mulliken Center for Theoretical Chemistry        |     
     |                    University of Bonn                     |     
      -----------------------------------------------------------      

   * xtb version 6.5.1 (b24c23e) compiled by 'conda@728c89f4b128' on 2022-07-12

   xtb is free software: you can redistribute it and/or modify it under
   the terms of the GNU Lesser General Public License as published by
   the Free Software Foundation, either version 3 of the License, or
   (at your option) any later version.
   
   xtb is distributed in the hope that it will be useful,
   but WITHOUT ANY WARRANTY; without even the implied warranty of
   MERCHANTABILITY or FITNESS FOR A PARTICULAR PURPOSE.  See the
   GNU Lesser General Public License for more details.
   
   Cite this work as:
   * C. Bannwarth, E. Caldeweyher, S. Ehlert, A. Hansen, P. Pracht,
     J. Seibert, S. Spicher, S. Grimme, WIREs Comput. Mol. Sci., 2020, 11,
     e01493. DOI: 10.1002/wcms.1493
   
   for GFN2-xTB:
   * C. Bannwarth, S. Ehlert and S. Grimme., J. Chem. Theory Comput., 2019,
     15, 1652-1671. DOI: 10.1021/acs.jctc.8b01176
   for GFN1-xTB:
   * S. Grimme, C. Bannwarth, P. Shushkov, J. Chem. Theory Comput., 2017,
     13, 1989-2009. DOI: 10.1021/acs.jctc.7b00118
   for GFN0-xTB:
   * P. Pracht, E. Caldeweyher, S. Ehlert, S. Grimme, ChemRxiv, 2019, preprint.
     DOI: 10.26434/chemrxiv.8326202.v1
   for GFN-FF:
   * S. Spicher and S. Grimme, Angew. Chem. Int. Ed., 2020, 59, 15665-15673.
     DOI: 10.1002/anie.202004239
   
   for ALPB and GBSA implicit solvation:
   * S. Ehlert, M. Stahn, S. Spicher, S. Grimme, J. Chem. Theory Comput.,
     2021, 17, 4250-4261. DOI: 10.1021/acs.jctc.1c00471
   
   for DFT-D4:
   * E. Caldeweyher, C. Bannwarth and S. Grimme, J. Chem. Phys., 2017,
     147, 034112. DOI: 10.1063/1.4993215
   * E. Caldeweyher, S. Ehlert, A. Hansen, H. Neugebauer, S. Spicher,
     C. Bannwarth and S. Grimme, J. Chem. Phys., 2019, 150, 154122.
     DOI: 10.1063/1.5090222
   * E. Caldeweyher, J.-M. Mewes, S. Ehlert and S. Grimme, Phys. Chem. Chem. Phys.
     2020, 22, 8499-8512. DOI: 10.1039/D0CP00502A
   
   for sTDA-xTB:
   * S. Grimme and C. Bannwarth, J. Chem. Phys., 2016, 145, 054103.
     DOI: 10.1063/1.4959605
   
   in the mass-spec context:
   * V. Asgeirsson, C. Bauer and S. Grimme, Chem. Sci., 2017, 8, 4879.
     DOI: 10.1039/c7sc00601b
   * J. Koopman and S. Grimme, ACS Omega 2019, 4, 12, 15120-15133.
     DOI: 10.1021/acsomega.9b02011
   
   for metadynamics refer to:
   * S. Grimme, J. Chem. Theory Comput., 2019, 155, 2847-2862
     DOI: 10.1021/acs.jctc.9b00143
   
   for SPH calculations refer to:
   * S. Spicher and S. Grimme, J. Chem. Theory Comput., 2021, 17, 1701-1714
     DOI: 10.1021/acs.jctc.0c01306
   
   with help from (in alphabetical order)
   P. Atkinson, C. Bannwarth, F. Bohle, G. Brandenburg, E. Caldeweyher
   M. Checinski, S. Dohm, S. Ehlert, S. Ehrlich, I. Gerasimov, C. Hölzer
   A. Katbashev, J. Koopman, C. Lavigne, S. Lehtola, F. März, M. Müller,
   F. Musil, H. Neugebauer, J. Pisarek, C. Plett, P. Pracht, F. Pultar,
   J. Seibert, P. Shushkov, S. Spicher, M. Stahn, M. Steiner, T. Strunk,
   J. Stückrath, T. Rose, and J. Unsleber
   
 * started run on 2022/07/27 at 13:54:07.324     

           -------------------------------------------------
          |                Calculation Setup                |
           -------------------------------------------------

          program call               : xtb xtbopt.xyz --gfn 1 --vipea
          hostname                   : cx3-2-25.cx3.hpc.ic.ac.uk
          coordinate file            : xtbopt.xyz
          omp threads                :                     1

   ID    Z sym.   atoms
    1    6 C      1-5, 7-10, 12-30, 33-40, 70-74, 76-79, 81-99, 102-109, 139,
                  140
    2    7 N      6, 11, 31, 32, 75, 80, 100, 101
    3    1 H      41-69, 110-138

           -------------------------------------------------
          |                 I P E A - x T B                 |
           -------------------------------------------------

        Reference                      10.1039/c7sc00601b
      * Hamiltonian:
        H0-scaling (s, p, d)           2.150000    2.300000    2.000000
        zeta-weighting                 0.000000
      * Dispersion:
        s8                             2.400000
        a1                             0.630000
        a2                             5.000000
        s9                             0.000000
      * Repulsion:
        kExp                           1.500000
        rExp                           1.000000
      * Coulomb:
        alpha                          1.000000
        third order                    atomic
        anisotropic                    false
      * Halogen bond correction:
        rad-scale                      1.300000
        damping                        0.440000


          ...................................................
          :                      SETUP                      :
          :.................................................:
          :  # basis functions                 526          :
          :  # atomic orbitals                 526          :
          :  # shells                          362          :
          :  # electrons                       394          :
          :  # halogen bonds                     0          :
          :  max. iterations                   250          :
          :  Hamiltonian                  GFN1-xTB          :
          :  restarted?                      false          :
          :  GBSA solvation                  false          :
          :  PC potential                    false          :
          :  electronic temp.          300.0000000     K    :
          :  accuracy                    1.0000000          :
          :  -> integral cutoff          0.2500000E+02      :
          :  -> integral neglect         0.1000000E-07      :
          :  -> SCF convergence          0.1000000E-05 Eh   :
          :  -> wf. convergence          0.2000000E-04 e    :
          :  Broyden damping             0.4000000          :
          ...................................................

 iter      E             dE          RMSdq      gap      omega  full diag
   1   -245.3290232 -0.245329E+03  0.961E+00    0.84       0.0  T
   2   -245.7897252 -0.460702E+00  0.608E+00    1.42       1.0  T
   3   -241.7138540  0.407587E+01  0.449E+00    0.72       1.0  T
   4   -246.2880229 -0.457417E+01  0.114E+00    1.46       1.0  T
   5   -246.7025398 -0.414517E+00  0.294E-01    1.29       1.0  T
   6   -246.7291548 -0.266150E-01  0.101E-01    1.31       1.0  T
   7   -246.7315851 -0.243026E-02  0.322E-02    1.30       1.0  T
   8   -246.7316604 -0.752952E-04  0.274E-02    1.30       1.0  T
   9   -246.7317584 -0.979941E-04  0.128E-02    1.30       1.0  T
  10   -246.7317891 -0.307359E-04  0.395E-03    1.30       2.1  T
  11   -246.7317933 -0.423159E-05  0.123E-03    1.30       6.9  T
  12   -246.7317939 -0.500510E-06  0.355E-04    1.30      23.8  T
  13   -246.7317939 -0.314589E-07  0.146E-04    1.30      57.9  T
  14   -246.7317939 -0.327935E-08  0.737E-05    1.30     114.7  T

   *** convergence criteria satisfied after 14 iterations ***

         #    Occupation            Energy/Eh            Energy/eV
      -------------------------------------------------------------
         1        2.0000           -1.0377678             -28.2391
       ...           ...                  ...                  ...
       191        2.0000           -0.4160409             -11.3210
       192        2.0000           -0.4149116             -11.2903
       193        2.0000           -0.4146922             -11.2843
       194        2.0000           -0.3856290             -10.4935
       195        2.0000           -0.3851932             -10.4816
       196        2.0000           -0.3787864             -10.3073
       197        2.0000           -0.3605965              -9.8123 (HOMO)
       198                         -0.3127057              -8.5092 (LUMO)
       199                         -0.2998363              -8.1590
       200                         -0.2994992              -8.1498
       201                         -0.2913182              -7.9272
       202                         -0.2570314              -6.9942
       ...                                ...                  ...
       526                        572.6617501           15582.9194
      -------------------------------------------------------------
                  HL-Gap            0.0478908 Eh            1.3032 eV
             Fermi-level           -0.3366511 Eh           -9.1607 eV

 SCC (total)                   0 d,  0 h,  0 min,  1.813 sec
 SCC setup                      ...        0 min,  0.002 sec (  0.129%)
 Dispersion                     ...        0 min,  0.004 sec (  0.196%)
 classical contributions        ...        0 min,  0.002 sec (  0.088%)
 integral evaluation            ...        0 min,  0.286 sec ( 15.775%)
 iterations                     ...        0 min,  0.831 sec ( 45.834%)
 molecular gradient             ...        0 min,  0.675 sec ( 37.228%)
 printout                       ...        0 min,  0.014 sec (  0.748%)

         :::::::::::::::::::::::::::::::::::::::::::::::::::::
         ::                     SUMMARY                     ::
         :::::::::::::::::::::::::::::::::::::::::::::::::::::
         :: total energy            -241.786391419382 Eh    ::
         :: gradient norm              0.059450029428 Eh/a0 ::
         :: HOMO-LUMO gap              1.303174309934 eV    ::
         ::.................................................::
         :: SCC energy              -246.731793884761 Eh    ::
         :: -> electrostatic           0.123368920701 Eh    ::
         :: repulsion energy           5.060572571321 Eh    ::
         :: dispersion energy         -0.115170105943 Eh    ::
         :: halogen bond corr.         0.000000000000 Eh    ::
         :: add. restraining           0.000000000000 Eh    ::
         :: total charge               0.000000000000 e     ::
         :::::::::::::::::::::::::::::::::::::::::::::::::::::

           ------------------------------------------------- 
          |        vertical delta SCC IP calculation        |
           ------------------------------------------------- 
   1   -246.3216057 -0.246322E+03  0.170E-01    1.30       0.0  T
   2   -246.3290041 -0.739841E-02  0.114E-01    1.35       1.0  T
   3   -246.3327354 -0.373130E-02  0.798E-02    1.31       1.0  T
   4   -246.3335652 -0.829774E-03  0.391E-02    1.31       1.0  T
   5   -246.3335191  0.460742E-04  0.276E-02    1.31       1.0  T
   6   -246.3336486 -0.129529E-03  0.116E-02    1.31       1.0  T
   7   -246.3336945 -0.459279E-04  0.315E-03    1.31       2.7  T
   8   -246.3336959 -0.133298E-05  0.201E-03    1.31       4.2  T
   9   -246.3336970 -0.115492E-05  0.547E-04    1.31      15.4  T
  10   -246.3336971 -0.114410E-06  0.203E-04    1.31      41.5  T
  11   -246.3336972 -0.893715E-08  0.122E-04    1.31      69.4  T
  12   -246.3336972 -0.409815E-08  0.611E-05    1.31     138.4  T
     SCC iter.                  ...        0 min,  0.724 sec
     gradient                   ...        0 min,  0.676 sec
------------------------------------------------------------------------
empirical IP shift (eV):    4.8455
delta SCC IP (eV):    5.9873
------------------------------------------------------------------------
           ------------------------------------------------- 
          |        vertical delta SCC EA calculation        |
           ------------------------------------------------- 
   1   -246.9650961 -0.246965E+03  0.298E-01    0.40       0.0  T
   2   -246.9935155 -0.284195E-01  0.207E-01    0.21       1.0  T
   3   -247.0033899 -0.987433E-02  0.139E-01    0.29       1.0  T
   4   -247.0057726 -0.238270E-02  0.810E-02    0.25       1.0  T
   5   -247.0056793  0.932282E-04  0.552E-02    0.25       1.0  T
   6   -247.0062518 -0.572436E-03  0.232E-02    0.25       1.0  T
   7   -247.0064234 -0.171637E-03  0.736E-03    0.25       1.1  T
   8   -247.0064299 -0.645031E-05  0.461E-03    0.25       1.8  T
   9   -247.0064365 -0.664498E-05  0.144E-03    0.25       5.9  T
  10   -247.0064370 -0.528882E-06  0.485E-04    0.25      17.4  T
  11   -247.0064371 -0.565703E-07  0.176E-04    0.25      48.0  T
  12   -247.0064371 -0.796121E-08  0.801E-05    0.25     105.5  T
     SCC iter.                  ...        0 min,  0.722 sec
     gradient                   ...        0 min,  0.670 sec
------------------------------------------------------------------------
empirical EA shift (eV):    4.8455
delta SCC EA (eV):    2.6279
------------------------------------------------------------------------
           -------------------------------------------------
          |                Property Printout                |
           -------------------------------------------------

    * Orbital Energies and Occupations

         #    Occupation            Energy/Eh            Energy/eV
      -------------------------------------------------------------
         1        2.0000           -0.9638128             -26.2267
       ...           ...                  ...                  ...
       186        2.0000           -0.3557386              -9.6801
       187        2.0000           -0.3530993              -9.6083
       188        2.0000           -0.3528344              -9.6011
       189        2.0000           -0.3513203              -9.5599
       190        2.0000           -0.3453556              -9.3976
       191        2.0000           -0.3438392              -9.3563
       192        2.0000           -0.3407638              -9.2727
       193        2.0000           -0.3407534              -9.2724
       194        2.0000           -0.3110071              -8.4629
       195        2.0000           -0.3107986              -8.4573
       196        2.0000           -0.3044058              -8.2833
       197        2.0000           -0.2856291              -7.7724
       198        0.9896           -0.2365783              -6.4376 (HOMO)
       199        0.0060           -0.2274046              -6.1880 (LUMO)
       200        0.0044           -0.2271006              -6.1797
       201                         -0.2155935              -5.8666
       202                         -0.1865169              -5.0754
       203                         -0.1851318              -5.0377
       204                         -0.1777092              -4.8357
       205                         -0.1742644              -4.7420
       206                         -0.1685210              -4.5857
       207                         -0.1646913              -4.4815
       208                         -0.1609386              -4.3794
       209                         -0.1597361              -4.3466
       ...                                ...                  ...
       526                        572.7331312           15584.8618
      -------------------------------------------------------------
                  HL-Gap            0.0091736 Eh            0.2496 eV
             Fermi-level           -0.2466784 Eh           -6.7125 eV

  Mulliken/CM5 charges         n(s)   n(p)   n(d)
     1C    -0.04015 -0.08094   1.076  2.964  0.000
     2C     0.05651  0.11694   1.105  2.839  0.000
     3C    -0.04669 -0.09198   1.075  2.971  0.000
     4C    -0.04065 -0.08563   1.073  2.967  0.000
     5C     0.05350  0.11734   1.094  2.852  0.000
     6N    -0.16617 -0.51916   1.312  3.854  0.000
     7C     0.00239  0.00806   1.089  2.908  0.000
     8C     0.05059  0.11866   1.111  2.838  0.000
     9C    -0.04351 -0.08954   1.079  2.964  0.000
    10C    -0.04282 -0.08868   1.081  2.962  0.000
    11N    -0.29230 -0.47889   1.293  4.000  0.000
    12C     0.05959  0.13018   1.128  2.812  0.000
    13C     0.00475  0.01191   1.077  2.918  0.000
    14C     0.06116  0.12588   1.108  2.830  0.000
    15C    -0.03996 -0.08484   1.069  2.971  0.000
    16C    -0.04036 -0.08537   1.068  2.972  0.000
    17C     0.05339  0.11670   1.093  2.854  0.000
    18C     0.00013  0.00587   1.087  2.913  0.000
    19C     0.00633 -0.00221   1.093  2.901  0.000
    20C    -0.02539 -0.07681   1.065  2.961  0.000
    21C    -0.00289 -0.02064   1.095  2.908  0.000
    22C    -0.06068 -0.20543   1.074  2.987  0.000
    23C    -0.03403 -0.08582   1.062  2.972  0.000
    24C    -0.00243 -0.02018   1.095  2.908  0.000
    25C    -0.06042 -0.20515   1.074  2.987  0.000
    26C    -0.02532 -0.07664   1.063  2.962  0.000
    27C     0.05258  0.12189   1.116  2.832  0.000
    28C    -0.04398 -0.08998   1.085  2.959  0.000
    29C    -0.04836 -0.09471   1.089  2.960  0.000
    30C     0.05342  0.11921   1.124  2.822  0.000
    31N    -0.29850 -0.48535   1.290  4.009  0.000
    32N    -0.16165 -0.51382   1.316  3.846  0.000
    33C     0.00651 -0.00204   1.093  2.901  0.000
    34C    -0.02415 -0.07547   1.065  2.959  0.000
    35C    -0.00197 -0.01971   1.095  2.907  0.000
    36C    -0.06012 -0.20485   1.073  2.987  0.000
    37C    -0.03370 -0.08550   1.062  2.971  0.000
    38C    -0.00313 -0.02087   1.094  2.909  0.000
    39C    -0.06097 -0.20570   1.074  2.987  0.000
    40C    -0.02622 -0.07761   1.062  2.964  0.000
    41H     0.01182  0.07079   0.988  0.000  0.000
    42H     0.02373  0.08040   0.976  0.000  0.000
    43H     0.01557  0.07430   0.984  0.000  0.000
    44H     0.15763  0.36593   0.842  0.000  0.000
    45H     0.00792  0.06666   0.992  0.000  0.000
    46H     0.01059  0.06909   0.989  0.000  0.000
    47H     0.01908  0.07768   0.981  0.000  0.000
    48H     0.01659  0.07540   0.983  0.000  0.000
    49H     0.01963  0.07837   0.980  0.000  0.000
    50H     0.02097  0.07288   0.979  0.000  0.000
    51H     0.01603  0.06843   0.984  0.000  0.000
    52H     0.01846  0.07091   0.982  0.000  0.000
    53H     0.02415  0.08161   0.976  0.000  0.000
    54H     0.02122  0.07366   0.979  0.000  0.000
    55H     0.01709  0.06948   0.983  0.000  0.000
    56H     0.02013  0.07203   0.980  0.000  0.000
    57H     0.02200  0.08073   0.978  0.000  0.000
    58H     0.00690  0.06554   0.993  0.000  0.000
    59H     0.01482  0.07123   0.985  0.000  0.000
    60H     0.15478  0.36303   0.845  0.000  0.000
    61H     0.02161  0.08038   0.978  0.000  0.000
    62H     0.01988  0.07216   0.980  0.000  0.000
    63H     0.01480  0.06730   0.985  0.000  0.000
    64H     0.02497  0.07692   0.975  0.000  0.000
    65H     0.02444  0.08189   0.976  0.000  0.000
    66H     0.01647  0.06880   0.984  0.000  0.000
    67H     0.02144  0.07336   0.979  0.000  0.000
    68H     0.01804  0.07053   0.982  0.000  0.000
    69H     0.02057  0.07926   0.979  0.000  0.000
    70C    -0.04015 -0.08094   1.076  2.964  0.000
    71C     0.05651  0.11695   1.105  2.839  0.000
    72C    -0.04669 -0.09198   1.075  2.971  0.000
    73C    -0.04065 -0.08563   1.073  2.967  0.000
    74C     0.05349  0.11734   1.094  2.852  0.000
    75N    -0.16617 -0.51916   1.312  3.854  0.000
    76C     0.00239  0.00806   1.089  2.908  0.000
    77C     0.05058  0.11864   1.111  2.838  0.000
    78C    -0.04350 -0.08954   1.079  2.964  0.000
    79C    -0.04282 -0.08868   1.081  2.962  0.000
    80N    -0.29232 -0.47889   1.293  4.000  0.000
    81C     0.05959  0.13017   1.128  2.812  0.000
    82C     0.00475  0.01191   1.077  2.918  0.000
    83C     0.06116  0.12588   1.108  2.830  0.000
    84C    -0.03996 -0.08484   1.069  2.971  0.000
    85C    -0.04036 -0.08537   1.068  2.972  0.000
    86C     0.05338  0.11669   1.093  2.854  0.000
    87C     0.00013  0.00587   1.087  2.913  0.000
    88C     0.00633 -0.00221   1.093  2.901  0.000
    89C    -0.02540 -0.07681   1.065  2.961  0.000
    90C    -0.00290 -0.02064   1.095  2.908  0.000
    91C    -0.06068 -0.20543   1.074  2.987  0.000
    92C    -0.03403 -0.08582   1.062  2.972  0.000
    93C    -0.00243 -0.02018   1.095  2.908  0.000
    94C    -0.06041 -0.20515   1.074  2.987  0.000
    95C    -0.02531 -0.07664   1.063  2.962  0.000
    96C     0.05258  0.12189   1.116  2.832  0.000
    97C    -0.04398 -0.08998   1.085  2.959  0.000
    98C    -0.04836 -0.09471   1.089  2.960  0.000
    99C     0.05342  0.11921   1.124  2.822  0.000
   100N    -0.29850 -0.48535   1.290  4.009  0.000
   101N    -0.16165 -0.51381   1.316  3.846  0.000
   102C     0.00651 -0.00204   1.093  2.901  0.000
   103C    -0.02415 -0.07547   1.065  2.959  0.000
   104C    -0.00197 -0.01971   1.095  2.907  0.000
   105C    -0.06012 -0.20485   1.073  2.987  0.000
   106C    -0.03370 -0.08550   1.062  2.971  0.000
   107C    -0.00313 -0.02087   1.094  2.909  0.000
   108C    -0.06097 -0.20570   1.074  2.987  0.000
   109C    -0.02622 -0.07760   1.062  2.964  0.000
   110H     0.01182  0.07079   0.988  0.000  0.000
   111H     0.02373  0.08040   0.976  0.000  0.000
   112H     0.01557  0.07430   0.984  0.000  0.000
   113H     0.15763  0.36593   0.842  0.000  0.000
   114H     0.00792  0.06665   0.992  0.000  0.000
   115H     0.01058  0.06909   0.989  0.000  0.000
   116H     0.01908  0.07768   0.981  0.000  0.000
   117H     0.01659  0.07540   0.983  0.000  0.000
   118H     0.01963  0.07837   0.980  0.000  0.000
   119H     0.02097  0.07288   0.979  0.000  0.000
   120H     0.01603  0.06843   0.984  0.000  0.000
   121H     0.01846  0.07091   0.982  0.000  0.000
   122H     0.02415  0.08161   0.976  0.000  0.000
   123H     0.02122  0.07366   0.979  0.000  0.000
   124H     0.01709  0.06948   0.983  0.000  0.000
   125H     0.02013  0.07203   0.980  0.000  0.000
   126H     0.02200  0.08073   0.978  0.000  0.000
   127H     0.00690  0.06555   0.993  0.000  0.000
   128H     0.01482  0.07123   0.985  0.000  0.000
   129H     0.15478  0.36303   0.845  0.000  0.000
   130H     0.02161  0.08038   0.978  0.000  0.000
   131H     0.01988  0.07216   0.980  0.000  0.000
   132H     0.01480  0.06730   0.985  0.000  0.000
   133H     0.02497  0.07692   0.975  0.000  0.000
   134H     0.02444  0.08189   0.976  0.000  0.000
   135H     0.01647  0.06880   0.984  0.000  0.000
   136H     0.02144  0.07336   0.979  0.000  0.000
   137H     0.01804  0.07053   0.982  0.000  0.000
   138H     0.02057  0.07926   0.979  0.000  0.000
   139C    -0.03566 -0.03787   1.065  2.970  0.000
   140C    -0.03565 -0.03786   1.065  2.970  0.000

Wiberg/Mayer (AO) data.
largest (>0.10) Wiberg bond orders for each atom

 ---------------------------------------------------------------------------
     #   Z sym  total        # sym  WBO       # sym  WBO       # sym  WBO
 ---------------------------------------------------------------------------
     1   6 C    3.771 --    30 C    1.376     2 C    1.362    41 H    0.998
     2   6 C    3.921 --     1 C    1.362     3 C    1.245     6 N    1.232
     3   6 C    3.816 --     4 C    1.581     2 C    1.245    42 H    0.995
     4   6 C    3.814 --     3 C    1.581     5 C    1.261    43 H    1.001
     5   6 C    3.883 --     7 C    1.340     4 C    1.261     6 N    1.215
     6   7 N    3.230 --     2 C    1.232     5 C    1.215    44 H    0.964
     7   6 C    3.831 --     8 C    1.368     5 C    1.340    33 C    1.052
     8   6 C    3.912 --     7 C    1.368    11 N    1.344     9 C    1.170
     9   6 C    3.824 --    10 C    1.675     8 C    1.170    45 H    1.001
    10   6 C    3.818 --     9 C    1.675    12 C    1.177    46 H    1.000
    11   7 N    2.536 --    12 C    1.422     8 C    1.344
    12   6 C    3.935 --    11 N    1.422    13 C    1.272    10 C    1.177
    13   6 C    3.797 --    12 C    1.272    14 C    1.265   139 C    1.238
    14   6 C    3.892 --    15 C    1.286    13 C    1.265    32 N    1.253
    15   6 C    3.794 --    16 C    1.553    14 C    1.286    47 H    0.999
    16   6 C    3.792 --    15 C    1.553    17 C    1.276    48 H    1.000
    17   6 C    3.876 --    18 C    1.322    16 C    1.276    32 N    1.219
    18   6 C    3.810 --    27 C    1.374    17 C    1.322    19 C    1.053
    19   6 C    3.908 --    20 C    1.424    26 C    1.424    18 C    1.053
    20   6 C    3.824 --    21 C    1.437    19 C    1.424    49 H    0.996
    21   6 C    3.921 --    20 C    1.437    23 C    1.430    22 C    1.008
    22   6 C    3.918 --    21 C    1.008    51 H    0.999    52 H    0.998
                            50 H    0.988
    23   6 C    3.831 --    21 C    1.430    24 C    1.429    53 H    0.995
    24   6 C    3.921 --    26 C    1.438    23 C    1.429    25 C    1.009
    25   6 C    3.918 --    24 C    1.009    55 H    0.998    54 H    0.997
                            56 H    0.988
    26   6 C    3.821 --    24 C    1.438    19 C    1.424    57 H    0.996
    27   6 C    3.937 --    18 C    1.374    31 N    1.361    28 C    1.155
    28   6 C    3.840 --    29 C    1.700    27 C    1.155    58 H    1.002
    29   6 C    3.851 --    28 C    1.700    30 C    1.149    59 H    0.996
    30   6 C    3.965 --    31 N    1.381     1 C    1.376    29 C    1.149
    31   7 N    2.514 --    30 C    1.381    27 C    1.361
    32   7 N    3.250 --    14 C    1.253    17 C    1.219    60 H    0.964
    33   6 C    3.908 --    34 C    1.430    40 C    1.421     7 C    1.052
    34   6 C    3.826 --    35 C    1.433    33 C    1.430    61 H    0.996
    35   6 C    3.922 --    37 C    1.435    34 C    1.433    36 C    1.009
    36   6 C    3.917 --    35 C    1.009    63 H    1.001    62 H    0.995
                            64 H    0.987
    37   6 C    3.832 --    35 C    1.435    38 C    1.425    65 H    0.995
    38   6 C    3.921 --    40 C    1.442    37 C    1.425    39 C    1.008
    39   6 C    3.919 --    38 C    1.008    68 H    0.999    66 H    0.998
                            67 H    0.989
    40   6 C    3.820 --    38 C    1.442    33 C    1.421    69 H    0.996
    41   1 H    1.038 --     1 C    0.998
    42   1 H    1.022 --     3 C    0.995
    43   1 H    1.038 --     4 C    1.001
    44   1 H    1.088 --     6 N    0.964
    45   1 H    1.040 --     9 C    1.001
    46   1 H    1.041 --    10 C    1.000
    47   1 H    1.036 --    15 C    0.999
    48   1 H    1.037 --    16 C    1.000
    49   1 H    1.046 --    20 C    0.996
    50   1 H    1.036 --    22 C    0.988
    51   1 H    1.037 --    22 C    0.999
    52   1 H    1.037 --    22 C    0.998
    53   1 H    1.021 --    23 C    0.995
    54   1 H    1.036 --    25 C    0.997
    55   1 H    1.036 --    25 C    0.998
    56   1 H    1.036 --    25 C    0.988
    57   1 H    1.043 --    26 C    0.996
    58   1 H    1.041 --    28 C    1.002
    59   1 H    1.025 --    29 C    0.996
    60   1 H    1.092 --    32 N    0.964
    61   1 H    1.046 --    34 C    0.996
    62   1 H    1.037 --    36 C    0.995
    63   1 H    1.037 --    36 C    1.001
    64   1 H    1.034 --    36 C    0.987
    65   1 H    1.021 --    37 C    0.995
    66   1 H    1.038 --    39 C    0.998
    67   1 H    1.035 --    39 C    0.989
    68   1 H    1.037 --    39 C    0.999
    69   1 H    1.043 --    40 C    0.996
    70   6 C    3.771 --    99 C    1.376    71 C    1.362   110 H    0.998
    71   6 C    3.921 --    70 C    1.362    72 C    1.245    75 N    1.232
    72   6 C    3.816 --    73 C    1.581    71 C    1.245   111 H    0.995
    73   6 C    3.814 --    72 C    1.581    74 C    1.261   112 H    1.001
    74   6 C    3.883 --    76 C    1.340    73 C    1.261    75 N    1.215
    75   7 N    3.230 --    71 C    1.232    74 C    1.215   113 H    0.964
    76   6 C    3.831 --    77 C    1.368    74 C    1.340   102 C    1.052
    77   6 C    3.912 --    76 C    1.368    80 N    1.344    78 C    1.170
    78   6 C    3.824 --    79 C    1.675    77 C    1.170   114 H    1.001
    79   6 C    3.818 --    78 C    1.675    81 C    1.177   115 H    1.000
    80   7 N    2.536 --    81 C    1.422    77 C    1.344
    81   6 C    3.935 --    80 N    1.422    82 C    1.272    79 C    1.177
    82   6 C    3.797 --    81 C    1.272    83 C    1.265   140 C    1.238
    83   6 C    3.892 --    84 C    1.286    82 C    1.265   101 N    1.253
    84   6 C    3.794 --    85 C    1.553    83 C    1.286   116 H    0.999
    85   6 C    3.792 --    84 C    1.553    86 C    1.276   117 H    1.000
    86   6 C    3.876 --    87 C    1.322    85 C    1.276   101 N    1.219
    87   6 C    3.810 --    96 C    1.374    86 C    1.322    88 C    1.053
    88   6 C    3.908 --    89 C    1.424    95 C    1.424    87 C    1.053
    89   6 C    3.824 --    90 C    1.437    88 C    1.424   118 H    0.996
    90   6 C    3.921 --    89 C    1.437    92 C    1.430    91 C    1.008
    91   6 C    3.918 --    90 C    1.008   120 H    0.999   121 H    0.998
                           119 H    0.988
    92   6 C    3.831 --    90 C    1.430    93 C    1.429   122 H    0.995
    93   6 C    3.921 --    95 C    1.438    92 C    1.429    94 C    1.009
    94   6 C    3.918 --    93 C    1.009   124 H    0.998   123 H    0.997
                           125 H    0.988
    95   6 C    3.821 --    93 C    1.438    88 C    1.424   126 H    0.996
    96   6 C    3.937 --    87 C    1.374   100 N    1.361    97 C    1.155
    97   6 C    3.840 --    98 C    1.700    96 C    1.155   127 H    1.002
    98   6 C    3.851 --    97 C    1.700    99 C    1.149   128 H    0.996
    99   6 C    3.965 --   100 N    1.381    70 C    1.376    98 C    1.149
   100   7 N    2.514 --    99 C    1.381    96 C    1.361
   101   7 N    3.250 --    83 C    1.253    86 C    1.219   129 H    0.964
   102   6 C    3.908 --   103 C    1.430   109 C    1.421    76 C    1.052
   103   6 C    3.826 --   104 C    1.433   102 C    1.430   130 H    0.996
   104   6 C    3.922 --   106 C    1.435   103 C    1.433   105 C    1.009
   105   6 C    3.917 --   104 C    1.009   132 H    1.001   131 H    0.995
                           133 H    0.987
   106   6 C    3.832 --   104 C    1.435   107 C    1.425   134 H    0.995
   107   6 C    3.921 --   109 C    1.442   106 C    1.425   108 C    1.008
   108   6 C    3.919 --   107 C    1.008   137 H    0.999   135 H    0.998
                           136 H    0.989
   109   6 C    3.820 --   107 C    1.442   102 C    1.421   138 H    0.996
   110   1 H    1.038 --    70 C    0.998
   111   1 H    1.022 --    72 C    0.995
   112   1 H    1.038 --    73 C    1.001
   113   1 H    1.088 --    75 N    0.964
   114   1 H    1.040 --    78 C    1.001
   115   1 H    1.041 --    79 C    1.000
   116   1 H    1.036 --    84 C    0.999
   117   1 H    1.037 --    85 C    1.000
   118   1 H    1.046 --    89 C    0.996
   119   1 H    1.036 --    91 C    0.988
   120   1 H    1.037 --    91 C    0.999
   121   1 H    1.037 --    91 C    0.998
   122   1 H    1.021 --    92 C    0.995
   123   1 H    1.036 --    94 C    0.997
   124   1 H    1.036 --    94 C    0.998
   125   1 H    1.036 --    94 C    0.988
   126   1 H    1.043 --    95 C    0.996
   127   1 H    1.041 --    97 C    1.002
   128   1 H    1.025 --    98 C    0.996
   129   1 H    1.092 --   101 N    0.964
   130   1 H    1.046 --   103 C    0.996
   131   1 H    1.037 --   105 C    0.995
   132   1 H    1.037 --   105 C    1.001
   133   1 H    1.034 --   105 C    0.987
   134   1 H    1.021 --   106 C    0.995
   135   1 H    1.038 --   108 C    0.998
   136   1 H    1.035 --   108 C    0.989
   137   1 H    1.037 --   108 C    0.999
   138   1 H    1.043 --   109 C    0.996
   139   6 C    3.749 --   140 C    2.580    13 C    1.238
   140   6 C    3.749 --   139 C    2.580    82 C    1.238
 ---------------------------------------------------------------------------

Topologies differ in total number of bonds
Writing topology from bond orders to xtbtopo.mol

 dipole moment from electron density (au)
     X       Y       Z   
 -40.9850   0.0517  -0.1910  total (Debye):  104.175


           -------------------------------------------------
          | TOTAL ENERGY             -242.061034635315 Eh   |
          | GRADIENT NORM               0.072883400603 Eh/α |
          | HOMO-LUMO GAP               0.249627177327 eV   |
           -------------------------------------------------
########################################################################
[WARNING] Runtime exception occurred
-1- restart_readRestart: Dimension missmatch in restart file.
########################################################################

------------------------------------------------------------------------
 * finished run on 2022/07/27 at 13:54:13.238     
------------------------------------------------------------------------
 total:
 * wall-time:     0 d,  0 h,  0 min,  5.914 sec
 *  cpu-time:     0 d,  0 h,  0 min,  5.507 sec
 * ratio c/w:     0.931 speedup
 SCF:
 * wall-time:     0 d,  0 h,  0 min,  5.230 sec
 *  cpu-time:     0 d,  0 h,  0 min,  5.203 sec
 * ratio c/w:     0.995 speedup

