140
 energy: -212.341319308600 gnorm: 2.510666991056 xtb: 6.5.1 (b24c23e)
C           13.02053500000000       -0.04349000000000        0.10254300000000
C           13.74913300000000        1.23657800000000        0.61559200000000
C           13.13900800000000        2.34304600000000        1.16107100000000
C           14.16060500000000        3.28909900000000        1.43421800000000
C           15.36053600000000        2.72934900000000        1.04122700000000
N           15.10226800000000        1.45959600000000        0.58852300000000
C           16.78407200000000        3.42764500000000        1.07224800000000
C           17.91239300000000        2.71506600000000        0.80668400000000
C           19.21619000000000        3.34411200000000        0.75476300000000
C           20.11681800000000        2.41807600000000        0.44791600000000
N           18.10789000000000        1.38694600000000        0.53144100000000
C           19.43804099999999        1.14495100000000        0.30460700000000
C           20.10537000000000        0.00000000000000        0.00000000000000
C           19.33078300000000       -1.38124300000000       -0.10923800000000
C           19.87835300000000       -2.63785400000000        0.06390800000000
C           18.85376600000000       -3.58748600000000       -0.17252100000000
C           17.70619000000000       -2.88496500000000       -0.47098800000000
C           16.29345500000000       -3.51019500000000       -0.83353400000000
C           16.26202300000000       -4.89660000000000       -1.35395800000000
C           15.89870900000000       -5.96119700000000       -0.51946900000000
C           15.87926100000000       -7.27512200000000       -1.00335700000000
C           15.44773300000000       -8.40175000000000       -0.11556000000000
C           16.21424700000000       -7.51312600000000       -2.34406000000000
C           16.59688100000000       -6.46069200000000       -3.18789800000000
C           16.92722700000000       -6.71257700000000       -4.62702400000000
C           16.60888700000000       -5.15345300000000       -2.68503500000000
C           15.16822700000000       -2.76439300000000       -0.67976500000000
C           13.84388800000000       -3.26402800000000       -1.00490500000000
C           12.95934400000000       -2.30818100000000       -0.73651100000000
C           13.68391300000000       -1.16297700000000       -0.24209300000000
N           15.00561400000000       -1.48219400000000       -0.23352300000000
N           17.99349500000000       -1.54314200000000       -0.37916000000000
C           16.82320300000000        4.88340800000000        1.35140700000000
C           17.09383700000000        5.34749700000000        2.64444000000000
C           17.12212600000000        6.72022400000000        2.91990800000000
C           17.45872200000000        7.20067400000000        4.29804800000000
C           16.89248200000000        7.62981100000000        1.87762900000000
C           16.60375700000000        7.18090400000000        0.58079900000000
C           16.38558800000000        8.15366700000000       -0.53742000000000
C           16.58127500000000        5.80410300000000        0.32532500000000
H           11.94178200000000       -0.00947100000000        0.00875100000000
H           12.07973000000000        2.46253600000000        1.32811900000000
H           14.03268000000000        4.27781000000000        1.84947200000000
H           15.80392200000000        0.79409500000000        0.27226100000000
H           19.42737800000000        4.38550500000000        0.92078900000000
H           21.16937100000000        2.60354200000000        0.33715000000000
H           20.90452200000000       -2.85208000000000        0.32068000000000
H           18.94229800000000       -4.66300200000000       -0.13254000000000
H           15.62596700000000       -5.73950400000000        0.51099000000000
H           14.39461700000000       -8.64050500000000       -0.29764900000000
H           16.05345600000000       -9.29528400000000       -0.30323800000000
H           15.57021100000000       -8.14221700000000        0.94181900000000
H           16.17665600000000       -8.52731300000000       -2.73347300000000
H           17.67204500000000       -5.99597000000000       -4.98752200000000
H           17.34886900000000       -7.71405500000000       -4.76219000000000
H           16.02516600000000       -6.62361400000000       -5.23965300000000
H           16.88255600000000       -4.31271800000000       -3.32039300000000
H           13.61389600000000       -4.23781500000000       -1.39831500000000
H           11.89463300000000       -2.36801100000000       -0.87087800000000
H           17.30618200000000       -0.79677900000000       -0.44606800000000
H           17.28963600000000        4.61598000000000        3.42669500000000
H           17.06912500000000        6.51403900000000        5.05720800000000
H           17.01392700000000        8.18245100000000        4.48969600000000
H           18.54362700000000        7.27807100000000        4.41282900000000
H           16.93883000000000        8.69718500000000        2.07697600000000
H           15.97134200000000        9.09540700000000       -0.16231300000000
H           17.33347700000000        8.36216200000000       -1.04211300000000
H           15.67437000000000        7.75530300000000       -1.26835800000000
H           16.38039800000000        5.42416500000000       -0.67500700000000
C           30.35594500000000       -0.01427000000000        0.11046600000000
C           29.62734600000000       -1.37816900000000       -0.09343000000000
C           30.23747100000000       -2.60863100000000       -0.18163900000000
C           29.21587500000000       -3.56307700000000       -0.42383700000000
C           28.01594400000000       -2.88147400000000       -0.48022000000000
N           28.27421200000000       -1.55696200000000       -0.22945500000000
C           26.59240800000000       -3.49978400000000       -0.80621300000000
C           25.46408700000000       -2.75066100000000       -0.67541800000000
C           24.16029000000000       -3.26730600000000       -1.03800800000000
C           23.25966200000000       -2.31311200000000       -0.83500600000000
N           25.26859000000000       -1.46542700000000       -0.24201600000000
C           23.93843900000000       -1.14199000000000       -0.31552600000000
C           23.27111000000000        0.00000000000000        0.00000000000000
C           24.04569700000000        1.24721700000000        0.60350200000000
C           23.49812600000000        2.24422000000000        1.38774500000000
C           24.52271400000000        3.18320500000000        1.66343800000000
C           25.67029000000000        2.72769900000000        1.05095700000000
C           27.08302500000000        3.45043200000000        1.05392900000000
C           27.11445700000000        4.90982700000000        1.30518000000000
C           27.47777000000000        5.40702200000000        2.56316800000000
C           27.49721900000000        6.78540800000000        2.80933500000000
C           27.92874700000000        7.30920700000000        4.14466600000000
C           27.16223300000000        7.66810500000000        1.77252400000000
C           26.77959800000000        7.18612900000000        0.51261200000000
C           26.44925300000000        8.13052800000000       -0.60212600000000
C           26.76759300000000        5.80392800000000        0.28619800000000
C           28.20825300000000        2.72911400000000        0.80986900000000
C           29.53259200000000        3.32456000000000        0.78167500000000
C           30.41713600000000        2.36406300000000        0.53042700000000
C           29.69256700000000        1.12596600000000        0.37858300000000
N           28.37086600000000        1.39712500000000        0.54724100000000
N           25.38298500000000        1.52329700000000        0.45234400000000
C           26.55327700000000       -4.89715400000000       -1.30071700000000
C           26.28264300000000       -5.95088300000000       -0.41926000000000
C           26.25435400000000       -7.27472600000000       -0.87500100000000
C           25.91775700000000       -8.38557100000000        0.07163900000000
C           26.48399800000000       -7.53317500000000       -2.23400800000000
C           26.77272300000000       -6.49062900000000       -3.12641100000000
C           26.99089200000000       -6.76523500000000       -4.58287100000000
C           26.79520500000000       -5.17337000000000       -2.65135700000000
H           31.43469800000000        0.00375200000000        0.01233700000000
H           31.29674900000000       -2.79614200000000       -0.09783800000000
H           29.34379900000000       -4.62612600000000       -0.56494300000000
H           27.57255800000000       -0.82285600000000       -0.16619600000000
H           23.94910200000000       -4.24991600000000       -1.42081600000000
H           22.20710900000000       -2.41721500000000       -1.02429300000000
H           22.47195800000000        2.29938400000000        1.71756500000000
H           24.43418200000000        4.09119200000000        2.24127200000000
H           27.75051300000000        4.69513100000000        3.34047500000000
H           28.98186200000000        7.60724400000000        4.10813500000000
H           27.32302400000000        8.17515000000000        4.43409300000000
H           27.80626900000000        6.55105900000000        4.92608800000000
H           27.19982400000000        8.74008600000000        1.94880300000000
H           25.70443500000000        7.69420200000000       -1.27525800000000
H           26.02761100000000        9.06310100000000       -0.21285000000000
H           27.35131400000000        8.36323900000000       -1.17577700000000
H           26.49392400000000        5.39933200000000       -0.68684700000000
H           29.76258400000000        4.36369500000000        0.93409400000000
H           31.48184700000000        2.48357700000000        0.44469200000000
H           26.07029800000000        0.91297600000000        0.01755400000000
H           26.08684400000000       -5.71475300000000        0.62538500000000
H           26.30735500000000       -8.17650700000000        1.07367900000000
H           26.36255299999999       -9.32967400000000       -0.25894000000000
H           24.83285300000000       -8.51035000000000        0.13159800000000
H           26.43765000000000       -8.55503900000000       -2.60118500000000
H           27.40513700000000       -7.76746600000000       -4.73489700000000
H           26.04300300000000       -6.69020800000000       -5.12375500000000
H           27.70210900000000       -6.05218600000000       -5.01243400000000
H           26.99608200000000       -4.34013000000000       -3.32272000000000
C           21.07728100000000        0.00000000000000        0.00000000000000
C           22.29919900000000        0.00000000000000        0.00000000000000
140
 energy: -212.915461293861 gnorm: 0.583599414924 xtb: 6.5.1 (b24c23e)
C           13.03135186610884       -0.02688935254169        0.10910008558899
C           13.74504251767736        1.22561991341861        0.61163601204823
C           13.14098186313651        2.34645566541732        1.16123689032659
C           14.15873916160493        3.28848909748049        1.43290900858594
C           15.37189168913008        2.73330079560948        1.04155880081888
N           15.10223584008554        1.45995707449765        0.58749020771135
C           16.76794694915007        3.41772862796918        1.07126646065095
C           17.91277132914347        2.71797289576210        0.80725008658566
C           19.21581365428208        3.35046095844695        0.75621002809455
C           20.11740246841700        2.41695650501961        0.44722101616712
N           18.09719145020345        1.38685034656647        0.53185733505121
C           19.38853132449660        1.16873886408567        0.31095019078077
C           19.93317156923701       -0.01746959269032       -0.00274811381583
C           19.31102492664110       -1.38499569934220       -0.10927893257143
C           19.87576149485155       -2.63861548791101        0.06244651019975
C           18.85472966672569       -3.58701311738410       -0.17365619305401
C           17.69350349166191       -2.89060956053164       -0.47352472757804
C           16.30970909212516       -3.50148284633477       -0.82933449517443
C           16.26466674271629       -4.89541899159369       -1.35254120847873
C           15.89881711845621       -5.96054343865423       -0.52052400569048
C           15.87901760150725       -7.27229170638680       -1.00504612605125
C           15.44861554518340       -8.40233491406479       -0.11471400153047
C           16.21463333607445       -7.51103260296922       -2.34320656888344
C           16.59513323147972       -6.45966377089047       -3.18525671384154
C           16.92851300915217       -6.71305591641756       -4.62725017817562
C           16.60921694342143       -5.15381424988194       -2.68365635227066
C           15.16569163804209       -2.76174877342237       -0.67970283351245
C           13.84273586837375       -3.26844354849048       -1.00648410936469
C           12.95569777610008       -2.31028269025170       -0.73768921933967
C           13.68673438089393       -1.16540026508496       -0.24335063093474
N           15.01096168698946       -1.47870105272063       -0.23207676292259
N           17.98790214198980       -1.54751015419039       -0.38137591932390
C           16.82062329624646        4.88186646854224        1.35173830282172
C           17.09358984765880        5.34741285949578        2.64313058406513
C           17.12256679018974        6.71892335962103        2.91690485125512
C           17.45756085378948        7.20110608383277        4.29881508361650
C           16.89205795005834        7.62756269442075        1.87726437838849
C           16.60529003926741        7.17865520718942        0.58264208483724
C           16.38431102519610        8.15425052986014       -0.53741265313979
C           16.58097245540960        5.80361231456580        0.32664865418218
H           11.94555728686442       -0.00645116350642        0.01086076170997
H           12.08063596768703        2.46340149604819        1.32839675601829
H           14.03215723950045        4.27713140939707        1.84927953909151
H           15.80329744384882        0.79476299837944        0.27251948869180
H           19.42663470644888        4.38834014418163        0.92147272412711
H           21.17029622898356        2.60087677736474        0.33520904542931
H           20.90272979258124       -2.85179540500050        0.32130855660202
H           18.94306265828230       -4.66233756031004       -0.13257836310715
H           15.62639815771250       -5.74049901612481        0.51008762021237
H           14.39556767102821       -8.64068275600054       -0.29738382276149
H           16.05246170637384       -9.29500619507961       -0.30370323511132
H           15.56956871519252       -8.14190686331110        0.94100276695493
H           16.17699345230210       -8.52634085866154       -2.73302741058156
H           17.67103580705517       -5.99579162954410       -4.98745254415915
H           17.34788671789444       -7.71386846902668       -4.76212690307126
H           16.02596694396053       -6.62372547906862       -5.23952793610161
H           16.88259703446847       -4.31409978165758       -3.32020753229359
H           13.61481018404592       -4.24045811865772       -1.39908513886221
H           11.89233743836381       -2.36737201933121       -0.87080883585499
H           17.30635122513559       -0.79787471353285       -0.44627273919988
H           17.28923555092814        4.61729552654621        3.42637948200901
H           17.07007393965017        6.51398779315203        5.05661016165884
H           17.01471390057564        8.18234864292971        4.48922432065200
H           18.54289636289532        7.27804293396161        4.41311228506725
H           16.93848018289560        8.69615563904488        2.07687248358625
H           15.97230586201597        9.09515541509956       -0.16226173393088
H           17.33266689562756        8.36220892397907       -1.04203652044246
H           15.67543224868771        7.75509803852970       -1.26828416287353
H           16.38031319177016        5.42525659637790       -0.67412122848186
C           30.34512809878402       -0.03190915345543        0.10773856565949
C           29.63143658774413       -1.36671347428505       -0.09130824318700
C           30.23549727412920       -2.61165747196584       -0.18321834560316
C           29.21774076711458       -3.56188928870281       -0.42465854334184
C           28.00458825877638       -2.88505197304478       -0.48192994147562
N           28.27424403304973       -1.55675187394395       -0.23052877984579
C           26.60853304958638       -3.49073020315162       -0.80205054753572
C           25.46370868588957       -2.75345556744490       -0.67639791181318
C           24.16066639150496       -3.27351639441494       -1.03996657669955
C           23.25907747158421       -2.31179463538181       -0.83504022723449
N           25.27928853618028       -1.46555485323252       -0.24160842264759
C           23.98794870094321       -1.16572376264877       -0.32206890282508
C           23.44330841071226        0.01646480647228        0.00645363362784
C           24.06545501940462        1.25047637022775        0.60536254144258
C           23.50071781491027        2.24561545401154        1.38686826319974
C           24.52175029294886        3.18337027766118        1.66221940127257
C           25.68297647185360        2.73385182928820        1.05161933316879
C           27.06677089148965        3.44079180807095        1.05315199957460
C           27.11181320790155        4.90809197321906        1.30580598035831
C           27.47766199696583        5.40699087797172        2.56192754800754
C           27.49746236231410        6.78381879485703        2.80644742015344
C           27.92786436981869        7.30928428891192        4.14569162153959
C           27.16184664633562        7.66586720354088        1.77220307867551
C           26.78134585129463        7.18390747457896        0.51437197699745
C           26.44796691483024        8.13105551231058       -0.60207947062836
C           26.76726304095352        5.80354322563799        0.28757037867997
C           28.21078838529259        2.72680049620758        0.80858686979374
C           29.53374417307367        3.32916836982843        0.78254278859692
C           30.42078218724811        2.36647209798831        0.53047197994661
C           29.68974561193168        1.12869265469510        0.37872180939806
N           28.36551831238729        1.39338003313298        0.54672455869698
N           25.38857781083213        1.52818626915210        0.45263834900846
C           26.55585671452374       -4.89599084690640       -1.29965237490593
C           26.28289013658093       -5.95014891187245       -0.42034745083975
C           26.25391316266773       -7.27208660788741       -0.87693578127899
C           25.91891834326308       -8.38633121978884        0.07208278604489
C           26.48442204673448       -7.53105033519048       -2.23318678491405
C           26.77118996903605       -6.48961936794804       -3.12368446488574
C           26.99216885353574       -6.76574230387851       -4.58315929031612
C           26.79550754634885       -5.17361521180142       -2.64996674861727
H           31.43092270854552        0.00008004393872        0.01263218115608
H           31.29584307230293       -2.79702925515375       -0.09803551882701
H           29.34432181013507       -4.62544324811206       -0.56476631485216
H           27.57318252228849       -0.82356308377639       -0.16631038900768
H           23.94984530057146       -4.25270818087789       -1.42165820776272
H           22.20618377763307       -2.41393432544775       -1.02462163392610
H           22.47375009567959        2.29882085773276        1.71796372154111
H           24.43341733992430        4.09063799906179        2.24090323742051
H           27.75008179181440        4.69644561976894        3.34019879694309
H           28.98091146456910        7.60726345458051        4.10845364255727
H           27.32401823580788        8.17514530916341        4.43355116074574
H           27.80691129861778        6.55120373991338        4.92522687657590
H           27.19948654376824        8.73902194227912        1.94869640412254
H           25.70544427061281        7.69401306890471       -1.27528804247766
H           26.02859329582251        9.06290809090601       -0.21288979703667
H           27.35051300426468        8.36327202155196       -1.17561266235171
H           26.49388296313121        5.40043077681329       -0.68598892003640
H           29.76166981337721        4.36636503424590        0.93476460522374
H           31.48414255613428        2.48299060944546        0.44442888215815
H           26.07012878021696        0.91402503298014        0.01793082685326
H           26.08724445038894       -5.71572893082707        0.62444810344064
H           26.30640603472285       -8.17616081928540        1.07318889347691
H           26.36176609897030       -9.32934745023183       -0.25929538396110
H           24.83358351530079       -8.51046891123232        0.13185663696571
H           26.43799980755441       -8.55409843401402       -2.60075431986570
H           27.40417320092301       -7.76727486421825       -4.73472565863756
H           26.04381303889517       -6.69028711742270       -5.12371272106951
H           27.70104687500126       -6.05204632580204       -5.01226681225547
H           26.99616680195155       -4.34151957421345       -3.32250701915985
C           21.15469887825289       -0.00796922471640       -0.00222770630889
C           22.22178110669486        0.00800294700175        0.00210335200740
140
 energy: -213.063182317942 gnorm: 0.335131173641 xtb: 6.5.1 (b24c23e)
C           13.05920923071431        0.00058047615461        0.12040230499717
C           13.74437380042219        1.21280436909404        0.60690622970063
C           13.14670294080589        2.35182221409716        1.15835041001437
C           14.15697603980983        3.28708383823837        1.42742560194892
C           15.38607160836507        2.73635522680345        1.04094523377992
N           15.10400952393282        1.46085027051267        0.58493018214944
C           16.73041519224531        3.40418194238651        1.07148058169942
C           17.89819559447055        2.72790683027797        0.81020314485206
C           19.20944562811466        3.36117111366639        0.75914552133173
C           20.10543907303757        2.41582348657288        0.44540111369308
N           18.04598766917879        1.40028103082735        0.53423311638951
C           19.31949303610241        1.18703692695045        0.31183541137767
C           19.80757337365628       -0.04900380646712       -0.00082072098179
C           19.27326913542287       -1.38229558510263       -0.10425973524417
C           19.86258802828684       -2.63952743676764        0.05567896918035
C           18.85288217364929       -3.58615904291290       -0.18032074459298
C           17.66920046613312       -2.90245581337741       -0.47819880272344
C           16.33537174345258       -3.48446993777909       -0.82149278075552
C           16.27646677437286       -4.88848182597407       -1.34601066387602
C           15.90002789144494       -5.95592931865840       -0.52210538772957
C           15.87709332547109       -7.26545346088609       -1.00732680687858
C           15.45079073949101       -8.40117333611007       -0.11460942965327
C           16.21524439772916       -7.50597160769325       -2.34106671704454
C           16.59106910514462       -6.45587895321559       -3.18066689923435
C           16.93015154358961       -6.71316577273051       -4.62532218519121
C           16.61133593309288       -5.15223697343332       -2.67842937361554
C           15.16683493728884       -2.75554442587323       -0.68060156592559
C           13.84281046606050       -3.27522527820164       -1.00860307882030
C           12.95210399157090       -2.31213066819613       -0.73909224165079
C           13.69562216236865       -1.16415411852758       -0.24485377866070
N           15.02132044655784       -1.47248848094729       -0.23120093632280
N           17.96246333099034       -1.56002286954172       -0.38549122377550
C           16.80579475018860        4.87514456775744        1.35336124916034
C           17.09176873602203        5.34496238999139        2.63950880396110
C           17.12494078066585        6.71487604324474        2.91145136237174
C           17.45519418161148        7.20088016949642        4.29793486488938
C           16.89131503673756        7.62235650880140        1.87637814128881
C           16.60913865757455        7.17334962414550        0.58475614662737
C           16.38257136087347        8.15354953982745       -0.53585640694790
C           16.57862097405254        5.80034289075094        0.32982899102714
H           11.96707099666451        0.00869504753558        0.02170420623628
H           12.08558879828491        2.46696696849923        1.32923126410225
H           14.02990668086799        4.27410269583852        1.84818143841178
H           15.80357711186167        0.79576155528023        0.27263872818079
H           19.42361666099650        4.39856683387272        0.92433323990427
H           21.16471019789356        2.58861753455882        0.32806933345160
H           20.89090761811979       -2.84918460362358        0.32293437597777
H           18.94644513648871       -4.66033185090691       -0.13291339864424
H           15.62796983453356       -5.74300630955864        0.50832868619420
H           14.39875969024680       -8.64116795774232       -0.29664554125379
H           16.05020581967947       -9.29429387291638       -0.30581833421452
H           15.56795314744254       -8.14032676315875        0.93932712699865
H           16.17859761538579       -8.52193182597541       -2.73090516373967
H           17.66848005033503       -5.99463725512797       -4.98703454684628
H           17.34505564500947       -7.71401160475016       -4.76121343060799
H           16.02879042238955       -6.62410677938322       -5.23883416013707
H           16.88359345160633       -4.31764400284044       -3.31965605688992
H           13.61893362380335       -4.24929625287758       -1.40125629160494
H           11.88632883782190       -2.36474096085944       -0.87008392621988
H           17.29493093442042       -0.80328030120374       -0.44850639596853
H           17.28741373669328        4.62043385319981        3.42583865622207
H           17.07244754129498        6.51301058579965        5.05494930239700
H           17.01649188383793        8.18255146901892        4.48715331520583
H           18.54015719251192        7.27787397750576        4.41390427625066
H           16.93679789777713        8.69147800382044        2.07639975960790
H           15.97497627104109        9.09466421133648       -0.16115703017504
H           17.32981589970823        8.36221167191083       -1.04163145188821
H           15.67811748224351        7.75376440241566       -1.26827889457356
H           16.37911045148450        5.42806811465054       -0.67185727714918
C           30.31727066627199       -0.06132574154897        0.10361541686823
C           29.63210547901164       -1.35326404523794       -0.08891592152761
C           30.22977641365292       -2.61483078379316       -0.18842054108737
C           29.21950378366752       -3.55790633538841       -0.42868081786489
C           27.99040824056542       -2.88737786382148       -0.48400227484495
N           28.27247022551221       -1.55622936992854       -0.23318946469577
C           26.64606476485193       -3.47914735982684       -0.79502224610630
C           25.47828439849116       -2.76352040029643       -0.67886772127753
C           24.16703443494367       -3.28424253715842       -1.04284373118987
C           23.27104083343773       -2.30989730056613       -0.83603848860561
N           25.33049231287886       -1.47834601850383       -0.24634309414758
C           24.05698699878281       -1.18196250197386       -0.33054880007690
C           23.56890657958121        0.04270558658169        0.02404747273288
C           24.10321076450295        1.24561053296553        0.60833023560181
C           23.51389160992833        2.24982129148084        1.38148829095390
C           24.52359776749053        3.18599989565035        1.65603636833653
C           25.70727946497842        2.74643652313745        1.05357013209303
C           27.04110823549250        3.42214796450639        1.05132486375646
C           27.10001311112139        4.89880591966179        1.30793733461424
C           27.47645144178879        5.40380764636166        2.55823204039822
C           27.49938655361574        6.77906949547758        2.80102461386612
C           27.92568908746077        7.30822887706105        4.14519509926883
C           27.16123549707931        7.66041849877024        1.77149321714979
C           26.78541021631268        7.17832271654416        0.51642092989252
C           26.44632829383002        8.13017625885247       -0.60036040368329
C           26.76514398289375        5.79954140645343        0.29128468130284
C           28.20964510123405        2.72189996941952        0.80467704597627
C           29.53366958663051        3.33609151061211        0.78413992595420
C           30.42437596058424        2.36877579616406        0.53019486885819
C           29.68085782268036        1.12837659879288        0.37679498792984
N           28.35515954733156        1.38757619685497        0.54434192081489
N           25.41401656897327        1.54106396387263        0.45540794154269