404
 energy: -780.074231987757 gnorm: 0.000611272379 xtb: 6.5.1 (b24c23e)
C           68.89837940409939       -0.32643387024605        0.13127287727562
C           69.51476110063807       -1.07760836753667       -0.86105246832826
C           68.87038797399858       -1.85726849959912       -1.86222731573941
C           69.83837727963081       -2.43184955695212       -2.63667698095011
C           71.10629239724474       -2.03473779872571       -2.12355237128200
N           70.85958032637662       -1.20994773180667       -1.06275950188534
C           72.37468938346630       -2.39463899909060       -2.59291333266428
C           72.42267138396427       -3.31601040910107       -3.75528803056904
C           73.04012393352554       -2.90188033810752       -4.93896040344413
C           73.07850720849466       -3.75630962985894       -6.03349387817390
O           73.65764252295016       -3.41646067098835       -7.22783823499858
C           72.51057468900848       -5.02529553980916       -5.95314418392849
O           72.53693802779171       -5.88822727708607       -7.01698177627245
C           71.89804102166021       -5.44181796766808       -4.77007312268568
O           71.35217290021858       -6.68039419595346       -4.70052312605158
C           71.85129563456238       -4.58620293446074       -3.67547476397321
C           73.58327058778237       -1.95153843217456       -2.04933375821970
C           74.88682174558660       -2.41760162314698       -2.48703846079968
C           75.79820225233607       -1.77089780265965       -1.73101306657535
N           73.72517353571573       -1.05290834715849       -1.03644300537143
C           75.05063418312605       -0.91313799452517       -0.83217029325264
C           75.67620190659160       -0.04620133815925        0.08697225330262
C           75.02924139021812        0.80450994580038        1.00297540841064
C           75.65958396922720        1.72414571835279        1.88264671172519
C           74.68468921145369        2.34740800856470        2.61105902665732
C           73.42794186321905        1.81619881764358        2.20805153075006
N           73.68792984049459        0.89716720760134        1.22532309443056
C           72.16201526468589        2.15631873920973        2.69630114841488
C           72.10757209772424        3.16281662746324        3.78458190981228
C           72.75663626690395        2.92953730436943        4.99745869978805
C           72.69667260792032        3.87579291549294        6.01396010479546
O           73.31681209291163        3.65504444287384        7.19869724654844
C           71.99252209300549        5.06485295902462        5.81717917006626
O           71.95369994381730        5.98039906240514        6.83568267064433
C           71.34776256027739        5.29934973508572        4.60530783504642
O           70.68067094944841        6.49006862928681        4.48416215601967
C           71.39957511646587        4.35252146196656        3.59032778864914
C           70.95629591920836        1.61810140695691        2.23170522353115
C           69.65313018454439        1.91309759688285        2.80706513966632
C           68.75081817804487        1.21368468542364        2.08952920009993
C           69.50171416267960        0.48688212224513        1.08148887286986
N           70.82714285399611        0.74437044084007        1.20567682562902
H           67.81455447277830       -0.38054098861311        0.15387259649277
H           67.80157152280020       -1.95089150561673       -1.97035999893895
H           69.69238072456932       -3.07111306957910       -3.49211327150955
H           71.58069597750436       -0.76126785958733       -0.50782994181665
H           73.47179723183950       -1.91064036150369       -5.01276860087386
H           74.02817770054733       -2.52498687487421       -7.18870402990076
H           72.99792851526139       -5.44713490552295       -7.74825443698832
H           71.48879056032750       -7.12250989883935       -5.55471616715838
H           71.38922943074618       -4.92728258646605       -2.75805248694527
H           75.05917119725954       -3.15449089728774       -3.25479646223117
H           76.87304365242635       -1.85316323793287       -1.75605460250473
H           76.72392580216905        1.88662680103596        1.93781854368442
H           74.82076329688788        3.11286563753731        3.35738861845530
H           72.97367165918470        0.36744264558342        0.73656376923840
H           73.28996641661722        2.00347645550791        5.16913477990453
H           73.15632917675511        4.42085215064243        7.77450054699796
H           71.42485531177464        6.73736104102313        6.53706384358559
H           70.25979957788077        6.56143941033266        3.61739097633800
H           70.90755334987672        4.54803064493962        2.64478846596113
H           69.47837176228136        2.55522360608189        3.65540339190284
H           67.67986130074553        1.16808610191207        2.21130583674878
C          155.74675878901297       -0.19216766771062        0.32762577056028
C          155.13211656001366        0.59758154342130        1.29062916936755
C          155.77776121172221        1.36359282100505        2.30151540492462
C          154.81181256903380        1.99389508404574        3.03402453845891
C          153.54353546306879        1.62181391426976        2.50330663054785
N          153.78848052440921        0.78911768695510        1.44827578773567
C          152.27719536093150        2.02255798636335        2.94406796466330
C          152.23306372425247        2.92340614618338        4.12289769700041
C          151.65854016737862        4.19192758838811        4.00372570508485
C          151.62179127223132        5.03937016719032        5.10383075746878
O          151.08297288769887        6.29848130443500        5.06043288254046
C          152.14872225106635        4.62702610146104        6.32512531924227
O          152.12200088553408        5.44208376028109        7.42624923968741
C          152.71927953204352        3.35895036669233        6.44628466949079
O          153.22566947222600        2.96543199091424        7.64036412985574
C          152.76453278580473        2.51158170048038        5.34526597490666
C          151.06781071209184        1.63491188733505        2.36142599433324
C          149.76328029179874        1.98953048060793        2.89124622125915
C          148.85132675082102        1.42635820104441        2.07179541081029
N          150.92529450255714        0.86065750142940        1.25066356356611
C          149.59932393861240        0.72599435754598        1.04587981807224
C          148.97395941942111        0.02600191468790       -0.00577736562826
C          149.62001026221131       -0.69263494590138       -1.02919581856579
C          148.98956345761664       -1.33632786095717       -2.12703461344262
C          149.96341226331000       -1.91174879299518       -2.89487777351306
C          151.21948606814541       -1.64967917119704       -2.28029377772443
N          150.96025381717084       -0.90024928025490       -1.16264447107046
C          152.48434957421742       -2.05436896967656       -2.71948394986545
C          152.53643430986475       -2.87573362782470       -3.95373017688172
C          151.87965932737876       -4.10522515197281       -4.01406174569277
C          151.93232080060142       -4.86796059580772       -5.17499692398556
O          151.30348430497418       -6.06661122262242       -5.24117541482263
C          152.63729211326040       -4.39855335885173       -6.28456719877560
O          152.66760132031402       -5.16963190272353       -7.41662479202401
C          153.29098812872820       -3.17037761381761       -6.22505583099289
O          153.95863054512478       -2.77386223589190       -7.35406799512205
C          153.24641604073099       -2.40927373720188       -5.06394001429217
C          153.68964261558813       -1.73860840382999       -2.08192851088852
C          154.99065835063297       -2.23882897064624       -2.49823497584560
C          155.89253375084778       -1.71950443089497       -1.64081965109575
C          155.14345823434741       -0.90796162799147       -0.69813778905860
N          153.81962509996006       -0.95208071313535       -0.98766302377624
H          156.82928254989659       -0.24467964967352        0.38698359556929
H          156.84619463075316        1.42257238971565        2.43502461691936
H          154.95933681025662        2.66299966296311        3.86608926892339
H          153.06709925638540        0.37561192777054        0.86700460509630
H          151.25863717274865        4.52419987005587        3.05293596944162
H          150.73737969812009        6.49395465840147        4.17958119314578
H          151.69164383377716        6.27384213129494        7.17174045165099
H          153.09595778619746        3.68586501343787        8.27903282510943
H          153.19369546694125        1.52413142962910        5.45609734445107
H          149.58996383605583        2.57335095758299        3.78077483201124
H          147.77560264428129        1.46082706184018        2.13762070095722
H          147.92607316535970       -1.34389736442779       -2.30347057537670
H          149.82702937871193       -2.46324877921665       -3.81064535963141
H          151.67440952131028       -0.55040140296443       -0.53238656630133
H          151.34478219119595       -4.48828537530792       -3.15460618031927
H          151.45703290118180       -6.44382162952744       -6.12315475683679
H          153.19606266901121       -4.70190949028224       -8.08278635888022
H          154.38334745537486       -1.91666710029130       -7.21869006728452
H          153.74480262301995       -1.44759917084047       -5.02993168087925
H          155.16398979362560       -2.90954794820489       -3.32447032820919
H          156.96202164917275       -1.85945615943599       -1.61863532064043
C           80.87898773200814        0.02681882982461        0.07164223021500
C           79.65067541808723        0.02034609635417        0.08313718903729
C           78.30600139267722        0.00573926506719        0.09106346844042
C           77.08221242790108       -0.01249265205906        0.09053500823699
C           82.22356691026546        0.02746593753136        0.05960926978830
C           83.44759741972827        0.02861137132412        0.04633181665010
C           96.90927541928684        0.00640096630777        0.04721577011677
C           95.68018482899707        0.00227997991960        0.05216493708659
C           94.33686283469618        0.00309674583112        0.05320081451484
C           93.11219578505380        0.00250011846003        0.05188436840537
C           98.25254620112504        0.00443142487601        0.03772105245463
C           99.47725632416577        0.00677968324232        0.03061150150106
C          112.93961530727771        0.00537097650548        0.05866478701544
C          111.71048454005123        0.00198633100766        0.06092806881413
C          110.36722363904374        0.00132815913041        0.05902393587707
C          109.14251295559335       -0.00106740879772        0.05309334064400
C          114.28286226130741        0.00450004151240        0.05378255526871
C          115.50765783737455        0.00727118575519        0.04689375986903
C          128.97103139348002        0.00603411333670        0.05975844951097
C          127.74194840915231        0.00250099359183        0.06334371407116
C          126.39861433218017        0.00109598968937        0.06104409726604
C          125.17388534421256       -0.00294622878991        0.05500064431212
C          130.31431993528304        0.01109898012992        0.04892646636206
C          131.53891002208974        0.02020751337426        0.03275056566397
C          145.00002751925032        0.05282603858982       -0.11025851501935
C          143.77182431453264        0.05386700017396       -0.12471375527778
C          142.42703265831972        0.05534536088946       -0.13149299093055
C          141.20302553498911        0.04954683236376       -0.13118359453654
C          146.34473017786945        0.04997665454180       -0.08440130163804
C          147.56811744103246        0.04354291461903       -0.05140375459885
C           84.85303525815321        0.02436971138908        0.03450758320754
C           85.47459588501182       -1.23922705568544        0.01159689514762
C           84.81981688965105       -2.49743218241767        0.03227372552371
C           85.77942456090307       -3.47192977260732       -0.01292686014092
C           87.04890940075900       -2.83555935926035       -0.07219217757309
N           86.81390972792983       -1.48664432968864       -0.04495128767698
C           88.30559875086371       -3.45227900916890       -0.12976977310973
C           88.31260278208272       -4.93465531188347       -0.19505925371833
C           88.93996271771782       -5.67959532088177        0.80434492672965
C           88.95317930742438       -7.07096879343112        0.76009377740346
O           89.55309896956585       -7.80643579076527        1.73173580921500
C           88.33691074427806       -7.73708539390945       -0.30437729922773
O           88.33716325318446       -9.09299005502540       -0.37876188356773
C           87.71372252106303       -6.98420364388280       -1.30322802954893
O           87.13343944911276       -7.69781326230367       -2.32002369213925
C           87.69113051480046       -5.59729714710003       -1.25553123661868
C           89.53308141740504       -2.78721920820157       -0.12904068229989
C           90.81631617621869       -3.45456524280280       -0.25623411382209
C           91.75716792626233       -2.48899523366302       -0.20193015151218
N           89.71555591066517       -1.44133653233230       -0.02465244445169
C           91.04723206540282       -1.23424054868437       -0.05437699373751
C           91.70819360908125        0.00740460989195        0.04530833086497
C           91.08619787026953        1.26822267074854        0.13232867996367
C           91.74043267733197        2.52117516946285        0.25546565849752
C           90.78079695123891        3.49579568047881        0.28378954757240
C           89.51174410862457        2.86534335543567        0.17065155373662
N           89.74723421947317        1.51824973401188        0.09361138909785
C           88.25598751237138        3.48422072138433        0.15695729146106
C           88.25085798970207        4.96837841845465        0.20533794752968
C           88.85791510349949        5.70332282669446       -0.81336060080341
C           88.84939044248496        7.09265249031093       -0.77124392760172
O           89.42835039922379        7.81570344112039       -1.76042189301552
C           88.24091504067322        7.75195831659680        0.29807345099339
O           88.25223023569126        9.12174040219063        0.31539033689324
C           87.63970527256839        7.01785965520017        1.31746557655048
O           87.06831449143353        7.73459998316231        2.33562309747141
C           87.63864027227886        5.62920876619704        1.27363751766598
C           87.02802107214836        2.82214595398922        0.10058733962187
C           85.74527506624781        3.49873358453237        0.03035898184331
C           84.80381522739602        2.53257748946398        0.00325447550810
C           85.51304709163335        1.26934587648410        0.04380523475469
N           86.84535916016313        1.47302173191819        0.09180765778504
H           83.75132721590717       -2.63149838115010        0.08226030786393
H           85.62267363004678       -4.53806518142903        0.00492015762593
H           87.53891343682652       -0.77703289998119       -0.05481527134554
H           89.40872079815243       -5.17399716355626        1.64102077770017
H           89.94680279448589       -7.23830128968625        2.40683760327932
H           87.86408293322047       -9.35313787136172       -1.18561465230210
H           86.73379197222820       -7.10723615636201       -2.97160834650193
H           87.21510802840133       -5.03671569514491       -2.05151830698149
H           90.95719997957562       -4.51539065013478       -0.38538830727516
H           92.82898817674391       -2.58898970927277       -0.26404751441947
H           92.80876171063368        2.65093602149954        0.31822075901548
H           90.93604630340330        4.55767229559078        0.38231592787302
H           89.02299214868947        0.81161619424284        0.02063245708124
H           89.31956491097107        5.20288767755529       -1.65477504235645
H           89.31596623384620        8.75864278660376       -1.55550509863106
H           87.78938286638345        9.41463984233789        1.11653082534849
H           86.67211326489064        7.14555208504612        2.99106785440495
H           87.18034221764371        5.06415558892606        2.07670526674734
H           85.60548251640799        4.56694272442626       -0.00754789105861
H           83.73203055248504        2.63790945019097       -0.05050653092632
C          100.88109809985008        0.00531681852939        0.02277545694794
C          101.50601937972986       -1.25750095199658        0.02072944221866
C          100.85449352583447       -2.51674813785612        0.05784373160305
C          101.81656485613118       -3.48932931892253        0.01959307483153
C          103.08398905689113       -2.85038923193443       -0.05137427581529
N          102.84554502871693       -1.50174338713162       -0.03649479741018
C          104.34169709581546       -3.46476893009757       -0.11083257047131
C          104.34999847481839       -4.94742344772863       -0.16844386559759
C          104.97980988528278       -5.68713426220048        0.83320955564220
C          104.99148159022623       -7.07876408768819        0.79667172323603
O          105.59267416649297       -7.80939793628483        1.77116775004369
C          104.37195755879182       -7.75023207617697       -0.26254727214787
O          104.37042339797070       -9.10646106052853       -0.32910337155681
C          103.74709295654047       -7.00241500540753       -1.26421554805849
O          103.16390942698412       -7.72116280122080       -2.27554671784556
C          103.72537812783251       -5.61529838347335       -1.22378868866614
C          105.56801741358103       -2.79772131501796       -0.11901816749300
C          106.85184206196182       -3.46349465938062       -0.24728325479665
C          107.79137821181159       -2.49624344768966       -0.19877529669652
N          105.74856558061231       -1.45111634289618       -0.02058721347951
C          107.07990455504599       -1.24213274732723       -0.05385438403488
C          107.73867140218533        0.00093663234078        0.04323036547851
C          107.11376358883285        1.26080143656099        0.12583373629279
C          107.76480416086883        2.51511616755650        0.24995859832631
C          106.80293757169885        3.48791115558970        0.27163504722893
C          105.53595238849067        2.85475410793964        0.15263309157544
N          105.77445821968014        1.50804056842675        0.08001352170476
C          104.27878467822310        3.47133214782476        0.12746625620202
C          104.27046996072237        4.95548782521328        0.17118476465773
C          104.88900802341273        5.68948651842692       -0.84129140682240
C          104.87779782687213        7.07888704756765       -0.80193278429861
O          105.46825647445479        7.80084122622920       -1.78497336829134
C          104.25478762564029        7.73934185979400        0.25831970097066
O          104.26390420335004        9.10907238128077        0.27318138600274
C          103.64172716738881        7.00623458049096        1.27134919493027
O          103.05623438921431        7.72392518858179        2.28080650693591
C          103.64361031991584        5.61754201063213        1.23029627771314
C          103.05260651867566        2.80714099305840        0.06518702187809
C          101.76962689807893        3.48108024487829       -0.02264784695075
C          100.82958168078474        2.51337836850413       -0.04667954176043
C          101.54010331145852        1.25178411292968        0.01419271211926
N          102.87129502318328        1.45722223317503        0.06891539162990
H           99.78652191980518       -2.65299559974654        0.11272116692348
H          101.66266978810286       -4.55561453948458        0.04917440820565
H          103.56837791015242       -0.79017454093606       -0.05757675873479
H          105.45109164854588       -5.17723525381250        1.66584484219626
H          105.98821479638305       -7.23791771336233        2.44234951767918
H          103.89486938226105       -9.37077256074236       -1.13316741778601
H          102.76270374136901       -7.13412195799965       -2.92939049605447
H          103.24730287800847       -5.05855020539649       -2.02122654365536
H          106.99381617379944       -4.52461775461725       -0.37279818644796
H          108.86318832454214       -2.59474411138964       -0.26338322101254
H          108.83252412717863        2.64723941276579        0.31790680948926
H          106.95575083463709        4.55020736312656        0.36930142353065
H          105.05213497538587        0.79966210335210        0.00501549247584
H          105.36170722022857        5.18830675872860       -1.67609674934004
H          105.35122413611681        8.74405626496744       -1.58394157401547
H          103.78948872039939        9.40295428891466        1.06716491741400
H          102.65093069596072        7.13544796049539        2.93115918260058
H          103.17624623013566        5.05331141081515        2.02871496256410
H          101.62880126632204        4.54858021702959       -0.07398759273290
H           99.75813347251862        2.61669770614617       -0.11005305350263
C          116.91141611793311        0.00560578801067        0.03709166602933
C          117.53617626296555       -1.25723838736052        0.03422996316893
C          116.88470609183668       -2.51653854342015        0.07123436513986
C          117.84668852999258       -3.48899788753601        0.02924646250013
C          119.11397273091251       -2.84988479811335       -0.04330687857507
N          118.87555904531554       -1.50125776561985       -0.02587705291736
C          120.37124131523761       -3.46456042324093       -0.10567849043870
C          120.37697625102730       -4.94729279584340       -0.16598367151126
C          120.99871195197215       -5.69065866843535        0.83784835714110
C          121.00352843718804       -7.08235597077080        0.80017595940123
O          121.59547149626664       -7.81683563544102        1.77744546844920
C          120.38610649133959       -7.74987144225261       -0.26275443350431
O          120.37739958761702       -9.10607398443029       -0.32999019341493
C          119.77055477115810       -6.99821643942760       -1.26729750861625
O          119.18922200035898       -7.71318307020103       -2.28236141557768
C          119.75493163997633       -5.61106671690709       -1.22538314325013
C          121.59797967753944       -2.79844353703617       -0.11407667392174
C          122.88130234995619       -3.46515598378769       -0.24176434293624
C          123.82146191707115       -2.49843733003178       -0.19384365225880
N          121.77929336042004       -1.45194845097029       -0.01608647722854
C          123.11078521785323       -1.24373261731418       -0.04980398605635
C          123.76997064336588       -0.00082229029621        0.04617887081994
C          123.14538328114422        1.25931651647026        0.12810331262519
C          123.79681354320041        2.51352663223630        0.25099658608925
C          122.83520247585226        3.48661034396218        0.27329871739696
C          121.56793832197732        2.85378540269398        0.15579379066951
N          121.80604617059306        1.50700343407218        0.08334044988576
C          120.31071334430379        3.47058558590477        0.13195305503771
C          120.30109668101991        4.95461822093495        0.17556905393557
C          120.92133896673569        5.69009793588802       -0.83480638846522
C          120.90521363943519        7.07949661968076       -0.79636602692030
O          121.49690582543093        7.80285522012061       -1.77764713077273
C          120.27518903949311        7.73861677483933        0.26057151584375
O          120.27827974943150        9.10838438025673        0.27379394228868
C          119.66094090178142        7.00411425386061        1.27186414271928
O          119.06810952184041        7.72038924026671        2.27804704302580
C          119.66831379727223        5.61546768565890        1.23202831602235
C          119.08428784901288        2.80654341759621        0.07167757843009
C          117.80137364584256        3.48075762434846       -0.01635251150582
C          116.86088963772811        2.51343222715086       -0.03666117652601
C          117.57099952878224        1.25176065728325        0.02596992336140
N          118.90233261037500        1.45669189713714        0.07832104939698
H          115.81685988782341       -2.65284115874735        0.12831958138584
H          117.69300712833960       -4.55536065443844        0.05712843489129
H          119.59822255857478       -0.78954921679736       -0.04792703765163
H          121.46824989453850       -5.18371002104828        1.67326062809858
H          121.98950629379824       -7.24793861202202        2.45169414777473
H          119.90434878272448       -9.36733093074445       -1.13652622406064
H          118.79517932233877       -7.12354274636374       -2.93822746902374
H          119.28289410517688       -5.05111964906588       -2.02417923423862
H          123.02228158446547       -4.52659823602546       -0.36584783684611
H          124.89322844619385       -2.59760644135249       -0.25826639981988
H          124.86463348492745        2.64546435241497        0.31775570086294
H          122.98848901053084        4.54887287313887        0.37059680971629
H          121.08352280242327        0.79870544482062        0.00958819203128
H          121.39851326604013        5.19015441133282       -1.66780488267194
H          121.37522697732911        8.74578203580285       -1.57801601342804
H          119.79847453794918        9.40110917247860        1.06496479726239
H          118.66121578646057        7.13084427580392        2.92644166347957
H          119.19988242873529        5.05021465401508        2.02909961990676
H          117.66060945872979        4.54809102648315       -0.07086565368176
H          115.78940746529348        2.61705570520880       -0.09889995830664
C          132.94264630603917        0.02357185961671        0.00882078953575
C          133.57225556135475       -1.23669250962795       -0.00343375281929
C          132.92711361015591       -2.49878152022725        0.05082536084879
C          133.89216282626512       -3.46723715408553       -0.00708493546122
C          135.15500065187317       -2.82301435584581       -0.10923969510300
N          134.91109717581608       -1.47527538859395       -0.09022516303362
C          136.41301593138084       -3.43143372283210       -0.20252542976647
C          136.42676118571839       -4.91442235702790       -0.25356012928058
C          137.08125766804977       -5.64550730097603        0.73849426108560
C          137.09347010445234       -7.03739564368141        0.71268403522026
O          137.71658547628857       -7.75993176458724        1.67934505707444
C          136.45059243800853       -7.71764343073718       -0.32685397016963
O          136.44792955557045       -9.07442959540229       -0.38211631113594
C          135.80303254069901       -6.97828375671894       -1.32030996321267
O          135.19823596321547       -7.70542812325083       -2.31284018968589
C          135.77980324319702       -5.59090201084761       -1.28968845106528
C          137.63546288214508       -2.75807205313394       -0.24812290713492
C          138.91781042569093       -3.41796687024646       -0.41633138754748
C          139.85412215004450       -2.44675957509365       -0.39280636227443
N          137.81230704903217       -1.41160294016976       -0.15135293013181
C          139.14202336992778       -1.19626913848412       -0.22070071327319
C          139.79736449549591        0.04724774851501       -0.11988315777458
C          139.17059008837987        1.30256806014301       -0.00160596093274
C          139.81966919406949        2.55736098544010        0.13037758127459
C          138.85528870766788        3.52609394030152        0.18674614779943
C          137.58816416331308        2.89042417988508        0.08136067215660
N          137.82953607767772        1.54614688642856       -0.01757962059905
C          136.32834578990895        3.50229287902502        0.08665590018853
C          136.31201718548357        4.98533457363723        0.15301052793675
C          136.91629123253426        5.74019784489017       -0.85276833782251
C          136.89231552981667        7.12870629082233       -0.79250302636291
O          137.46829336436718        7.87103355224096       -1.76915097832033
C          136.27034051036480        7.76759112443931        0.28145131743441
O          136.26499291940172        9.13707735279329        0.31568666415650
C          135.67206364316658        7.01382756396263        1.28811952462394
O          135.08613700748234        7.71083729153746        2.31175613121945
C          135.68747390651902        5.62607765056985        1.22669735459564
C          135.10411574977641        2.83327509045632        0.03503253795684
C          133.81726293768011        3.50272293498153       -0.03015051790962
C          132.88078490584459        2.53151779092194       -0.04850520193912
C          133.59700178099226        1.27239133855524       -0.00559830989557