130
 energy: -251.665965437851 gnorm: 0.435591868351 xtb: 6.5.1 (b24c23e)
Zn          14.49221800000000       -0.02931900000000        0.00115800000000
C           11.15907800000000        0.12169300000000        0.10756800000000
C           11.82589000000000        1.27863900000000        0.08616800000000
C           11.17751900000000        2.58425700000000        0.08496400000000
C           12.12116000000000        3.50632700000000        0.07700300000000
C           13.42630600000000        2.83127800000000        0.07493500000000
N           13.24632400000000        1.41505200000000        0.07997000000000
C           14.62025600000000        3.45616900000000        0.10485200000000
C           14.65778100000000        4.93487200000000        0.11236700000000
C           14.44844100000000        5.65014700000000       -1.07460700000000
C           14.47009500000000        7.04848600000000       -1.07167000000000
O           14.25581900000000        7.72966400000000       -2.27005800000000
C           14.70316000000000        7.74414500000000        0.12848200000000
O           14.71878800000000        9.13967800000000        0.12441600000000
C           14.91693500000000        7.02813100000000        1.32057400000000
O           15.14978000000000        7.71083000000000        2.51321500000000
C           14.89445800000000        5.62690100000000        1.30718100000000
C           15.91846400000000        2.73206400000000        0.14320700000000
C           17.21773700000000        3.40159000000000        0.27463100000000
C           18.15206300000000        2.47442000000000        0.25997700000000
N           16.05308700000000        1.44429000000000        0.04262200000000
C           17.45895800000000        1.20051800000000        0.10844900000000
C           18.05416700000000       -0.00019000000000        0.00005200000000
C           17.30120800000000       -1.26572100000000       -0.18009900000000
C           17.86649700000000       -2.42766300000000       -0.48522600000000
C           16.81900100000000       -3.42672200000000       -0.51542400000000
C           15.67731200000000       -2.81255500000000       -0.22936800000000
N           15.89106300000000       -1.41583700000000       -0.00307800000000
C           14.36820100000000       -3.50626900000000       -0.11089900000000
C           14.34938500000000       -4.98505100000000       -0.12950500000000
C           14.49601500000000       -5.70305300000000        1.06390400000000
C           14.47473100000000       -7.10151500000000        1.05504600000000
O           14.61646000000000       -7.78679900000000        2.26177800000000
C           14.31140400000000       -7.79348100000000       -0.15893900000000
O           14.29457400000000       -9.18891500000000       -0.15995500000000
C           14.16950000000000       -7.07370000000000       -1.35948300000000
O           14.01206000000000       -7.75310400000000       -2.56669200000000
C           14.18767300000000       -5.67238800000000       -1.33946900000000
C           13.20552700000000       -2.84109400000000        0.01119600000000
C           11.88159700000000       -3.44926500000000        0.12991100000000
C           11.02258700000000       -2.45062200000000        0.18164600000000
C           11.78869700000000       -1.20799100000000        0.10165300000000
N           13.06343000000000       -1.42274300000000        0.00120800000000
H           10.07619500000000        0.15447700000000        0.13218800000000
H           10.11289200000000        2.78001700000000        0.09407700000000
H           11.93747900000000        4.57297700000000        0.08356000000000
H           14.26471000000000        5.11982500000000       -2.00129900000000
H           14.26079300000000        8.74110400000000       -2.32303300000000
H           14.86916200000000        9.67993300000000        0.96742200000000
H           15.30609300000000        7.21850400000000        3.38513600000000
H           15.05718500000000        5.07630200000000        2.22584000000000
H           17.40130400000000        4.46415000000000        0.36454500000000
H           19.21585100000000        2.65759600000000        0.33473200000000
H           18.91614900000000       -2.61257100000000       -0.66719900000000
H           16.95389500000000       -4.48148800000000       -0.71836700000000
H           14.62319000000000       -5.17529800000000        2.00135300000000
H           14.59814300000000       -8.79786600000000        2.31214500000000
H           14.18068100000000       -9.72703200000000       -1.01038200000000
H           13.91222200000000       -7.25880400000000       -3.44611000000000
H           14.07733300000000       -5.11890500000000       -2.26451300000000
H           11.62970500000000       -4.50142400000000        0.16440400000000
H            9.94758800000000       -2.54842500000000        0.26509100000000
Zn          30.93316700000000        0.02862600000000        0.00445300000000
C           34.26630599999999       -0.13347400000000        0.09306000000000
C           33.59949400000000       -1.28053800000000       -0.05933700000000
C           34.24786500000000       -2.57760600000000       -0.20851900000000
C           33.30422500000000       -3.49283200000000       -0.32094100000000
C           31.99907800000000       -2.82189800000000       -0.24648200000000
N           32.17906000000000       -1.41537000000000       -0.08095600000000
C           30.80512800000000       -3.44615300000000       -0.28758700000000
C           30.76760400000000       -4.91617900000000       -0.44772500000000
C           30.97694300000000       -5.49230600000000       -1.70812200000000
C           30.95528900000000       -6.88196700000000       -1.86369900000000
O           31.16956600000000       -7.42292300000000       -3.13157300000000
C           30.72222500000000       -7.70917400000000       -0.75013200000000
O           30.70659700000000       -9.09525300000000       -0.91234900000000
C           30.50845000000000       -7.13289300000000        0.51543500000000
O           30.27560400000000       -7.94637200000000        1.62300900000000
C           30.53092600000000       -5.73917500000000        0.66095100000000
C           29.50692099999999       -2.73106200000000       -0.16740400000000
C           28.20764700000000       -3.41117000000000       -0.11271500000000
C           27.27332200000000       -2.48831400000000       -0.02218400000000
N           29.37229700000000       -1.44018600000000       -0.12137800000000
C           27.96642600000000       -1.20544700000000       -0.02834500000000
C           27.37121700000000       -0.00019000000000        0.00005200000000
C           28.12417700000000        1.27760500000000       -0.03549500000000
C           27.55888700000000        2.46664300000000       -0.20695600000000
C           28.60638300000000        3.46268800000000       -0.12372000000000
C           29.74807300000000        2.82005500000000        0.09088000000000
N           29.53432200000000        1.40669000000000        0.15739900000000
C           31.05718299999999        3.49587100000000        0.28721500000000
C           31.07599900000000        4.96723100000000        0.43634200000000
C           30.92936900000000        5.54533900000000        1.70344200000000
C           30.95065300000000        6.93579200000000        1.85315100000000
O           30.80892500000000        7.47988300000000        3.12978000000000
C           31.11398000000000        7.76089900000000        0.72542100000000
O           31.13081100000000        9.14745600000000        0.88257700000000
C           31.25588399999999        7.18183300000000       -0.54897100000000
O           31.41332400000000        7.99369000000000       -1.67139300000000
C           31.23771200000000        5.78728300000000       -0.68791800000000
C           32.21985700000000        2.82114300000000        0.33312800000000
C           33.54378700000000        3.41193900000000        0.52001200000000
C           34.40279800000000        2.41386800000000        0.45822100000000
C           33.63668700000000        1.18831100000000        0.23789700000000
N           32.36195400000000        1.41306500000000        0.16244100000000
H           35.34919000000000       -0.16883700000000        0.11380500000000
H           35.31249200000000       -2.77313700000000       -0.22165300000000
H           33.48790500000000       -4.55335100000000       -0.43532600000000
H           31.16067500000000       -4.86036500000000       -2.56873200000000
H           31.16459200000000       -8.42184000000000       -3.29884900000000
H           30.55622300000000       -9.72757800000000       -0.13601100000000
H           30.11929100000000       -7.55604800000000        2.54511400000000
H           30.36820000000000       -5.29625000000000        1.63609800000000
H           28.02408100000000       -4.47707300000000       -0.14381700000000
H           26.20953300000000       -2.67878300000000        0.03132700000000
H           26.50923500000000        2.67098600000000       -0.36679800000000
H           28.47149000000000        4.53365900000000       -0.20580200000000
H           30.80219400000000        4.91472900000000        2.57503100000000
H           30.82724100000000        8.47872500000000        3.29442200000000
H           31.24470400000000        9.77849800000000        0.09862400000000
H           31.51316300000000        7.60225400000000       -2.60117000000000
H           31.34805100000000        5.34221700000000       -1.66973600000000
H           33.79567900000000        4.45340800000000        0.67354000000000
H           35.47779600000000        2.50158200000000        0.55221400000000
C           23.31661200000000        0.00112200000000        0.00848500000000
C           22.10767299999999       -0.01233300000000        0.00003700000000
C           20.68614400000000       -0.00351400000000       -0.01194600000000
C           19.47447500000000        0.00392500000000       -0.00108300000000
C           24.73321700000000       -0.00555300000000        0.00901800000000
C           25.95391300000000        0.00392500000000       -0.00108300000000
130
 energy: -251.781562599620 gnorm: 0.247601363626 xtb: 6.5.1 (b24c23e)
Zn          14.49645399433876       -0.02346728175138        0.00366956724752
C           11.15713936818431        0.10038930525893        0.10784330385162
C           11.82918854741487        1.27877818571150        0.08558679831081
C           11.17808254614511        2.57661836321420        0.08529180854932
C           12.13450918157286        3.50936631427744        0.07689450482320
C           13.42685718821787        2.82863612858394        0.07308558146370
N           13.21994113340096        1.44157449284155        0.07832176293776
C           14.63971779934458        3.45692230768317        0.10307041775999
C           14.66572764901293        4.94510357003137        0.11094769466665
C           14.44894469612018        5.66439644919024       -1.06944323412140
C           14.47103654119261        7.06418823474775       -1.06369421796743
O           14.25723789510927        7.72082585218200       -2.25914728218812
C           14.70568099595606        7.75486892338466        0.14182277677738
O           14.71684707584395        9.13919802894555        0.11522126153603
C           14.91872832777869        7.02843625955107        1.32779945168282
O           15.14738182393601        7.72146019576063        2.50362613833019
C           14.89737794377480        5.63213597327050        1.30549338613145
C           15.91097032969290        2.75802128039851        0.14372784328501
C           17.20129650874980        3.42156949457750        0.27431917867970
C           18.14596568025484        2.47084581011160        0.25850359967944
N           16.06788490754847        1.45164201838846        0.05029057189913
C           17.45470378369692        1.20595428362105        0.10904802456346
C           18.04951466812589       -0.01717278774473       -0.00738675887155
C           17.29303031070194       -1.26058495688312       -0.17339547059018
C           17.87289570418578       -2.45853164250918       -0.48708300382462
C           16.84786947091787       -3.43336081992121       -0.51645980216879
C           15.67083053295273       -2.80039963189836       -0.22097164436348
N           15.90281613956287       -1.42383308330379       -0.01207125957932
C           14.38903810818652       -3.49416180174315       -0.10822066364973
C           14.36445500415808       -4.98821917960227       -0.13008313872658
C           14.49775651314463       -5.71489081573488        1.05846781171931
C           14.47293856590533       -7.11563694157461        1.04678736668369
O           14.61439903121842       -7.77695884878772        2.25038294128901
C           14.31011847313803       -7.80299419100930       -0.17249022403132
O           14.29523310908260       -9.18742778306272       -0.15067669525316
C           14.16889385365834       -7.07157306684860       -1.36613385265752
O           14.01229673459975       -7.76204195796303       -2.55573036311037
C           14.19066598104795       -5.67397276629772       -1.33729529878758
C           13.20555118638782       -2.83950604909670        0.01262581398066
C           11.88958833958025       -3.44614043249109        0.12833128310680
C           11.00701028990688       -2.43766051874492        0.18178219719880
C           11.76159434370557       -1.20040063240917        0.10177477840702
N           13.05399384476899       -1.43705878512555        0.00551670495167
H           10.07490316534042        0.14156792101850        0.13292553753943
H           10.11335927828488        2.76448632538170        0.09403442786795
H           11.95818328075133        4.57538656616735        0.08269286053319
H           14.26631907398199        5.13064376270493       -1.99697250705679
H           14.26789070811261        8.70709577611037       -2.28324784157857
H           14.86716607003546        9.63233219487387        0.95584271593902
H           15.29716828335596        7.21473776201456        3.33695057153046
H           15.05726131655328        5.07873644913691        2.22403040296914
H           17.38521506479345        4.47852563235718        0.36473934702988
H           19.21132038034774        2.64012070467335        0.33345244702699
H           18.92072101130007       -2.62721310217272       -0.67067429734374
H           16.96763916150199       -4.48475343298274       -0.72179057634862
H           14.62328310151524       -5.18579031683698        1.99761670511764
H           14.59417949135172       -8.76318664572852        2.27176561588412
H           14.18292895342772       -9.67888783842927       -0.99845067153376
H           13.91843007965716       -7.25478586864508       -3.39700523386068
H           14.07815118151073       -5.11999949015495       -2.26236401715714
H           11.64892100948923       -4.49963477077414        0.16315148292223
H            9.93727837046110       -2.53551396360254        0.26580626235537
Zn          30.92886701285021        0.02251227700352        0.00629556834492
C           34.26824309100740       -0.11234019961055        0.09574815396266
C           33.59618923945922       -1.28061122573171       -0.05992986456753
C           34.24728761696610       -2.57005347656752       -0.20732725780722
C           33.29084588558162       -3.49583271847260       -0.32139212006124
C           31.99849098254257       -2.81903834269009       -0.24801878014703
N           32.20543275344940       -1.44152084000245       -0.08559958375514
C           30.78556595157094       -3.44660239669725       -0.28943943261952
C           30.75961930397559       -4.92613351274966       -0.45029292037673
C           30.97643383538218       -5.50702999891869       -1.70459856551484
C           30.95434813924883       -6.89846022575944       -1.85754959442950
O           31.16814782273761       -7.41537197192343       -3.11972592606781
C           30.71970342937632       -7.72133441731721       -0.73809153166369
O           30.70853862557658       -9.09372837404573       -0.92142914454216
C           30.50665835569135       -7.13400282976550        0.52257802849955
O           30.27800528033592       -7.95583973079564        1.61227388021778
C           30.52800116206689       -5.74416574744503        0.65867800868921
C           29.51423321975984       -2.75675030062601       -0.16984202121758
C           28.22402822231133       -3.43094887557245       -0.11531285827847
C           27.27919823736629       -2.48464465761144       -0.02325043662969
N           29.35694912766979       -1.44811003252590       -0.11458989357367
C           27.96991456023163       -1.21087155138232       -0.02821135122367
C           27.37437835476605        0.01768230099357       -0.00429099867526
C           28.13227054968941        1.27169462517819       -0.02929513092901
C           27.55254244851095        2.49750006241389       -0.20532825543903
C           28.57755065781121        3.46939429740387       -0.12400394105159
C           29.75457011936686        2.80701361032094        0.09783888982274
N           29.52252109157579        1.41562270616475        0.14934903588310
C           31.03634744488593        3.48353489690923        0.28850462588321
C           31.06093118949060        4.97044240139883        0.43612611766138
C           30.92762776637302        5.55771553505716        1.69938227411692
C           30.95244522225100        6.95075870637856        1.84654569520684
O           30.81098628428733        7.47139729409164        3.11734278150471
C           31.11526544480346        7.77188662495151        0.71303490223194
O           31.13015207644599        9.14492639995605        0.89162703398391
C           31.25648984695222        7.18047303109644       -0.55581996522091
O           31.41308746808471        8.00132767490472       -1.65948866832402
C           31.23471949211025        5.78861036264333       -0.68557883471528
C           32.21983555981546        2.81939835550312        0.33436950831402
C           33.53579381499885        3.40901117534165        0.51808810160700
C           34.41837290516340        2.40097110947763        0.45688723848139
C           33.66378506613550        1.18075597087472        0.23715775190006
N           32.37138332105504        1.42679264606729        0.16834085769860
H           35.35048007532750       -0.15609625303369        0.11600037677002
H           35.31201382324716       -2.75770421604439       -0.21993535380476
H           33.46718335561076       -4.55564117398384       -0.43646017196708
H           31.15906378544050       -4.87159915392070       -2.56565972185968
H           31.15749373226648       -8.39255543164214       -3.25546266464582
H           30.55821889350901       -9.67896880166495       -0.14212130443214
H           30.12821526627987       -7.54684324044007        2.49766517555507
H           30.36812053363474       -5.29845879176133        1.63402605503249
H           28.04020269119844       -4.49136375322924       -0.14525892087957
H           26.21391245290119       -2.66137502901573        0.03205308856492
H           26.50469507179621        2.68591821666070       -0.36857191608890
H           28.45776020076973        4.53728505677058       -0.20883289739175
H           30.80210080258615        4.92557683928567        2.57250802037853
H           30.83120436775076        8.44884575471072        3.25037190840590
H           31.24245584888838        9.72931133052984        0.10502154916410
H           31.50695460715306        7.59269580835311       -2.55283724305587
H           31.34723302994428        5.34306061636257       -1.66747702937499
H           33.77646178080816        4.45177030946788        0.67209242961357
H           35.48810483453755        2.48867094333594        0.55146095808627
C           23.32799027900009        0.00108822257179        0.00852358216578
C           22.09835884552763       -0.01302691929515       -0.00173922484472
C           20.70426595080832       -0.00982255420978       -0.01164934436282
C           19.47780514095099       -0.02130720530541        0.00158784137071
C           24.72024241097896        0.00160534162357        0.00548557572448
C           25.94708813535820        0.02812028361375        0.00491996323982
130
 energy: -251.845362102774 gnorm: 0.080284197589 xtb: 6.5.1 (b24c23e)
Zn          14.51049852117137       -0.01783593224948        0.00859534071379
C           11.16144638346895        0.07944573144659        0.10796942169858
C           11.83519192346011        1.28521295285781        0.08417198871930
C           11.17954164868560        2.57076708659961        0.08541962626613
C           12.14704502866120        3.51189082214695        0.07621811759285
C           13.42193408208418        2.82439827631135        0.07062271857430
N           13.19038244584636        1.47239273787393        0.07634185224448
C           14.66176633375118        3.45221483892279        0.10242661616608
C           14.67105733027798        4.95133010862597        0.11100109517961
C           14.45010169936318        5.67405793875299       -1.06274795505156
C           14.47196708982546        7.07424193472382       -1.05668345196468
O           14.25866523253701        7.70887158638386       -2.24607976436797
C           14.70716572580486        7.76258163746123        0.15030050605720
O           14.71406229990168        9.13660980519185        0.10186120739915
C           14.91990342214397        7.02994193815880        1.33134665109756
O           15.14367545552575        7.73754606845499        2.48890235591273
C           14.90054512236473        5.63719522329666        1.30468060516152
C           15.90353119569438        2.78476320695629        0.14446097497771
C           17.18638731406770        3.43544450736661        0.27137763314508
C           18.13570449865490        2.46646798145646        0.25593644120810
N           16.08870202546257        1.45127795538822        0.05836363260960
C           17.44767750097909        1.21258343308724        0.11278029470728
C           18.04911343849099       -0.04049162593063       -0.01182022124258
C           17.28946799761814       -1.25504966246247       -0.16778179263901
C           17.87683268924729       -2.49460418056134       -0.48612328954589
C           16.88301284366535       -3.43680055603726       -0.51276767788154
C           15.66658405293822       -2.78926190065728       -0.21288083006121
N           15.92696992839847       -1.44013602863274       -0.02387473220368
C           14.41911089237119       -3.47574210540969       -0.10709371117367
C           14.38238146638401       -4.98600785892117       -0.13231155816646
C           14.50214796891651       -5.72094911116938        1.05057003445982
C           14.47199547858126       -7.12266370117186        1.03927333211556
O           14.61160869652681       -7.76273709563463        2.23694716200610
C           14.30926707816775       -7.80815410597953       -0.18100202463341
O           14.29640023616376       -9.18255845139028       -0.13722501138245
C           14.16891746615567       -7.06868656526073       -1.36860187968294
O           14.01224715411691       -7.77460964495031       -2.53892491084548
C           14.19609727437686       -5.67386067761805       -1.33581600103314
C           13.20369330716360       -2.83174597770517        0.01522354925609
C           11.89947772236057       -3.43862418992914        0.12665616231673
C           10.99743085711248       -2.42729562815671        0.17994777630831
C           11.73433118445061       -1.19199960954684        0.10227147703585
N           13.05054978296486       -1.45512602570367        0.01129042892588
H           10.07799916815233        0.13336355324774        0.13501607188356
H           10.11450053722483        2.74824785306516        0.09417530522979
H           11.98091890783924        4.57779780373738        0.08160399345010
H           14.26838853314492        5.14198879747153       -1.99177670859131
H           14.27701131271641        8.67510715482034       -2.23126399610568
H           14.86625371956604        9.57699099996023        0.94919662668619
H           15.28742857689457        7.20855907993310        3.28424245446208
H           15.05892039861598        5.08287540505714        2.22368000037792
H           17.37025434036633        4.49029463371933        0.36395598875911
H           19.20294042743864        2.62091795410462        0.33184037150786
H           18.92643826203202       -2.64005107509100       -0.67260140279222
H           16.97934240533385       -4.48812983151174       -0.72348540128069
H           14.62514288924158       -5.19623922739515        1.99292819672553
H           14.58820028043235       -8.72926522538570        2.21888027446159
H           14.18464708751487       -9.62212139040148       -0.99134614292322
H           13.92503142281096       -7.24742336580107       -3.34327952565224
H           14.08053010886142       -5.12189788786504       -2.26232410832812
H           11.67093887157194       -4.49439800929033        0.16172858202314
H            9.92969583371910       -2.52546747789519        0.26547549987512
Zn          30.91489481644809        0.01639793554297        0.01055310313038
C           34.26393210348026       -0.09154751670952        0.09824333188014
C           33.59017135949995       -1.28684228121483       -0.06206705820151
C           34.24580597502081       -2.56425927551231       -0.20653968224528
C           33.27829111623810       -3.49826918040652       -0.32234852953890
C           32.00339178925764       -2.81455903265250       -0.24998738577148
N           32.23497723041392       -1.47192287134812       -0.09106755398671
C           30.76349188477693       -3.44182317417098       -0.28955408485640
C           30.75423696323895       -4.93230066760225       -0.45095141931411
C           30.97525552886343       -5.51737291630493       -1.69903913759861
C           30.95341918939818       -6.90922949046989       -1.85172001966511
O           31.16672237642853       -7.40496431542511       -3.10538534611927
C           30.71822035408815       -7.72994909603392       -0.73054237348671
O           30.71132293538611       -9.08963457630809       -0.93441058447409
C           30.50548598679934       -7.13588741449413        0.52592936880751
O           30.28171749309319       -7.97014327760343        1.59581954046583
C           30.52481976850466       -5.74908604418038        0.65729119492477
C           29.52168037773309       -2.78334432712095       -0.17213510978572
C           28.23889954297917       -3.44429540837643       -0.11979337764880
C           27.28946309216690       -2.47986020644029       -0.02524540850381
N           29.33634139782400       -1.44864981436517       -0.10652798216022
C           27.97722819837956       -1.21776145429687       -0.02544207325512
C           27.37583874398209        0.04133290655187       -0.00612656048445
C           28.13627308836277        1.26559166891729       -0.02429530615440
C           27.54871742922123        2.53319535045818       -0.20016110731483
C           28.54243230043945        3.47243845039951       -0.11998204251218
C           29.75888130867128        2.79512742473694        0.10460248289972
N           29.49861905604567        1.43326987835401        0.13964783211436
C           31.00631192815570        3.46514785572117        0.28751810636318
C           31.04301905364714        4.96851981494022        0.43365902387332
C           30.92323978466054        5.56463727006493        1.69222171639905
C           30.95338899753300        6.95859687580187        1.83987612904352
O           30.81377618536363        7.45879293882139        3.10238229527813
C           31.11611748110235        7.77798178730048        0.70516153894684
O           31.12898443604545        9.13856800803705        0.90443937901310
C           31.25646705589657        7.17789263452263       -0.55860182224926
O           31.41313631963750        8.01191552230497       -1.64137146200258
C           31.22929170399093        5.78834279554352       -0.68412620041058
C           32.22172137377387        2.81141706897031        0.33607021492001
C           33.52592583483553        3.40174349883011        0.51557509524545
C           34.42796981342301        2.39088596875505        0.45389061218925
C           33.69106590682974        1.17236415757271        0.23669745750516
N           32.37485871177569        1.44412191112016        0.17611950839207
H           35.34738014125836       -0.14818861561100        0.11900388408270
H           35.31085223832167       -2.74158932827246       -0.21795912396588
H           33.44444276963261       -4.55791455864114       -0.43781706675656
H           31.15698536702336       -4.88345385740657       -2.56178632837025
H           31.14837417860398       -8.36665466514156       -3.20018503000743
H           30.55913146429608       -9.62322480168710       -0.14245456917675
H           30.13795610195931       -7.53472491391563        2.44599616651152
H           30.36645383093302       -5.30252678661251        1.63320922553696
H           28.05509252317263       -4.50287267899788       -0.14738653948480
H           26.22225253982553       -2.64203843976531        0.03262442608395
H           26.49906126399835        2.69875874523171       -0.36900841234652
H           28.44602896300822        4.54086038689393       -0.21017815900267
H           30.80024284005306        4.93649163686183        2.56903004539094
H           30.83718407299209        8.42113978570678        3.19398207751898
H           31.24073772785135        9.67210642043480        0.10564383494754
H           31.50035259150779        7.57929170811492       -2.50029476977731