      -----------------------------------------------------------      
     |                   =====================                   |     
     |                           x T B                           |     
     |                   =====================                   |     
     |                         S. Grimme                         |     
     |          Mulliken Center for Theoretical Chemistry        |     
     |                    University of Bonn                     |     
      -----------------------------------------------------------      

   * xtb version 6.5.1 (b24c23e) compiled by 'conda@728c89f4b128' on 2022-07-12

   xtb is free software: you can redistribute it and/or modify it under
   the terms of the GNU Lesser General Public License as published by
   the Free Software Foundation, either version 3 of the License, or
   (at your option) any later version.
   
   xtb is distributed in the hope that it will be useful,
   but WITHOUT ANY WARRANTY; without even the implied warranty of
   MERCHANTABILITY or FITNESS FOR A PARTICULAR PURPOSE.  See the
   GNU Lesser General Public License for more details.
   
   Cite this work as:
   * C. Bannwarth, E. Caldeweyher, S. Ehlert, A. Hansen, P. Pracht,
     J. Seibert, S. Spicher, S. Grimme, WIREs Comput. Mol. Sci., 2020, 11,
     e01493. DOI: 10.1002/wcms.1493
   
   for GFN2-xTB:
   * C. Bannwarth, S. Ehlert and S. Grimme., J. Chem. Theory Comput., 2019,
     15, 1652-1671. DOI: 10.1021/acs.jctc.8b01176
   for GFN1-xTB:
   * S. Grimme, C. Bannwarth, P. Shushkov, J. Chem. Theory Comput., 2017,
     13, 1989-2009. DOI: 10.1021/acs.jctc.7b00118
   for GFN0-xTB:
   * P. Pracht, E. Caldeweyher, S. Ehlert, S. Grimme, ChemRxiv, 2019, preprint.
     DOI: 10.26434/chemrxiv.8326202.v1
   for GFN-FF:
   * S. Spicher and S. Grimme, Angew. Chem. Int. Ed., 2020, 59, 15665-15673.
     DOI: 10.1002/anie.202004239
   
   for ALPB and GBSA implicit solvation:
   * S. Ehlert, M. Stahn, S. Spicher, S. Grimme, J. Chem. Theory Comput.,
     2021, 17, 4250-4261. DOI: 10.1021/acs.jctc.1c00471
   
   for DFT-D4:
   * E. Caldeweyher, C. Bannwarth and S. Grimme, J. Chem. Phys., 2017,
     147, 034112. DOI: 10.1063/1.4993215
   * E. Caldeweyher, S. Ehlert, A. Hansen, H. Neugebauer, S. Spicher,
     C. Bannwarth and S. Grimme, J. Chem. Phys., 2019, 150, 154122.
     DOI: 10.1063/1.5090222
   * E. Caldeweyher, J.-M. Mewes, S. Ehlert and S. Grimme, Phys. Chem. Chem. Phys.
     2020, 22, 8499-8512. DOI: 10.1039/D0CP00502A
   
   for sTDA-xTB:
   * S. Grimme and C. Bannwarth, J. Chem. Phys., 2016, 145, 054103.
     DOI: 10.1063/1.4959605
   
   in the mass-spec context:
   * V. Asgeirsson, C. Bauer and S. Grimme, Chem. Sci., 2017, 8, 4879.
     DOI: 10.1039/c7sc00601b
   * J. Koopman and S. Grimme, ACS Omega 2019, 4, 12, 15120-15133.
     DOI: 10.1021/acsomega.9b02011
   
   for metadynamics refer to:
   * S. Grimme, J. Chem. Theory Comput., 2019, 155, 2847-2862
     DOI: 10.1021/acs.jctc.9b00143
   
   for SPH calculations refer to:
   * S. Spicher and S. Grimme, J. Chem. Theory Comput., 2021, 17, 1701-1714
     DOI: 10.1021/acs.jctc.0c01306
   
   with help from (in alphabetical order)
   P. Atkinson, C. Bannwarth, F. Bohle, G. Brandenburg, E. Caldeweyher
   M. Checinski, S. Dohm, S. Ehlert, S. Ehrlich, I. Gerasimov, C. Hölzer
   A. Katbashev, J. Koopman, C. Lavigne, S. Lehtola, F. März, M. Müller,
   F. Musil, H. Neugebauer, J. Pisarek, C. Plett, P. Pracht, F. Pultar,
   J. Seibert, P. Shushkov, S. Spicher, M. Stahn, M. Steiner, T. Strunk,
   J. Stückrath, T. Rose, and J. Unsleber
   
 * started run on 2022/07/30 at 04:22:09.759     

           -------------------------------------------------
          |                Calculation Setup                |
           -------------------------------------------------

          program call               : xtb Ni_PhCHO_C4_4.xyz --gfn 1 --opt -T 48
          hostname                   : cx3-15-15.cx3.hpc.ic.ac.uk
          coordinate file            : Ni_PhCHO_C4_4.xyz
          omp threads                :                     1

   ID    Z sym.   atoms
    1   28 Ni     1, 61, 133, 192
    2    6 C      2-6, 8-13, 15-19, 21-26, 28-33, 35-40, 62-66, 68-73, 75-79,
                  81-86, 88-93, 95-100, 121-132, 134-138, 140-145, 147-151,
                  153-158, 160-165, 167-172, 193-197, 199-204, 206-210,
                  212-217, 219-224, 226-231
    3    7 N      7, 20, 27, 41, 67, 80, 87, 101, 139, 152, 159, 173, 198,
                  211, 218, 232
    4    8 O      14, 34, 74, 94, 146, 166, 205, 225
    5    1 H      42-60, 102-120, 174-191, 233-250
########################################################################
[WARNING] Please study the warnings concerning your input carefully
-1- prog_main_parseArguments: Unknown option '-T' provided
########################################################################

           -------------------------------------------------
          |                 G F N 1 - x T B                 |
           -------------------------------------------------

        Reference                      10.1021/acs.jctc.7b00118
      * Hamiltonian:
        H0-scaling (s, p, d)           1.850000    2.250000    2.000000
        zeta-weighting                 0.000000
      * Dispersion:
        s8                             2.400000
        a1                             0.630000
        a2                             5.000000
        s9                             0.000000
      * Repulsion:
        kExp                           1.500000
        rExp                           1.000000
      * Coulomb:
        alpha                          2.000000
        third order                    atomic
        anisotropic                    false
      * Halogen bond correction:
        rad-scale                      1.300000
        damping                        0.440000


          ...................................................
          :                      SETUP                      :
          :.................................................:
          :  # basis functions                 876          :
          :  # atomic orbitals                 872          :
          :  # shells                          504          :
          :  # electrons                       834          :
          :  # halogen bonds                     0          :
          :  max. iterations                   250          :
          :  Hamiltonian                  GFN1-xTB          :
          :  restarted?                      false          :
          :  GBSA solvation                  false          :
          :  PC potential                    false          :
          :  electronic temp.          300.0000000     K    :
          :  accuracy                    1.0000000          :
          :  -> integral cutoff          0.2500000E+02      :
          :  -> integral neglect         0.1000000E-07      :
          :  -> SCF convergence          0.1000000E-05 Eh   :
          :  -> wf. convergence          0.2000000E-04 e    :
          :  Broyden damping             0.4000000          :
          ...................................................

 iter      E             dE          RMSdq      gap      omega  full diag
   1   -461.3922413 -0.461392E+03  0.108E+01    0.01       0.0  T
   2   -330.5857352  0.130807E+03  0.127E+01    0.04       1.0  T
   3   -440.7768792 -0.110191E+03  0.731E+00    0.06       1.0  T
   4    925.8537623  0.136663E+04  0.144E+01    0.00       1.0  T
   5   1871.1759092  0.945322E+03  0.174E+01    0.07       1.0  T
   6    551.6807524 -0.131950E+04  0.139E+01    0.02       1.0  T
   7   -294.1270656 -0.845808E+03  0.809E+00    0.04       1.0  T
   8   -438.0146449 -0.143888E+03  0.510E+00    0.11       1.0  T
   9   -456.8226268 -0.188080E+02  0.385E+00    0.16       1.0  T
  10   -457.0908949 -0.268268E+00  0.357E+00    0.02       1.0  T
  11   -460.0861097 -0.299521E+01  0.333E+00    0.03       1.0  T
  12   -460.7191196 -0.633010E+00  0.326E+00    0.03       1.0  T
  13   -460.8200107 -0.100891E+00  0.315E+00    0.03       1.0  T
  14   -461.0514634 -0.231453E+00  0.307E+00    0.05       1.0  T
  15   -461.1484707 -0.970073E-01  0.297E+00    0.04       1.0  T
  16   -461.3321415 -0.183671E+00  0.286E+00    0.03       1.0  T
  17   -461.6910625 -0.358921E+00  0.278E+00    0.02       1.0  T
  18   -461.7373752 -0.463127E-01  0.267E+00    0.07       1.0  T
  19   -460.6555214  0.108185E+01  0.290E+00    0.03       1.0  T
  20   -461.1674616 -0.511940E+00  0.265E+00    0.01       1.0  T
  21   -460.0752317  0.109223E+01  0.272E+00    0.06       1.0  T
  22   -460.7266965 -0.651465E+00  0.258E+00    0.01       1.0  T
  23   -460.7768335 -0.501370E-01  0.260E+00    0.03       1.0  T
  24   -459.6492834  0.112755E+01  0.261E+00    0.08       1.0  T
  25   -459.6196339  0.296495E-01  0.262E+00    0.08       1.0  T
  26   -460.2505361 -0.630902E+00  0.238E+00    0.02       1.0  T
  27   -460.4534594 -0.202923E+00  0.235E+00    0.02       1.0  T
  28   -458.3676232  0.208584E+01  0.231E+00    0.03       1.0  T
  29   -458.2652160  0.102407E+00  0.234E+00    0.03       1.0  T
  30   -461.0397830 -0.277457E+01  0.188E+00    0.05       1.0  T
  31   -457.4201507  0.361963E+01  0.218E+00    0.01       1.0  T
  32   -459.2001307 -0.177998E+01  0.193E+00    0.00       1.0  T
  33   -462.3385110 -0.313838E+01  0.122E+00    0.04       1.0  T
  34   -462.2045405  0.133971E+00  0.135E+00    0.04       1.0  T
  35   -462.2338571 -0.293167E-01  0.137E+00    0.11       1.0  T
  36   -462.2351109 -0.125378E-02  0.137E+00    0.11       1.0  T
  37   -462.2638951 -0.287842E-01  0.135E+00    0.20       1.0  T
  38   -462.4052242 -0.141329E+00  0.125E+00    0.13       1.0  T
  39   -461.6106382  0.794586E+00  0.157E+00    0.02       1.0  T
  40   -461.7323051 -0.121667E+00  0.151E+00    0.04       1.0  T
  41   -461.4896632  0.242642E+00  0.159E+00    0.04       1.0  T
  42   -462.2638764 -0.774213E+00  0.127E+00    0.05       1.0  T
  43   -463.2686782 -0.100480E+01  0.745E-01    0.04       1.0  T
  44   -463.4065121 -0.137834E+00  0.650E-01    0.07       1.0  T
  45   -463.5079627 -0.101451E+00  0.546E-01    0.18       1.0  T
  46   -463.5291174 -0.211547E-01  0.516E-01    0.19       1.0  T
  47   -463.6035212 -0.744038E-01  0.452E-01    0.16       1.0  T
  48   -463.6791408 -0.756196E-01  0.368E-01    0.11       1.0  T
  49   -463.6829949 -0.385416E-02  0.343E-01    0.11       1.0  T
  50   -463.7242271 -0.412322E-01  0.294E-01    0.09       1.0  T
  51   -463.7261186 -0.189144E-02  0.277E-01    0.10       1.0  T
  52   -463.7327286 -0.661008E-02  0.263E-01    0.10       1.0  T
  53   -463.7356617 -0.293306E-02  0.259E-01    0.10       1.0  T
  54   -463.7391261 -0.346436E-02  0.255E-01    0.10       1.0  T
  55   -463.7387836  0.342485E-03  0.256E-01    0.11       1.0  T
  56   -463.7392310 -0.447398E-03  0.249E-01    0.11       1.0  T
  57   -463.7461216 -0.689062E-02  0.220E-01    0.11       1.0  T
  58   -463.7539653 -0.784375E-02  0.190E-01    0.11       1.0  T
  59   -463.7547567 -0.791391E-03  0.187E-01    0.11       1.0  T
  60   -463.7576852 -0.292848E-02  0.171E-01    0.11       1.0  T
  61   -463.7601706 -0.248538E-02  0.159E-01    0.11       1.0  T
  62   -463.7641451 -0.397448E-02  0.131E-01    0.11       1.0  T
  63   -463.7655760 -0.143091E-02  0.117E-01    0.11       1.0  T
  64   -463.7679002 -0.232422E-02  0.101E-01    0.11       1.0  T
  65   -463.7702508 -0.235063E-02  0.838E-02    0.11       1.0  T
  66   -463.7711814 -0.930598E-03  0.719E-02    0.11       1.0  T
  67   -463.7718941 -0.712697E-03  0.610E-02    0.11       1.0  T
  68   -463.7724961 -0.601987E-03  0.512E-02    0.11       1.0  T
  69   -463.7728779 -0.381737E-03  0.434E-02    0.11       1.0  T
  70   -463.7728122  0.656626E-04  0.413E-02    0.11       1.0  T
  71   -463.7732909 -0.478687E-03  0.325E-02    0.11       1.0  T
  72   -463.7734591 -0.168175E-03  0.283E-02    0.11       1.0  T
  73   -463.7735830 -0.123979E-03  0.244E-02    0.11       1.0  T
  74   -463.7736803 -0.972744E-04  0.208E-02    0.11       1.0  T
  75   -463.7737233 -0.429477E-04  0.187E-02    0.11       1.0  T
  76   -463.7737560 -0.327075E-04  0.167E-02    0.11       1.0  T
  77   -463.7737711 -0.151454E-04  0.158E-02    0.11       1.0  T
  78   -463.7738044 -0.332992E-04  0.138E-02    0.11       1.0  T
  79   -463.7738257 -0.213168E-04  0.122E-02    0.11       1.0  T
  80   -463.7738475 -0.217226E-04  0.106E-02    0.11       1.0  T
  81   -463.7738704 -0.229102E-04  0.874E-03    0.11       1.0  T
  82   -463.7738872 -0.168117E-04  0.711E-03    0.11       1.0  T
  83   -463.7738933 -0.614877E-05  0.632E-03    0.11       1.0  T
  84   -463.7738972 -0.391367E-05  0.571E-03    0.11       1.1  T
  85   -463.7739010 -0.376426E-05  0.502E-03    0.11       1.3  T
  86   -463.7739032 -0.220286E-05  0.450E-03    0.11       1.4  T
  87   -463.7739048 -0.157389E-05  0.407E-03    0.11       1.6  T
  88   -463.7739068 -0.202056E-05  0.350E-03    0.11       1.8  T
  89   -463.7739090 -0.217491E-05  0.275E-03    0.11       2.3  T
  90   -463.7739105 -0.157672E-05  0.215E-03    0.11       2.9  T
  91   -463.7739112 -0.646518E-06  0.179E-03    0.11       3.5  T
  92   -463.7739115 -0.316735E-06  0.160E-03    0.11       3.9  T
  93   -463.7739119 -0.377182E-06  0.137E-03    0.11       4.6  T
  94   -463.7739122 -0.283721E-06  0.115E-03    0.11       5.5  T
  95   -463.7739124 -0.237881E-06  0.920E-04    0.11       6.9  T
  96   -463.7739126 -0.177094E-06  0.691E-04    0.11       9.2  T
  97   -463.7739127 -0.950860E-07  0.523E-04    0.11      12.1  T
  98   -463.7739127 -0.467201E-07  0.414E-04    0.11      15.3  T
  99   -463.7739128 -0.309976E-07  0.323E-04    0.11      19.6  T
 100   -463.7739128 -0.230453E-07  0.235E-04    0.11      26.9  T
 101   -463.7739128 -0.102626E-07  0.190E-04    0.11      33.3  T
 102   -463.7739128 -0.735895E-08  0.141E-04    0.11      44.9  T

   *** convergence criteria satisfied after 102 iterations ***

         #    Occupation            Energy/Eh            Energy/eV
      -------------------------------------------------------------
         1        2.0000           -0.8058836             -21.9292
       ...           ...                  ...                  ...
       411        2.0000           -0.4011942             -10.9170
       412        2.0000           -0.3989899             -10.8571
       413        2.0000           -0.3968644             -10.7992
       414        2.0000           -0.3963355             -10.7848
       415        2.0000           -0.3931580             -10.6984
       416        1.9237           -0.3763833             -10.2419
       417        1.8203           -0.3755165             -10.2183 (HOMO)
       418        0.2560           -0.3714941             -10.1089 (LUMO)
       419        0.0000           -0.3606708              -9.8144
       420        0.0000           -0.3589948              -9.7687
       421                         -0.3540891              -9.6353
       422                         -0.3532352              -9.6120
       ...                                ...                  ...
       872                          6.7319300             183.1851
      -------------------------------------------------------------
                  HL-Gap            0.0040225 Eh            0.1095 eV
             Fermi-level           -0.3733169 Eh          -10.1585 eV

 SCC (total)                   0 d,  0 h,  0 min, 28.474 sec
 SCC setup                      ...        0 min,  0.019 sec (  0.065%)
 Dispersion                     ...        0 min,  0.012 sec (  0.042%)
 classical contributions        ...        0 min,  0.004 sec (  0.013%)
 integral evaluation            ...        0 min,  0.313 sec (  1.099%)
 iterations                     ...        0 min, 27.366 sec ( 96.111%)
 molecular gradient             ...        0 min,  0.709 sec (  2.488%)
 printout                       ...        0 min,  0.052 sec (  0.182%)

         :::::::::::::::::::::::::::::::::::::::::::::::::::::
         ::                     SUMMARY                     ::
         :::::::::::::::::::::::::::::::::::::::::::::::::::::
         :: total energy            -454.953830248281 Eh    ::
         :: gradient norm              5.165308127943 Eh/a0 ::
         :: HOMO-LUMO gap              0.109456666159 eV    ::
         ::.................................................::
         :: SCC energy              -463.773912801372 Eh    ::
         :: -> electrostatic           0.634368143840 Eh    ::
         :: repulsion energy           9.045867723485 Eh    ::
         :: dispersion energy         -0.225785170394 Eh    ::
         :: halogen bond corr.         0.000000000000 Eh    ::
         :: add. restraining           0.000000000000 Eh    ::
         :: total charge              -0.000000000000 e     ::
         :::::::::::::::::::::::::::::::::::::::::::::::::::::

      ----------------------------------------------------------- 
     |                   =====================                   |
     |                        A N C O P T                        |
     |                   =====================                   |
     |               Approximate Normal Coordinate               |
     |                Rational Function Optimizer                |
      ----------------------------------------------------------- 

          ...................................................
          :                      SETUP                      :
          :.................................................:
          :   optimization level            normal          :
          :   max. optcycles                   750          :
          :   ANC micro-cycles                  20          :
          :   degrees of freedom               744          :
          :.................................................:
          :   RF solver                   davidson          :
          :   write xtbopt.log                true          :
          :   linear?                        false          :
          :   energy convergence         0.5000000E-05 Eh   :
          :   grad. convergence          0.1000000E-02 Eh/α :
          :   maximium RF displ.         1.0000000          :
          :   Hlow (freq-cutoff)         0.1000000E-01      :
          :   Hmax (freq-cutoff)         5.0000000          :
          :   S6 in model hess.         20.0000000          :
          ...................................................

generating ANC from model Hessian ...
Using Lindh-Hessian (1995)
 Shifting diagonal of input Hessian by    1.0056193300201426E-002
 Lowest  eigenvalues of input Hessian
    0.010000    0.010025    0.010034    0.010039    0.010046    0.010050
    0.010050    0.010052    0.010053    0.010054    0.000000    0.000000
    0.000000    0.000000    0.000000    0.000000    0.010064    0.010084
 Highest eigenvalues
    3.329664    3.330214    4.110583    4.111696    4.353420    4.354199


........................................................................
.............................. CYCLE    1 ..............................
........................................................................
   1   -463.7739128 -0.463774E+03  0.676E-05    0.11       0.0  T
   2   -463.7739128  0.479264E-08  0.952E-05    0.11      66.5  T
   3   -463.7739127  0.101059E-06  0.331E-04    0.11      19.1  T
   4   -463.7739128 -0.745362E-07  0.174E-04    0.11      36.3  T
     SCC iter.                  ...        0 min,  1.051 sec
     gradient                   ...        0 min,  0.720 sec
 * total energy  :  -454.9538302 Eh     change        0.2399423E-07 Eh
   gradient norm :     5.1653206 Eh/α   predicted     0.0000000E+00 (-100.00%)
   displ. norm   :     0.6943523 α      lambda       -0.3545425E+01
   maximum displ.:     0.4005648 α      in ANC's #744, #743, #742, ...

........................................................................
.............................. CYCLE    2 ..............................
........................................................................
   1   -463.9020173 -0.463902E+03  0.399E-01    0.59       0.0  T
   2   -463.8725071  0.295102E-01  0.407E-01    0.39       1.0  T
   3   -463.9513842 -0.788771E-01  0.134E-01    0.50       1.0  T
   4   -463.9582946 -0.691036E-02  0.520E-02    0.48       1.0  T
   5   -463.9590916 -0.797033E-03  0.258E-02    0.48       1.0  T
   6   -463.9592131 -0.121433E-03  0.135E-02    0.48       1.0  T
   7   -463.9592316 -0.185845E-04  0.648E-03    0.48       1.0  T
   8   -463.9592642 -0.326019E-04  0.227E-03    0.48       2.8  T
   9   -463.9592685 -0.428918E-05  0.848E-04    0.48       7.5  T
  10   -463.9592691 -0.613833E-06  0.421E-04    0.48      15.0  T
  11   -463.9592693 -0.123757E-06  0.185E-04    0.48      34.3  T
  12   -463.9592693 -0.215239E-07  0.548E-05    0.48     115.4  T
     SCC iter.                  ...        0 min,  3.123 sec
     gradient                   ...        0 min,  0.721 sec
 * total energy  :  -456.7522366 Eh     change       -0.1798406E+01 Eh
   gradient norm :     1.1511182 Eh/α   predicted    -0.2628375E+01 (  46.15%)
   displ. norm   :     0.5347753 α      lambda       -0.4734758E+00
   maximum displ.:     0.1258495 α      in ANC's #580, #565, #585, ...

........................................................................
.............................. CYCLE    3 ..............................
........................................................................
   1   -464.1491251 -0.464149E+03  0.137E-01    0.68       0.0  T
   2   -464.1525073 -0.338213E-02  0.974E-02    0.68       1.0  T
   3   -464.1561759 -0.366859E-02  0.403E-02    0.69       1.0  T
   4   -464.1565650 -0.389181E-03  0.263E-02    0.68       1.0  T
   5   -464.1567007 -0.135677E-03  0.105E-02    0.69       1.0  T
   6   -464.1567369 -0.361655E-04  0.552E-03    0.69       1.1  T
   7   -464.1567553 -0.184675E-04  0.163E-03    0.69       3.9  T
   8   -464.1567569 -0.159710E-05  0.554E-04    0.69      11.4  T
   9   -464.1567571 -0.147877E-06  0.160E-04    0.69      39.7  T
  10   -464.1567571 -0.134585E-07  0.623E-05    0.69     101.5  T
     SCC iter.                  ...        0 min,  2.605 sec
     gradient                   ...        0 min,  0.719 sec
 * total energy  :  -457.1068507 Eh     change       -0.3546141E+00 Eh
   gradient norm :     0.6194525 Eh/α   predicted    -0.3044418E+00 ( -14.15%)
   displ. norm   :     0.6046275 α      lambda       -0.2685273E+00
   maximum displ.:     0.1132619 α      in ANC's #321, #253, #385, ...

........................................................................
.............................. CYCLE    4 ..............................
........................................................................
   1   -464.3097260 -0.464310E+03  0.141E-01    0.82       0.0  T
   2   -464.3134475 -0.372150E-02  0.906E-02    0.82       1.0  T
   3   -464.3168416 -0.339407E-02  0.365E-02    0.83       1.0  T
   4   -464.3172675 -0.425894E-03  0.262E-02    0.83       1.0  T
   5   -464.3175527 -0.285187E-03  0.930E-03    0.83       1.0  T
   6   -464.3175802 -0.274960E-04  0.271E-03    0.83       2.3  T
   7   -464.3175848 -0.462519E-05  0.139E-03    0.83       4.5  T
   8   -464.3175869 -0.209870E-05  0.481E-04    0.83      13.2  T
   9   -464.3175871 -0.194764E-06  0.150E-04    0.83      42.3  T
  10   -464.3175871 -0.148341E-07  0.536E-05    0.83     117.9  T
     SCC iter.                  ...        0 min,  2.615 sec
     gradient                   ...        0 min,  0.714 sec
 * total energy  :  -457.2897368 Eh     change       -0.1828861E+00 Eh
   gradient norm :     0.3185803 Eh/α   predicted    -0.1833471E+00 (   0.25%)
   displ. norm   :     0.6566371 α      lambda       -0.1347900E+00
   maximum displ.:     0.1596345 α      in ANC's #321, #253, #336, ...

........................................................................
.............................. CYCLE    5 ..............................
........................................................................
   1   -464.3511406 -0.464351E+03  0.933E-02    0.88       0.0  T
   2   -464.3517921 -0.651456E-03  0.716E-02    0.88       1.0  T
   3   -464.3539160 -0.212390E-02  0.252E-02    0.88       1.0  T
   4   -464.3539756 -0.596051E-04  0.235E-02    0.88       1.0  T
   5   -464.3542219 -0.246360E-03  0.606E-03    0.88       1.0  T
   6   -464.3542337 -0.117365E-04  0.160E-03    0.88       4.0  T
   7   -464.3542356 -0.196725E-05  0.671E-04    0.88       9.4  T
   8   -464.3542360 -0.346856E-06  0.300E-04    0.88      21.1  T
   9   -464.3542360 -0.499119E-07  0.949E-05    0.88      66.7  T
  10   -464.3542360 -0.572140E-08  0.270E-05    0.88     234.6  T
     SCC iter.                  ...        0 min,  2.606 sec
     gradient                   ...        0 min,  0.720 sec
 * total energy  :  -457.3854981 Eh     change       -0.9576137E-01 Eh
   gradient norm :     0.1641277 Eh/α   predicted    -0.9645503E-01 (   0.72%)
   displ. norm   :     0.7226777 α      lambda       -0.7486475E-01
   maximum displ.:     0.1999502 α      in ANC's #79, #77, #321, ...

........................................................................
.............................. CYCLE    6 ..............................
........................................................................
   1   -464.3817559 -0.464382E+03  0.584E-02    0.89       0.0  T
   2   -464.3816557  0.100208E-03  0.565E-02    0.89       1.0  T
   3   -464.3828684 -0.121273E-02  0.185E-02    0.89       1.0  T
   4   -464.3827162  0.152243E-03  0.185E-02    0.89       1.0  T
   5   -464.3829069 -0.190736E-03  0.397E-03    0.89       1.6  T
   6   -464.3829139 -0.691455E-05  0.905E-04    0.89       7.0  T
   7   -464.3829144 -0.538316E-06  0.381E-04    0.89      16.6  T
   8   -464.3829145 -0.109266E-06  0.181E-04    0.89      34.9  T
   9   -464.3829145 -0.284235E-07  0.491E-05    0.89     128.9  T
     SCC iter.                  ...        0 min,  2.359 sec
     gradient                   ...        0 min,  0.719 sec
 * total energy  :  -457.4395644 Eh     change       -0.5406628E-01 Eh
   gradient norm :     0.1162263 Eh/α   predicted    -0.5698200E-01 (   5.39%)
   displ. norm   :     0.6917903 α      lambda       -0.4027997E-01
   maximum displ.:     0.2218165 α      in ANC's #79, #77, #76, ...

........................................................................
.............................. CYCLE    7 ..............................
........................................................................
   1   -464.4417771 -0.464442E+03  0.338E-02    0.92       0.0  T
   2   -464.4418255 -0.484212E-04  0.270E-02    0.93       1.0  T
   3   -464.4421198 -0.294301E-03  0.906E-03    0.93       1.0  T
   4   -464.4421136  0.615402E-05  0.879E-03    0.93       1.0  T
   5   -464.4421519 -0.382509E-04  0.199E-03    0.93       3.2  T
   6   -464.4421536 -0.171507E-05  0.525E-04    0.93      12.0  T
   7   -464.4421537 -0.145634E-06  0.216E-04    0.93      29.3  T
   8   -464.4421538 -0.295826E-07  0.117E-04    0.93      54.3  T
   9   -464.4421538 -0.135054E-07  0.344E-05    0.93     183.9  T
     SCC iter.                  ...        0 min,  2.354 sec
     gradient                   ...        0 min,  0.719 sec
 * total energy  :  -457.4709449 Eh     change       -0.3138044E-01 Eh
   gradient norm :     0.0714199 Eh/α   predicted    -0.2977848E-01 (  -5.10%)
   displ. norm   :     0.7613715 α      lambda       -0.2937269E-01
   maximum displ.:     0.2983451 α      in ANC's #79, #77, #53, ...

........................................................................
.............................. CYCLE    8 ..............................
........................................................................
   1   -464.4855482 -0.464486E+03  0.262E-02    0.95       0.0  T
   2   -464.4856422 -0.940635E-04  0.169E-02    0.95       1.0  T
   3   -464.4857365 -0.943071E-04  0.815E-03    0.95       1.0  T
   4   -464.4857372 -0.638243E-06  0.599E-03    0.95       1.1  T
   5   -464.4857543 -0.171550E-04  0.179E-03    0.95       3.5  T
   6   -464.4857568 -0.245811E-05  0.412E-04    0.95      15.3  T
   7   -464.4857569 -0.876300E-07  0.156E-04    0.95      40.6  T
   8   -464.4857569 -0.167965E-07  0.867E-05    0.95      72.9  T
     SCC iter.                  ...        0 min,  2.095 sec
     gradient                   ...        0 min,  0.718 sec
 * total energy  :  -457.4928103 Eh     change       -0.2186543E-01 Eh
   gradient norm :     0.0514637 Eh/α   predicted    -0.2319982E-01 (   6.10%)
   displ. norm   :     0.8010630 α      lambda       -0.2093255E-01
   maximum displ.:     0.3055128 α      in ANC's #77, #79, #76, ...

........................................................................
.............................. CYCLE    9 ..............................
........................................................................
   1   -464.5153928 -0.464515E+03  0.200E-02    0.96       0.0  T
   2   -464.5154502 -0.574475E-04  0.129E-02    0.96       1.0  T
   3   -464.5155012 -0.509719E-04  0.574E-03    0.96       1.1  T
   4   -464.5154966  0.459251E-05  0.428E-03    0.96       1.5  T
   5   -464.5155065 -0.993149E-05  0.133E-03    0.96       4.8  T
   6   -464.5155084 -0.181677E-05  0.287E-04    0.96      22.0  T
   7   -464.5155084 -0.467334E-07  0.112E-04    0.96      56.3  T
   8   -464.5155084 -0.898996E-08  0.507E-05    0.96     124.7  T
     SCC iter.                  ...        0 min,  2.093 sec
     gradient                   ...        0 min,  0.721 sec
 * total energy  :  -457.5066421 Eh     change       -0.1383182E-01 Eh
   gradient norm :     0.0453892 Eh/α   predicted    -0.1718254E-01 (  24.22%)
   displ. norm   :     0.7636090 α      lambda       -0.1738774E-01
   maximum displ.:     0.3197148 α      in ANC's #77, #79, #53, ...

........................................................................
.............................. CYCLE   10 ..............................
........................................................................
   1   -464.5573784 -0.464557E+03  0.189E-02    0.99       0.0  T
   2   -464.5574244 -0.460157E-04  0.133E-02    0.99       1.0  T
   3   -464.5574566 -0.321747E-04  0.673E-03    0.99       1.0  T
   4   -464.5574401  0.164869E-04  0.500E-03    0.99       1.3  T
   5   -464.5574610 -0.209549E-04  0.134E-03    0.99       4.7  T
   6   -464.5574625 -0.146581E-05  0.289E-04    0.99      21.9  T
   7   -464.5574625 -0.421454E-07  0.144E-04    0.99      43.8  T
   8   -464.5574626 -0.197743E-07  0.461E-05    0.99     137.2  T
     SCC iter.                  ...        0 min,  2.095 sec
     gradient                   ...        0 min,  0.730 sec
 * total energy  :  -457.5172625 Eh     change       -0.1062040E-01 Eh
   gradient norm :     0.0638919 Eh/α   predicted    -0.1376327E-01 (  29.59%)
   displ. norm   :     0.6537189 α      lambda       -0.1131055E-01
   maximum displ.:     0.2766032 α      in ANC's #53, #77, #79, ...

........................................................................
.............................. CYCLE   11 ..............................
........................................................................
   1   -464.5815312 -0.464582E+03  0.135E-02    1.00       0.0  T
   2   -464.5815440 -0.127780E-04  0.125E-02    1.00       1.0  T
   3   -464.5815907 -0.466988E-04  0.479E-03    1.00       1.3  T
   4   -464.5815823  0.840722E-05  0.436E-03    1.00       1.5  T
   5   -464.5815923 -0.997079E-05  0.903E-04    1.00       7.0  T
   6   -464.5815927 -0.426824E-06  0.265E-04    1.00      23.9  T
   7   -464.5815928 -0.443142E-07  0.910E-05    1.00      69.5  T
   8   -464.5815928 -0.643212E-08  0.352E-05    1.00     179.6  T
     SCC iter.                  ...        0 min,  2.095 sec
     gradient                   ...        0 min,  0.722 sec
 * total energy  :  -457.5250001 Eh     change       -0.7737592E-02 Eh
   gradient norm :     0.0457163 Eh/α   predicted    -0.8072057E-02 (   4.32%)
   displ. norm   :     0.6733186 α      lambda       -0.8110086E-02
   maximum displ.:     0.3274099 α      in ANC's #53, #77, #52, ...

........................................................................
.............................. CYCLE   12 ..............................
........................................................................
   1   -464.5986594 -0.464599E+03  0.122E-02    0.99       0.0  T
   2   -464.5986755 -0.160321E-04  0.104E-02    0.99       1.0  T
   3   -464.5987041 -0.286365E-04  0.384E-03    0.99       1.6  T
   4   -464.5986982  0.585661E-05  0.377E-03    0.99       1.7  T
   5   -464.5987057 -0.745090E-05  0.764E-04    0.99       8.3  T
   6   -464.5987059 -0.232992E-06  0.220E-04    0.99      28.7  T
   7   -464.5987060 -0.338280E-07  0.802E-05    0.99      78.8  T
   8   -464.5987060 -0.552740E-08  0.293E-05    0.99     216.1  T
     SCC iter.                  ...        0 min,  2.095 sec
     gradient                   ...        0 min,  0.720 sec
 * total energy  :  -457.5309479 Eh     change       -0.5947760E-02 Eh
   gradient norm :     0.0347431 Eh/α   predicted    -0.5893439E-02 (  -0.91%)
   displ. norm   :     0.6936013 α      lambda       -0.5683373E-02
   maximum displ.:     0.3486367 α      in ANC's #53, #52, #77, ...

........................................................................
.............................. CYCLE   13 ..............................
........................................................................
   1   -464.6180804 -0.464618E+03  0.918E-03    1.00       0.0  T
   2   -464.6180944 -0.140114E-04  0.550E-03    1.00       1.2  T
   3   -464.6181011 -0.668563E-05  0.219E-03    1.00       2.9  T
   4   -464.6181001  0.105261E-05  0.196E-03    1.00       3.2  T
   5   -464.6181021 -0.201402E-05  0.531E-04    1.00      11.9  T
   6   -464.6181023 -0.174065E-06  0.159E-04    1.00      39.8  T
   7   -464.6181023 -0.183739E-07  0.624E-05    1.00     101.3  T
     SCC iter.                  ...        0 min,  1.839 sec
     gradient                   ...        0 min,  0.725 sec
 * total energy  :  -457.5349998 Eh     change       -0.4051929E-02 Eh
   gradient norm :     0.0227050 Eh/α   predicted    -0.4208777E-02 (   3.87%)
   displ. norm   :     0.7051927 α      lambda       -0.4883084E-02
   maximum displ.:     0.3839855 α      in ANC's #53, #52, #77, ...

........................................................................
.............................. CYCLE   14 ..............................
........................................................................
   1   -464.6345957 -0.464635E+03  0.111E-02    1.00       0.0  T
   2   -464.6346148 -0.190749E-04  0.783E-03    1.00       1.0  T
   3   -464.6346295 -0.147117E-04  0.283E-03    1.00       2.2  T
   4   -464.6346262  0.322382E-05  0.283E-03    1.00       2.2  T
   5   -464.6346308 -0.458583E-05  0.626E-04    1.00      10.1  T
   6   -464.6346310 -0.207356E-06  0.137E-04    1.00      46.1  T
   7   -464.6346310 -0.130945E-07  0.576E-05    1.00     109.8  T
     SCC iter.                  ...        0 min,  1.838 sec
     gradient                   ...        0 min,  0.729 sec
 * total energy  :  -457.5371154 Eh     change       -0.2115666E-02 Eh
   gradient norm :     0.0287951 Eh/α   predicted    -0.3655715E-02 (  72.79%)
   displ. norm   :     0.4540363 α      lambda       -0.2989231E-02
   maximum displ.:     0.2445632 α      in ANC's #53, #52, #51, ...

........................................................................
.............................. CYCLE   15 ..............................
........................................................................
   1   -464.6371105 -0.464637E+03  0.527E-03    0.99       0.0  T
   2   -464.6371139 -0.339381E-05  0.323E-03    0.99       2.0  T
   3   -464.6371159 -0.197446E-05  0.148E-03    0.99       4.3  T
   4   -464.6371157  0.224362E-06  0.141E-03    0.99       4.5  T
   5   -464.6371167 -0.988289E-06  0.339E-04    0.99      18.6  T
   6   -464.6371167 -0.558255E-07  0.774E-05    0.99      81.7  T
   7   -464.6371167 -0.343840E-08  0.361E-05    0.99     175.1  T
     SCC iter.                  ...        0 min,  1.839 sec
     gradient                   ...        0 min,  0.723 sec
 * total energy  :  -457.5387518 Eh     change       -0.1636397E-02 Eh
   gradient norm :     0.0142990 Eh/α   predicted    -0.1802730E-02 (  10.16%)
   displ. norm   :     0.4937246 α      lambda       -0.2645035E-02
   maximum displ.:     0.2389241 α      in ANC's #52, #53, #39, ...

........................................................................
.............................. CYCLE   16 ..............................
........................................................................
   1   -464.6368625 -0.464637E+03  0.672E-03    0.99       0.0  T
   2   -464.6368678 -0.530436E-05  0.530E-03    0.99       1.2  T
   3   -464.6368746 -0.685283E-05  0.189E-03    0.99       3.3  T
   4   -464.6368735  0.111106E-05  0.188E-03    0.99       3.4  T
   5   -464.6368751 -0.155672E-05  0.506E-04    0.99      12.5  T
   6   -464.6368752 -0.143191E-06  0.981E-05    0.99      64.4  T
   7   -464.6368752 -0.348501E-08  0.374E-05    0.99     169.0  T
     SCC iter.                  ...        0 min,  1.835 sec
     gradient                   ...        0 min,  0.726 sec
 * total energy  :  -457.5384910 Eh     change        0.2608959E-03 Eh
   gradient norm :     0.0312509 Eh/α   predicted    -0.1644905E-02 (-730.48%)
   displ. norm   :     0.2176279 α      lambda       -0.2654420E-02
   maximum displ.:     0.0774053 α      in ANC's #53, #80, #51, ...

........................................................................
.............................. CYCLE   17 ..............................
........................................................................
   1   -464.6437832 -0.464644E+03  0.456E-03    0.99       0.0  T
   2   -464.6437847 -0.150836E-05  0.383E-03    0.99       1.7  T
   3   -464.6437885 -0.376048E-05  0.156E-03    0.99       4.1  T
   4   -464.6437875  0.922578E-06  0.139E-03    0.99       4.6  T
   5   -464.6437887 -0.118463E-05  0.295E-04    0.99      21.5  T
   6   -464.6437888 -0.445161E-07  0.824E-05    0.99      76.7  T
   7   -464.6437888 -0.392100E-08  0.301E-05    0.99     210.3  T
     SCC iter.                  ...        0 min,  1.834 sec
     gradient                   ...        0 min,  0.722 sec
 * total energy  :  -457.5400651 Eh     change       -0.1574176E-02 Eh
   gradient norm :     0.0098424 Eh/α   predicted    -0.1390073E-02 ( -11.70%)
   displ. norm   :     0.2635197 α      lambda       -0.6858297E-03
   maximum displ.:     0.1035977 α      in ANC's #53, #26, #48, ...

........................................................................
.............................. CYCLE   18 ..............................
........................................................................
   1   -464.6408523 -0.464641E+03  0.297E-03    0.99       0.0  T
   2   -464.6408527 -0.404360E-06  0.283E-03    0.99       2.2  T
   3   -464.6408552 -0.246389E-05  0.105E-03    0.99       6.0  T
   4   -464.6408547  0.491600E-06  0.101E-03    0.99       6.3  T
   5   -464.6408553 -0.564740E-06  0.227E-04    0.99      27.9  T
   6   -464.6408553 -0.207339E-07  0.546E-05    0.99     115.9  T
   7   -464.6408553 -0.194586E-08  0.242E-05    0.99     261.5  T
     SCC iter.                  ...        0 min,  1.836 sec
     gradient                   ...        0 min,  0.722 sec
 * total energy  :  -457.5405204 Eh     change       -0.4552514E-03 Eh
   gradient norm :     0.0094268 Eh/α   predicted    -0.3667324E-03 ( -19.44%)
   displ. norm   :     0.4346249 α      lambda       -0.7321267E-03
   maximum displ.:     0.1474845 α      in ANC's #53, #26, #48, ...

........................................................................
.............................. CYCLE   19 ..............................
........................................................................
   1   -464.6383309 -0.464638E+03  0.260E-03    0.99       0.0  T
   2   -464.6383318 -0.916184E-06  0.169E-03    0.99       3.7  T
   3   -464.6383328 -0.101081E-05  0.778E-04    0.99       8.1  T
   4   -464.6383330 -0.160392E-06  0.635E-04    0.99      10.0  T
   5   -464.6383332 -0.191065E-06  0.182E-04    0.99      34.8  T
   6   -464.6383332 -0.846069E-08  0.551E-05    0.99     114.8  T
     SCC iter.                  ...        0 min,  1.578 sec
     gradient                   ...        0 min,  0.725 sec
 * total energy  :  -457.5410203 Eh     change       -0.4999190E-03 Eh
   gradient norm :     0.0098069 Eh/α   predicted    -0.4352102E-03 ( -12.94%)
   displ. norm   :     0.4732129 α      lambda       -0.6670128E-03
   maximum displ.:     0.1546827 α      in ANC's #26, #49, #48, ...

........................................................................
.............................. CYCLE   20 ..............................
........................................................................
   1   -464.6347744 -0.464635E+03  0.266E-03    0.98       0.0  T
   2   -464.6347755 -0.111253E-05  0.172E-03    0.98       3.7  T
   3   -464.6347765 -0.999525E-06  0.807E-04    0.98       7.8  T
   4   -464.6347766 -0.729306E-07  0.675E-04    0.98       9.4  T
   5   -464.6347768 -0.252424E-06  0.204E-04    0.98      31.1  T
   6   -464.6347768 -0.109180E-07  0.546E-05    0.98     115.8  T
   7   -464.6347768 -0.166824E-08  0.272E-05    0.98     232.5  T
     SCC iter.                  ...        0 min,  1.835 sec
     gradient                   ...        0 min,  0.725 sec
 * total energy  :  -457.5414541 Eh     change       -0.4338257E-03 Eh
   gradient norm :     0.0092841 Eh/α   predicted    -0.4081897E-03 (  -5.91%)
   displ. norm   :     0.4587378 α      lambda       -0.5938871E-03
   maximum displ.:     0.1565076 α      in ANC's #49, #26, #22, ...
 * RMSD in coord.:     0.4859613 α      energy gain  -0.2587624E+01 Eh

generating ANC from model Hessian ...
Using Lindh-Hessian (1995)
 Shifting diagonal of input Hessian by    1.0023318140526129E-002
 Lowest  eigenvalues of input Hessian
    0.010000    0.010007    0.010008    0.010010    0.010014    0.010015
    0.010018    0.010019    0.010020    0.000000    0.000000    0.000000
    0.000000    0.000000    0.000000    0.010045    0.010058    0.010078
 Highest eigenvalues
    2.382610    2.383964    2.384604    2.893970    2.894852    2.896676


........................................................................
.............................. CYCLE   21 ..............................
........................................................................
   1   -464.6308565 -0.464631E+03  0.226E-03    0.98       0.0  T
   2   -464.6308569 -0.387479E-06  0.136E-03    0.98       4.7  T
   3   -464.6308577 -0.764243E-06  0.823E-04    0.98       7.7  T
   4   -464.6308581 -0.426468E-06  0.435E-04    0.98      14.5  T
   5   -464.6308582 -0.473704E-07  0.144E-04    0.98      44.1  T
   6   -464.6308582 -0.372978E-08  0.534E-05    0.98     118.5  T
     SCC iter.                  ...        0 min,  1.573 sec
     gradient                   ...        0 min,  0.731 sec
 * total energy  :  -457.5418573 Eh     change       -0.4031778E-03 Eh
   gradient norm :     0.0105417 Eh/α   predicted     0.0000000E+00 (-100.00%)
   displ. norm   :     0.1242408 α      lambda       -0.3321762E-03
   maximum displ.:     0.0543996 α      in ANC's #50, #24, #41, ...

........................................................................
.............................. CYCLE   22 ..............................
........................................................................
   1   -464.6336821 -0.464634E+03  0.149E-03    0.99       0.0  T
   2   -464.6336822 -0.126039E-06  0.111E-03    0.99       5.7  T
   3   -464.6336827 -0.493594E-06  0.464E-04    0.99      13.6  T
   4   -464.6336827 -0.152519E-07  0.418E-04    0.99      15.1  T
   5   -464.6336828 -0.814999E-07  0.119E-04    0.99      53.2  T
   6   -464.6336828 -0.509533E-08  0.376E-05    0.99     168.1  T
     SCC iter.                  ...        0 min,  1.577 sec
     gradient                   ...        0 min,  0.723 sec
 * total energy  :  -457.5420815 Eh     change       -0.2241907E-03 Eh
   gradient norm :     0.0056057 Eh/α   predicted    -0.1686579E-03 ( -24.77%)
   displ. norm   :     0.2957902 α      lambda       -0.5133205E-03
   maximum displ.:     0.1355687 α      in ANC's #50, #24, #22, ...

........................................................................
.............................. CYCLE   23 ..............................
........................................................................
   1   -464.6385606 -0.464639E+03  0.302E-03    0.99       0.0  T
   2   -464.6385613 -0.709413E-06  0.216E-03    0.99       2.9  T
   3   -464.6385631 -0.173650E-05  0.876E-04    0.99       7.2  T
   4   -464.6385631 -0.615953E-07  0.838E-04    0.99       7.5  T
   5   -464.6385635 -0.336376E-06  0.230E-04    0.99      27.5  T
   6   -464.6385635 -0.185724E-07  0.715E-05    0.99      88.5  T
   7   -464.6385635 -0.326065E-08  0.275E-05    0.99     229.7  T
     SCC iter.                  ...        0 min,  1.835 sec
     gradient                   ...        0 min,  0.734 sec
 * total energy  :  -457.5423867 Eh     change       -0.3051848E-03 Eh
   gradient norm :     0.0092834 Eh/α   predicted    -0.2791180E-03 (  -8.54%)
   displ. norm   :     0.2938149 α      lambda       -0.3496824E-03
   maximum displ.:     0.1192864 α      in ANC's #50, #24, #22, ...

........................................................................
.............................. CYCLE   24 ..............................
........................................................................
   1   -464.6394649 -0.464639E+03  0.177E-03    0.99       0.0  T
   2   -464.6394653 -0.371087E-06  0.111E-03    0.99       5.7  T
   3   -464.6394657 -0.403500E-06  0.503E-04    0.99      12.6  T
   4   -464.6394658 -0.973673E-07  0.438E-04    0.99      14.4  T
   5   -464.6394658 -0.834187E-07  0.101E-04    0.99      62.8  T
   6   -464.6394658 -0.439422E-08  0.407E-05    0.99     155.4  T
     SCC iter.                  ...        0 min,  1.574 sec
     gradient                   ...        0 min,  0.723 sec
 * total energy  :  -457.5426011 Eh     change       -0.2144708E-03 Eh
   gradient norm :     0.0096115 Eh/α   predicted    -0.1899352E-03 ( -11.44%)
   displ. norm   :     0.2901934 α      lambda       -0.2710099E-03
   maximum displ.:     0.1105264 α      in ANC's #24, #22, #46, ...

........................................................................
.............................. CYCLE   25 ..............................
........................................................................
   1   -464.6373341 -0.464637E+03  0.138E-03    0.99       0.0  T
   2   -464.6373343 -0.240930E-06  0.893E-04    0.99       7.1  T
   3   -464.6373345 -0.165692E-06  0.431E-04    0.99      14.7  T
   4   -464.6373345  0.335072E-07  0.391E-04    0.99      16.2  T
   5   -464.6373346 -0.982560E-07  0.806E-05    0.99      78.4  T
   6   -464.6373346 -0.262685E-08  0.316E-05    0.99     199.9  T
     SCC iter.                  ...        0 min,  1.580 sec
     gradient                   ...        0 min,  0.725 sec
 * total energy  :  -457.5428002 Eh     change       -0.1990766E-03 Eh
   gradient norm :     0.0067634 Eh/α   predicted    -0.1469172E-03 ( -26.20%)
   displ. norm   :     0.4234028 α      lambda       -0.3706143E-03
   maximum displ.:     0.1652473 α      in ANC's #24, #22, #46, ...

........................................................................
.............................. CYCLE   26 ..............................
........................................................................
   1   -464.6325843 -0.464633E+03  0.238E-03    0.98       0.0  T
   2   -464.6325847 -0.403330E-06  0.187E-03    0.98       3.4  T
   3   -464.6325859 -0.114622E-05  0.772E-04    0.98       8.2  T
   4   -464.6325857  0.156090E-06  0.744E-04    0.98       8.5  T
   5   -464.6325861 -0.333158E-06  0.160E-04    0.98      39.6  T
   6   -464.6325861 -0.814720E-08  0.503E-05    0.98     125.8  T
     SCC iter.                  ...        0 min,  1.580 sec
     gradient                   ...        0 min,  0.722 sec
 * total energy  :  -457.5430691 Eh     change       -0.2688564E-03 Eh
   gradient norm :     0.0070311 Eh/α   predicted    -0.2185311E-03 ( -18.72%)
   displ. norm   :     0.4450160 α      lambda       -0.3256054E-03
   maximum displ.:     0.1746611 α      in ANC's #24, #22, #46, ...

........................................................................
.............................. CYCLE   27 ..............................
........................................................................
   1   -464.6291612 -0.464629E+03  0.205E-03    0.98       0.0  T
   2   -464.6291616 -0.427984E-06  0.147E-03    0.98       4.3  T
   3   -464.6291624 -0.777919E-06  0.614E-04    0.98      10.3  T
   4   -464.6291624 -0.163607E-07  0.574E-04    0.98      11.0  T
   5   -464.6291626 -0.172908E-06  0.135E-04    0.98      46.8  T
   6   -464.6291626 -0.586829E-08  0.457E-05    0.98     138.3  T
     SCC iter.                  ...        0 min,  1.575 sec
     gradient                   ...        0 min,  0.722 sec
 * total energy  :  -457.5433190 Eh     change       -0.2499400E-03 Eh
   gradient norm :     0.0080791 Eh/α   predicted    -0.1950491E-03 ( -21.96%)
   displ. norm   :     0.4920200 α      lambda       -0.3343332E-03
   maximum displ.:     0.1920631 α      in ANC's #24, #22, #19, ...

........................................................................
.............................. CYCLE   28 ..............................
........................................................................
   1   -464.6274290 -0.464627E+03  0.185E-03    0.98       0.0  T
   2   -464.6274295 -0.518620E-06  0.994E-04    0.98       6.4  T
   3   -464.6274297 -0.243883E-06  0.526E-04    0.98      12.0  T
   4   -464.6274298 -0.542296E-07  0.419E-04    0.98      15.1  T
   5   -464.6274299 -0.117649E-06  0.998E-05    0.98      63.4  T
   6   -464.6274299 -0.329504E-08  0.381E-05    0.98     165.9  T
     SCC iter.                  ...        0 min,  1.577 sec
     gradient                   ...        0 min,  0.721 sec
 * total energy  :  -457.5435696 Eh     change       -0.2506060E-03 Eh
   gradient norm :     0.0078006 Eh/α   predicted    -0.2076356E-03 ( -17.15%)
   displ. norm   :     0.4838905 α      lambda       -0.2969104E-03
   maximum displ.:     0.1906536 α      in ANC's #22, #24, #19, ...

........................................................................
.............................. CYCLE   29 ..............................
........................................................................
   1   -464.6271866 -0.464627E+03  0.197E-03    0.98       0.0  T
   2   -464.6271869 -0.323640E-06  0.138E-03    0.98       4.6  T
   3   -464.6271875 -0.600945E-06  0.577E-04    0.98      11.0  T
   4   -464.6271874  0.709650E-07  0.563E-04    0.98      11.2  T
   5   -464.6271876 -0.220776E-06  0.129E-04    0.98      49.0  T
   6   -464.6271877 -0.748469E-08  0.437E-05    0.98     144.8  T
     SCC iter.                  ...        0 min,  1.576 sec
     gradient                   ...        0 min,  0.714 sec
 * total energy  :  -457.5437716 Eh     change       -0.2019837E-03 Eh
   gradient norm :     0.0057000 Eh/α   predicted    -0.1832208E-03 (  -9.29%)
   displ. norm   :     0.4186711 α      lambda       -0.1949483E-03
   maximum displ.:     0.1671596 α      in ANC's #22, #24, #19, ...

........................................................................
.............................. CYCLE   30 ..............................
........................................................................
   1   -464.6271401 -0.464627E+03  0.163E-03    0.98       0.0  T
   2   -464.6271402 -0.778946E-07  0.128E-03    0.98       4.9  T
   3   -464.6271410 -0.760976E-06  0.478E-04    0.98      13.2  T
   4   -464.6271410  0.164451E-07  0.476E-04    0.98      13.3  T
   5   -464.6271411 -0.135824E-06  0.111E-04    0.98      56.8  T
   6   -464.6271411 -0.496260E-08  0.434E-05    0.98     145.7  T
     SCC iter.                  ...        0 min,  1.578 sec
     gradient                   ...        0 min,  0.722 sec
 * total energy  :  -457.5439028 Eh     change       -0.1311835E-03 Eh
   gradient norm :     0.0045770 Eh/α   predicted    -0.1145618E-03 ( -12.67%)
   displ. norm   :     0.3256777 α      lambda       -0.1240197E-03
   maximum displ.:     0.1342264 α      in ANC's #22, #24, #19, ...

........................................................................
.............................. CYCLE   31 ..............................
........................................................................
   1   -464.6282025 -0.464628E+03  0.136E-03    0.98       0.0  T
   2   -464.6282027 -0.230723E-06  0.915E-04    0.98       6.9  T
   3   -464.6282030 -0.343175E-06  0.391E-04    0.98      16.2  T
   4   -464.6282031 -0.433910E-07  0.354E-04    0.98      17.9  T
   5   -464.6282031 -0.656155E-07  0.793E-05    0.98      79.8  T
   6   -464.6282031 -0.157422E-08  0.335E-05    0.98     188.6  T
     SCC iter.                  ...        0 min,  1.577 sec
     gradient                   ...        0 min,  0.729 sec
 * total energy  :  -457.5439868 Eh     change       -0.8402192E-04 Eh
   gradient norm :     0.0039191 Eh/α   predicted    -0.6859174E-04 ( -18.36%)
   displ. norm   :     0.2871236 α      lambda       -0.1044700E-03
   maximum displ.:     0.1205375 α      in ANC's #22, #19, #24, ...

........................................................................
.............................. CYCLE   32 ..............................
........................................................................
   1   -464.6297689 -0.464630E+03  0.132E-03    0.98       0.0  T
   2   -464.6297692 -0.320161E-06  0.734E-04    0.98       8.6  T
   3   -464.6297694 -0.135191E-06  0.360E-04    0.98      17.6  T
   4   -464.6297694 -0.214371E-07  0.305E-04    0.98      20.7  T
   5   -464.6297694 -0.546509E-07  0.796E-05    0.98      79.5  T
   6   -464.6297694 -0.132030E-08  0.287E-05    0.98     220.4  T
     SCC iter.                  ...        0 min,  1.577 sec
     gradient                   ...        0 min,  0.720 sec
 * total energy  :  -457.5440433 Eh     change       -0.5652370E-04 Eh
   gradient norm :     0.0043063 Eh/α   predicted    -0.5654625E-04 (   0.04%)
   displ. norm   :     0.2054242 α      lambda       -0.8388924E-04
   maximum displ.:     0.0849342 α      in ANC's #22, #19, #24, ...

........................................................................
.............................. CYCLE   33 ..............................
........................................................................
   1   -464.6311714 -0.464631E+03  0.113E-03    0.98       0.0  T
   2   -464.6311716 -0.258105E-06  0.611E-04    0.98      10.3  T
   3   -464.6311717 -0.824466E-07  0.309E-04    0.98      20.5  T
   4   -464.6311717 -0.133774E-07  0.223E-04    0.98      28.4  T
   5   -464.6311717 -0.287692E-07  0.809E-05    0.98      78.2  T
   6   -464.6311718 -0.237196E-08  0.276E-05    0.98     229.2  T
     SCC iter.                  ...        0 min,  1.576 sec
     gradient                   ...        0 min,  0.722 sec
 * total energy  :  -457.5440913 Eh     change       -0.4793763E-04 Eh
   gradient norm :     0.0039457 Eh/α   predicted    -0.4371499E-04 (  -8.81%)
   displ. norm   :     0.1373624 α      lambda       -0.5726720E-04
   maximum displ.:     0.0554358 α      in ANC's #19, #22, #24, ...

........................................................................
.............................. CYCLE   34 ..............................
........................................................................
   1   -464.6307857 -0.464631E+03  0.939E-04    0.98       0.0  T
   2   -464.6307858 -0.155902E-06  0.611E-04    0.98      10.4  T
   3   -464.6307860 -0.164604E-06  0.260E-04    0.98      24.4  T
   4   -464.6307860 -0.251529E-07  0.206E-04    0.98      30.7  T
   5   -464.6307860 -0.215076E-07  0.650E-05    0.98      97.3  T
   6   -464.6307860 -0.942009E-09  0.270E-05    0.98     234.0  T
     SCC iter.                  ...        0 min,  1.573 sec
     gradient                   ...        0 min,  0.714 sec
 * total energy  :  -457.5441356 Eh     change       -0.4430812E-04 Eh
   gradient norm :     0.0029626 Eh/α   predicted    -0.2917487E-04 ( -34.15%)
   displ. norm   :     0.2554447 α      lambda       -0.1074153E-03
   maximum displ.:     0.0932704 α      in ANC's #19, #46, #22, ...

........................................................................
.............................. CYCLE   35 ..............................
........................................................................
   1   -464.6319735 -0.464632E+03  0.186E-03    0.98       0.0  T
   2   -464.6319742 -0.723566E-06  0.106E-03    0.98       6.0  T
   3   -464.6319746 -0.394261E-06  0.488E-04    0.98      13.0  T
   4   -464.6319747 -0.743751E-07  0.399E-04    0.98      15.9  T
   5   -464.6319748 -0.881620E-07  0.118E-04    0.98      53.5  T
   6   -464.6319748 -0.123686E-08  0.517E-05    0.98     122.3  T
     SCC iter.                  ...        0 min,  1.579 sec
     gradient                   ...        0 min,  0.717 sec
 * total energy  :  -457.5441883 Eh     change       -0.5272596E-04 Eh
   gradient norm :     0.0045933 Eh/α   predicted    -0.5721594E-04 (   8.52%)
   displ. norm   :     0.1834192 α      lambda       -0.7377218E-04
   maximum displ.:     0.0734836 α      in ANC's #19, #22, #20, ...

........................................................................
.............................. CYCLE   36 ..............................
........................................................................
   1   -464.6306751 -0.464631E+03  0.147E-03    0.98       0.0  T
   2   -464.6306758 -0.692855E-06  0.687E-04    0.98       9.2  T
   3   -464.6306758 -0.465668E-07  0.391E-04    0.98      16.2  T
   4   -464.6306758 -0.218541E-07  0.290E-04    0.98      21.8  T
   5   -464.6306759 -0.450675E-07  0.114E-04    0.98      55.3  T
   6   -464.6306759 -0.460017E-08  0.402E-05    0.98     157.2  T
     SCC iter.                  ...        0 min,  1.576 sec
     gradient                   ...        0 min,  0.721 sec
 * total energy  :  -457.5442212 Eh     change       -0.3291879E-04 Eh
   gradient norm :     0.0045875 Eh/α   predicted    -0.3812930E-04 (  15.83%)
   displ. norm   :     0.0897279 α      lambda       -0.3544398E-04
   maximum displ.:     0.0383605 α      in ANC's #19, #22, #20, ...

........................................................................
.............................. CYCLE   37 ..............................
........................................................................
   1   -464.6297689 -0.464630E+03  0.750E-04    0.98       0.0  T
   2   -464.6297690 -0.100736E-06  0.479E-04    0.98      13.2  T
   3   -464.6297690 -0.818936E-07  0.239E-04    0.98      26.4  T
   4   -464.6297691 -0.177392E-07  0.171E-04    0.98      37.1  T
   5   -464.6297691 -0.160638E-07  0.565E-05    0.98     111.9  T
     SCC iter.                  ...        0 min,  1.315 sec
     gradient                   ...        0 min,  0.717 sec
 * total energy  :  -457.5442481 Eh     change       -0.2688680E-04 Eh
   gradient norm :     0.0030540 Eh/α   predicted    -0.1786625E-04 ( -33.55%)
   displ. norm   :     0.1956869 α      lambda       -0.7219947E-04
   maximum displ.:     0.0840101 α      in ANC's #19, #22, #33, ...

........................................................................
.............................. CYCLE   38 ..............................
........................................................................
   1   -464.6306615 -0.464631E+03  0.177E-03    0.98       0.0  T
   2   -464.6306618 -0.370294E-06  0.122E-03    0.98       5.2  T
   3   -464.6306626 -0.748274E-06  0.533E-04    0.98      11.9  T
   4   -464.6306627 -0.113467E-06  0.392E-04    0.98      16.1  T
   5   -464.6306628 -0.813917E-07  0.133E-04    0.98      47.4  T
   6   -464.6306628 -0.459227E-08  0.557E-05    0.98     113.5  T
     SCC iter.                  ...        0 min,  1.579 sec
     gradient                   ...        0 min,  0.717 sec
 * total energy  :  -457.5442776 Eh     change       -0.2943818E-04 Eh
   gradient norm :     0.0035117 Eh/α   predicted    -0.3748309E-04 (  27.33%)
   displ. norm   :     0.1312138 α      lambda       -0.3462999E-04
   maximum displ.:     0.0566517 α      in ANC's #19, #22, #33, ...

........................................................................
.............................. CYCLE   39 ..............................
........................................................................
   1   -464.6308057 -0.464631E+03  0.806E-04    0.98       0.0  T
   2   -464.6308058 -0.179975E-06  0.363E-04    0.98      17.4  T
   3   -464.6308058 -0.231222E-08  0.207E-04    0.98      30.5  T
   4   -464.6308058  0.184286E-09  0.158E-04    0.98      40.1  T
   5   -464.6308059 -0.161667E-07  0.619E-05    0.98     102.1  T
     SCC iter.                  ...        0 min,  1.316 sec
     gradient                   ...        0 min,  0.719 sec
 * total energy  :  -457.5442950 Eh     change       -0.1746523E-04 Eh
   gradient norm :     0.0033276 Eh/α   predicted    -0.1761409E-04 (   0.85%)
   displ. norm   :     0.1415153 α      lambda       -0.2604683E-04
   maximum displ.:     0.0624020 α      in ANC's #19, #22, #20, ...

........................................................................
.............................. CYCLE   40 ..............................
........................................................................
   1   -464.6282901 -0.464628E+03  0.101E-03    0.98       0.0  T
   2   -464.6282904 -0.271606E-06  0.576E-04    0.98      11.0  T
   3   -464.6282904 -0.275855E-07  0.362E-04    0.98      17.5  T
   4   -464.6282904 -0.200374E-07  0.255E-04    0.98      24.8  T
   5   -464.6282905 -0.350470E-07  0.731E-05    0.98      86.5  T
   6   -464.6282905 -0.309217E-08  0.225E-05    0.98     281.4  T
     SCC iter.                  ...        0 min,  1.580 sec
     gradient                   ...        0 min,  0.718 sec
 * total energy  :  -457.5443093 Eh     change       -0.1432828E-04 Eh
   gradient norm :     0.0022600 Eh/α   predicted    -0.1328824E-04 (  -7.26%)
   displ. norm   :     0.0961322 α      lambda       -0.2196870E-04
   maximum displ.:     0.0430976 α      in ANC's #19, #33, #20, ...

........................................................................
.............................. CYCLE   41 ..............................
........................................................................
   1   -464.6296807 -0.464630E+03  0.550E-04    0.98       0.0  T
   2   -464.6296808 -0.416244E-07  0.341E-04    0.98      18.6  T
   3   -464.6296808 -0.224297E-07  0.191E-04    0.98      33.0  T
   4   -464.6296808 -0.424728E-08  0.138E-04    0.98      45.7  T
     SCC iter.                  ...        0 min,  1.054 sec
     gradient                   ...        0 min,  0.718 sec
 * total energy  :  -457.5443242 Eh     change       -0.1486006E-04 Eh
   gradient norm :     0.0016501 Eh/α   predicted    -0.1108983E-04 ( -25.37%)
   displ. norm   :     0.2293433 α      lambda       -0.2615573E-04
   maximum displ.:     0.1027755 α      in ANC's #19, #33, #20, ...

........................................................................
.............................. CYCLE   42 ..............................
........................................................................
   1   -464.6337181 -0.464634E+03  0.117E-03    0.98       0.0  T
   2   -464.6337183 -0.200205E-06  0.624E-04    0.98      10.1  T
   3   -464.6337183 -0.144831E-08  0.392E-04    0.98      16.2  T
   4   -464.6337183  0.947801E-08  0.287E-04    0.98      22.0  T
   5   -464.6337183 -0.658553E-07  0.629E-05    0.98     100.6  T
   6   -464.6337183 -0.184190E-08  0.235E-05    0.98     268.6  T
     SCC iter.                  ...        0 min,  1.583 sec
     gradient                   ...        0 min,  0.722 sec
 * total energy  :  -457.5443324 Eh     change       -0.8192756E-05 Eh
   gradient norm :     0.0032995 Eh/α   predicted    -0.1338712E-04 (  63.40%)
   displ. norm   :     0.0743049 α      lambda       -0.2220106E-04
   maximum displ.:     0.0337671 α      in ANC's #19, #22, #33, ...
 * RMSD in coord.:     0.2991181 α      energy gain  -0.2878278E-02 Eh

generating ANC from model Hessian ...
Using Lindh-Hessian (1995)
 Shifting diagonal of input Hessian by    1.0022856594948528E-002
 Lowest  eigenvalues of input Hessian
    0.010000    0.010005    0.010007    0.010013    0.010013    0.010016
    0.010018    0.010018    0.010020    0.000000    0.000000    0.000000
    0.000000    0.000000    0.000000    0.010045    0.010071    0.010088
 Highest eigenvalues
    2.378045    2.379559    2.380212    2.888374    2.890444    2.891328


........................................................................
.............................. CYCLE   43 ..............................
........................................................................
   1   -464.6325567 -0.464633E+03  0.515E-04    0.98       0.0  T
   2   -464.6325567 -0.489616E-07  0.288E-04    0.98      21.9  T
   3   -464.6325567 -0.176186E-08  0.167E-04    0.98      37.8  T
   4   -464.6325567  0.362411E-08  0.123E-04    0.98      51.6  T
     SCC iter.                  ...        0 min,  1.054 sec
     gradient                   ...        0 min,  0.718 sec
 * total energy  :  -457.5443468 Eh     change       -0.1440143E-04 Eh
   gradient norm :     0.0020438 Eh/α   predicted     0.0000000E+00 (-100.00%)
   displ. norm   :     0.0253390 α      lambda       -0.1609596E-04
   maximum displ.:     0.0091857 α      in ANC's #50, #42, #52, ...

........................................................................
.............................. CYCLE   44 ..............................
........................................................................
   1   -464.6316122 -0.464632E+03  0.338E-04    0.98       0.0  T
   2   -464.6316123 -0.159899E-07  0.200E-04    0.98      31.6  T
   3   -464.6316123 -0.311132E-08  0.116E-04    0.98      54.7  T
   4   -464.6316123  0.224668E-08  0.880E-05    0.98      71.9  T
     SCC iter.                  ...        0 min,  1.054 sec
     gradient                   ...        0 min,  0.719 sec
 * total energy  :  -457.5443485 Eh     change       -0.1734459E-05 Eh
   gradient norm :     0.0016873 Eh/α   predicted    -0.8481676E-05 ( 389.01%)
   displ. norm   :     0.0434298 α      lambda       -0.2091145E-04
   maximum displ.:     0.0131777 α      in ANC's #77, #51, #63, ...

........................................................................
.............................. CYCLE   45 ..............................
........................................................................
   1   -464.6302202 -0.464630E+03  0.543E-04    0.98       0.0  T
   2   -464.6302202 -0.461362E-07  0.310E-04    0.98      20.4  T
   3   -464.6302202 -0.107390E-07  0.175E-04    0.98      36.0  T
   4   -464.6302202  0.473671E-08  0.144E-04    0.98      43.9  T
     SCC iter.                  ...        0 min,  1.053 sec
     gradient                   ...        0 min,  0.720 sec
 * total energy  :  -457.5443501 Eh     change       -0.1596953E-05 Eh
   gradient norm :     0.0019121 Eh/α   predicted    -0.1046463E-04 ( 555.29%)
   displ. norm   :     0.0399639 α      lambda       -0.2664017E-04
   maximum displ.:     0.0094952 α      in ANC's #33, #24, #50, ...

........................................................................
.............................. CYCLE   46 ..............................
........................................................................
   1   -464.6303908 -0.464630E+03  0.247E-04    0.98       0.0  T
   2   -464.6303908 -0.492633E-08  0.152E-04    0.98      41.5  T
   3   -464.6303908 -0.115151E-07  0.867E-05    0.98      73.0  T
     SCC iter.                  ...        0 min,  0.795 sec
     gradient                   ...        0 min,  0.717 sec
 * total energy  :  -457.5443481 Eh     change        0.2042902E-05 Eh
   gradient norm :     0.0029384 Eh/α   predicted    -0.1333304E-04 (-752.65%)
   displ. norm   :     0.0161982 α      lambda       -0.2885542E-04
   maximum displ.:     0.0048610 α      in ANC's #87, #185, #33, ...

........................................................................
.............................. CYCLE   47 ..............................
........................................................................
   1   -464.6311226 -0.464631E+03  0.249E-04    0.98       0.0  T
   2   -464.6311226 -0.222195E-08  0.176E-04    0.98      35.8  T
   3   -464.6311226 -0.847137E-08  0.113E-04    0.98      56.2  T
     SCC iter.                  ...        0 min,  0.795 sec
     gradient                   ...        0 min,  0.722 sec
 * total energy  :  -457.5443659 Eh     change       -0.1782587E-04 Eh
   gradient norm :     0.0010219 Eh/α   predicted    -0.1443457E-04 ( -19.02%)
   displ. norm   :     0.0377304 α      lambda       -0.9283847E-05
   maximum displ.:     0.0136663 α      in ANC's #33, #24, #36, ...

........................................................................
.............................. CYCLE   48 ..............................
........................................................................
   1   -464.6311545 -0.464631E+03  0.172E-04    0.98       0.0  T
   2   -464.6311545 -0.406766E-08  0.104E-04    0.98      61.0  T
   3   -464.6311545 -0.260150E-08  0.532E-05    0.98     118.9  T
     SCC iter.                  ...        0 min,  0.795 sec
     gradient                   ...        0 min,  0.723 sec
 * total energy  :  -457.5443705 Eh     change       -0.4584510E-05 Eh
   gradient norm :     0.0008932 Eh/α   predicted    -0.4645627E-05 (   1.33%)
   displ. norm   :     0.0350309 α      lambda       -0.5175059E-05
   maximum displ.:     0.0138807 α      in ANC's #33, #24, #36, ...

   *** GEOMETRY OPTIMIZATION CONVERGED AFTER 48 ITERATIONS ***

------------------------------------------------------------------------
 total energy gain   :        -2.5905403 Eh    -1625.5886 kcal/mol
 total RMSD          :         0.6311876 a0        0.3340 Å
 total power (kW/mol):      -141.6971354 (step)  -50.0945 (real)
------------------------------------------------------------------------

 ANCopt (total)                0 d,  0 h,  2 min, 15.773 sec
 optimizer setup                ...        0 min,  0.001 sec (  0.000%)
 model hessian                  ...        0 min,  0.372 sec (  0.274%)
 ANC generation                 ...        0 min,  0.383 sec (  0.282%)
 coordinate transformation      ...        0 min,  0.017 sec (  0.013%)
 single point calculation       ...        2 min, 14.882 sec ( 99.344%)
 optimization log               ...        0 min,  0.042 sec (  0.031%)
 hessian update                 ...        0 min,  0.018 sec (  0.013%)
 rational function              ...        0 min,  0.051 sec (  0.037%)

================
 final structure:
================
250
 xtb: 6.5.1 (b24c23e)
Ni          48.07307500847828        0.00645165523678       -0.03340240423408
C           44.68241314344878        0.06831254478875       -0.16901565190061
C           45.34921614032854        1.27394750978293       -0.11008279547366
C           44.68383967395437        2.54070936411701       -0.08375541495268
C           45.64353987302832        3.47924244756576        0.08652347588469
C           46.89680879835818        2.78524970425345        0.14936585546115
N           46.70681632466029        1.43282295905915        0.01516782196710
C           48.11344834577785        3.40720110708361        0.39798677349773
C           48.13270720465135        4.87541617266968        0.60193428375737
C           48.49910034303036        5.40970454488701        1.84042971574000
C           48.51619091206867        6.77798970598132        2.03126819974981
C           48.17241433466541        7.64233018332803        0.98663869524166
C           48.20211725712188        9.09888160916271        1.21476317215902
O           48.51026745596314        9.60537404800936        2.26295957972776
C           47.80875368715203        7.10876881764093       -0.25198026163916
C           47.78709602625845        5.73816538460410       -0.44114471235768
C           49.31556137170730        2.71529639542920        0.45696025845748
C           50.58424604374781        3.34792847792859        0.65757810690725
C           51.52608960413051        2.38246162955866        0.53644762413596
N           49.47981932003330        1.36785217332594        0.22753371343195
C           50.83185695057410        1.16496546972869        0.26094926469294
C           51.48603061796081       -0.04374487049091        0.00855930696168
C           50.80187420793321       -1.23752827935787       -0.23336076782131
C           51.46411730651670       -2.47575009998538       -0.49450454868322
C           50.49802842407038       -3.42006202644331       -0.59094927455386
C           49.24754946395236       -2.75454947651765       -0.38312206326379
N           49.44486239459030       -1.40542892680877       -0.19549163406245
C           48.02148163707789       -3.40647950259319       -0.36576493182693
C           48.00226365638048       -4.88116481493412       -0.50366830091045
C           47.36354116163876       -5.47979186861916       -1.59307572892947
C           47.34858912092709       -6.85683664781398       -1.72650276634985
C           47.96815682823742       -7.66317995727318       -0.76883762421002
C           47.96400227479145       -9.13318865825914       -0.88616891444427
O           48.48073321057813       -9.86931663683019       -0.08541725584220
C           48.60538809685160       -7.06426185697526        0.32285588031696
C           48.62501804289047       -5.68891809304407        0.45251615881584
C           46.81353172112318       -2.73239757253136       -0.23853868174032
C           45.53607589819897       -3.38246908740809       -0.19668763336719
C           44.60059523764113       -2.40539644794057       -0.15750219591020
C           45.30719200898086       -1.16102074609659       -0.15659798455041
N           46.66361819859474       -1.36977412701137       -0.17701220476032
H           43.59967958006623        0.08793126553695       -0.21079786964978
H           43.61708164741082        2.67232063027168       -0.16987077116782
H           45.52528220954042        4.54678531274344        0.17608097996292
H           48.75638529981779        4.74109017653187        2.65410094040337
H           48.79441360470733        7.20156143660198        2.99032436981152
H           47.91302769606900        9.70499380211060        0.32983400896057
H           47.54438727889224        7.77265077372950       -1.06864460447360
H           47.51613318966687        5.32650752540642       -1.40682403388540
H           50.72685128827772        4.39897260989652        0.84795949810114
H           52.59740397643530        2.47234855638624        0.61535804195599
H           52.53179932600708       -2.59146066296269       -0.58779641846640
H           50.61117923208832       -4.47252637593434       -0.79298499401964
H           46.89272894619472       -4.85572697356076       -2.34431680145278
H           46.85551848555595       -7.31317906161475       -2.57868187365930
H           47.43750403944325       -9.51717630705972       -1.78583305612436
H           49.08128369608733       -7.69866062958512        1.06291089174978
H           49.11058839681221       -5.22763455642938        1.30503488964043
H           45.38773819427379       -4.45002680500461       -0.19385549244633
H           43.52676813021389       -2.49817999596375       -0.12585658723257
Ni          88.36759994901958       -0.03470579133884       -0.08381275336735
C           91.76016696732343       -0.07961257418972       -0.19382636362063
C           91.09434798930224       -1.28273160759141       -0.29700710307976
C           91.76199927575364       -2.54253129969472       -0.42102513811437
C           90.80189088667997       -3.49525045491170       -0.38503108342978
C           89.54611618674248       -2.81475241970561       -0.25810876424133
N           89.73537603606383       -1.45628726226738       -0.21305819094489
C           88.32461688942769       -3.46301572908710       -0.13143998224517
C           88.30143114225858       -4.94527206259676       -0.12324584476247
C           87.89337550593766       -5.63517729424409        1.02186094433590
C           87.86833750527676       -7.01650360724930        1.03121095689364
C           88.24565841371277       -7.73846996952113       -0.10588145248438
C           88.20453334156041       -9.21205185219766       -0.07252402399102
O           87.85713504988681       -9.84980661981916        0.88814992607597
C           88.65166018136550       -7.04929808827788       -1.25102535631974
C           88.68123683626747       -5.66583722920390       -1.25822026614604
C           87.11846633499627       -2.78407582191127       -0.02410111741520
C           85.84598606022504       -3.43810051584083        0.03292095082182
C           84.90506698143685       -2.46445083205814        0.01714966738113
N           86.95720324531635       -1.41765944009524       -0.06251516166299
C           85.60382901157645       -1.22030324771508       -0.04724362960811
C           84.95383236909439        0.01440044234611       -0.11409283935412
C           85.64030695033343        1.23044820813862       -0.13391683088663
C           84.98019624677941        2.49567489168770       -0.19413962264045
C           85.94645256178465        3.44161804822727       -0.12037145301478
C           87.19509751518629        2.74935568243080       -0.01193969709924
N           86.99663829142260        1.38805205635149       -0.04912799598244
C           88.42131768411026        3.38947193154889        0.11132534697409
C           88.44006208705069        4.86793084396719        0.20264537023883
C           89.07510436200108        5.62752599923661       -0.78366404714090
C           89.08657554044164        7.00882771218244       -0.70523997521676
C           88.46685652436953        7.65783345817282        0.36520870135409
C           88.46566201860311        9.12867177903246        0.47245569035455
O           87.94847226092114        9.73275164886001        1.37663693719534
C           87.83391465068303        6.89757598591123        1.35410396691612
C           87.81803040082197        5.51846817939519        1.27239263112175
C           89.62895668322059        2.70355121890034        0.13205805867194
C           90.90669202277476        3.34009536352635        0.26829251190493
C           91.84183494893313        2.36785016328940        0.16169240179588
C           91.13474348087396        1.13678863706519       -0.01807332216399
N           89.77841511436331        1.34676669387195       -0.00956193572383
H           92.84319360987426       -0.09359944371722       -0.23018830948237
H           92.83027810001600       -2.66193642295391       -0.50615110425486
H           90.92092857736992       -4.56555748637061       -0.42905909415652
[...]

      molecular mass/u    :     2439.0524079
   center of mass at/Å    :       68.2172629      -0.0203150       0.0037453
  moments of inertia/u·Å² :        0.5383047E+05   0.5436741E+06   0.5946022E+06
rotational constants/cm⁻¹ :        0.3131615E-03   0.3100687E-04   0.2835111E-04

 * 240 selected distances

     #   Z          #   Z                                           value/Å
     2   6 C        3   6 C                                       1.3790052
     3   6 C        4   6 C                                       1.4311202
     4   6 C        5   6 C                                       1.3530943
     5   6 C        6   6 C                                       1.4339660
     3   6 C        7   7 N                                       1.3725916
     6   6 C        7   7 N                                       1.3722845
     6   6 C        8   6 C                                       1.3888297
     9   6 C       10   6 C                                       1.3977050
    10   6 C       11   6 C                                       1.3816353
    11   6 C       12   6 C                                       1.3987559
    13   6 C       14   8 O                                       1.2042455
    12   6 C       15   6 C                                       1.3968229
     9   6 C       16   6 C                                       1.3970674
    15   6 C       16   6 C                                       1.3837653
     8   6 C       17   6 C                                       1.3882673
    17   6 C       18   6 C                                       1.4317933
    18   6 C       19   6 C                                       1.3542040
    17   6 C       20   7 N                                       1.3766712
    19   6 C       21   6 C                                       1.4283402
    20   7 N       21   6 C                                       1.3675839
    21   6 C       22   6 C                                       1.3973636
    22   6 C       23   6 C                                       1.3970378
    23   6 C       24   6 C                                       1.4282702
    24   6 C       25   6 C                                       1.3543835
    25   6 C       26   6 C                                       1.4317113
    23   6 C       27   7 N                                       1.3678838
    26   6 C       27   7 N                                       1.3763227
    26   6 C       28   6 C                                       1.3887248
    29   6 C       30   6 C                                       1.3975442
    30   6 C       31   6 C                                       1.3835747
    31   6 C       32   6 C                                       1.3968452
    33   6 C       34   8 O                                       1.2042005
    32   6 C       35   6 C                                       1.3987715
    29   6 C       36   6 C                                       1.3980620
    35   6 C       36   6 C                                       1.3815817
    28   6 C       37   6 C                                       1.3891423
    37   6 C       38   6 C                                       1.4339589
    38   6 C       39   6 C                                       1.3532667
     2   6 C       40   6 C                                       1.3790444
    39   6 C       40   6 C                                       1.4309965
    37   6 C       41   7 N                                       1.3722254
    40   6 C       41   7 N                                       1.3725477
     2   6 C       42   1 H                                       1.0837171
     4   6 C       43   1 H                                       1.0782904
     5   6 C       44   1 H                                       1.0778003
    10   6 C       45   1 H                                       1.0841134
    11   6 C       46   1 H                                       1.0847165
    15   6 C       48   1 H                                       1.0851588
    16   6 C       49   1 H                                       1.0841678
    18   6 C       50   1 H                                       1.0776248
    19   6 C       51   1 H                                       1.0779709
    24   6 C       52   1 H                                       1.0779784
    25   6 C       53   1 H                                       1.0776377
    30   6 C       54   1 H                                       1.0841976
    31   6 C       55   1 H                                       1.0851620
    35   6 C       57   1 H                                       1.0847212
    36   6 C       58   1 H                                       1.0841354
    38   6 C       59   1 H                                       1.0778181
    39   6 C       60   1 H                                       1.0782927
    62   6 C       63   6 C                                       1.3789333
    63   6 C       64   6 C                                       1.4311654
    64   6 C       65   6 C                                       1.3530624
    65   6 C       66   6 C                                       1.4339307
    63   6 C       67   7 N                                       1.3725794
    66   6 C       67   7 N                                       1.3723253
    66   6 C       68   6 C                                       1.3886509
    69   6 C       70   6 C                                       1.3977656
    70   6 C       71   6 C                                       1.3815850
    71   6 C       72   6 C                                       1.3987802
    73   6 C       74   8 O                                       1.2042888
    72   6 C       75   6 C                                       1.3968358
    69   6 C       76   6 C                                       1.3970089
    75   6 C       76   6 C                                       1.3837958
    68   6 C       77   6 C                                       1.3882653
    77   6 C       78   6 C                                       1.4318541
    78   6 C       79   6 C                                       1.3540943
    77   6 C       80   7 N                                       1.3764358
    79   6 C       81   6 C                                       1.4283972
    80   7 N       81   6 C                                       1.3677737
    81   6 C       82   6 C                                       1.3969460
    82   6 C       83   6 C                                       1.3965718
    83   6 C       84   6 C                                       1.4283458
    84   6 C       85   6 C                                       1.3542163
    85   6 C       86   6 C                                       1.4318168
    83   6 C       87   7 N                                       1.3680874
    86   6 C       87   7 N                                       1.3761966
    86   6 C       88   6 C                                       1.3887258
    89   6 C       90   6 C                                       1.3975229
    90   6 C       91   6 C                                       1.3835739
    91   6 C       92   6 C                                       1.3968253
    93   6 C       94   8 O                                       1.2041353
    92   6 C       95   6 C                                       1.3987570
    89   6 C       96   6 C                                       1.3980278
    95   6 C       96   6 C                                       1.3816178
    88   6 C       97   6 C                                       1.3889958
    97   6 C       98   6 C                                       1.4340001 (max)
    98   6 C       99   6 C                                       1.3531877
    62   6 C      100   6 C                                       1.3790127
    99   6 C      100   6 C                                       1.4310160
    97   6 C      101   7 N                                       1.3723187
   100   6 C      101   7 N                                       1.3725124
    62   6 C      102   1 H                                       1.0837272
    64   6 C      103   1 H                                       1.0782967
    65   6 C      104   1 H                                       1.0778060
    70   6 C      105   1 H                                       1.0841195
    71   6 C      106   1 H                                       1.0847151
    75   6 C      108   1 H                                       1.0851593
    76   6 C      109   1 H                                       1.0841615
    78   6 C      110   1 H                                       1.0776237
    79   6 C      111   1 H                                       1.0779574
    84   6 C      112   1 H                                       1.0779706
    85   6 C      113   1 H                                       1.0776222 (min)
    90   6 C      114   1 H                                       1.0842025
    91   6 C      115   1 H                                       1.0851656
    95   6 C      117   1 H                                       1.0847206
    96   6 C      118   1 H                                       1.0841335
    98   6 C      119   1 H                                       1.0778092
    99   6 C      120   1 H                                       1.0782966
   121   6 C      122   6 C                                       1.2214076
   123   6 C      124   6 C                                       1.2215298
   125   6 C      126   6 C                                       1.2215572
   127   6 C      128   6 C                                       1.2215617
   129   6 C      130   6 C                                       1.2212768
   131   6 C      132   6 C                                       1.2211762
   134   6 C      135   6 C                                       1.3978435
   135   6 C      136   6 C                                       1.4279151
   136   6 C      137   6 C                                       1.3551729
   137   6 C      138   6 C                                       1.4310114
   135   6 C      139   7 N                                       1.3677122
   138   6 C      139   7 N                                       1.3759714
   138   6 C      140   6 C                                       1.3891527
   141   6 C      142   6 C                                       1.3980878
   142   6 C      143   6 C                                       1.3815864
   143   6 C      144   6 C                                       1.3987552
   145   6 C      146   8 O                                       1.2041341
   144   6 C      147   6 C                                       1.3968161
   141   6 C      148   6 C                                       1.3976143
   147   6 C      148   6 C                                       1.3835052
   140   6 C      149   6 C                                       1.3888079
   149   6 C      150   6 C                                       1.4311521
   150   6 C      151   6 C                                       1.3550138
   149   6 C      152   7 N                                       1.3764424
   151   6 C      153   6 C                                       1.4279806
   152   7 N      153   6 C                                       1.3675469
   153   6 C      154   6 C                                       1.3978404
   154   6 C      155   6 C                                       1.3978141
   155   6 C      156   6 C                                       1.4279832
   156   6 C      157   6 C                                       1.3551296
   157   6 C      158   6 C                                       1.4310807
   155   6 C      159   7 N                                       1.3675464
   158   6 C      159   7 N                                       1.3762355
   158   6 C      160   6 C                                       1.3889160
   161   6 C      162   6 C                                       1.3974838
   162   6 C      163   6 C                                       1.3836253
   163   6 C      164   6 C                                       1.3968110
   165   6 C      166   8 O                                       1.2040891
   164   6 C      167   6 C                                       1.3987102
   161   6 C      168   6 C                                       1.3981370
   167   6 C      168   6 C                                       1.3815028
   160   6 C      169   6 C                                       1.3890233
   169   6 C      170   6 C                                       1.4311572
   170   6 C      171   6 C                                       1.3550852
   134   6 C      172   6 C                                       1.3978426
   171   6 C      172   6 C                                       1.4279259
   169   6 C      173   7 N                                       1.3761153
   172   6 C      173   7 N                                       1.3676127
   136   6 C      174   1 H                                       1.0779975
   137   6 C      175   1 H                                       1.0777152
   142   6 C      176   1 H                                       1.0841198
   143   6 C      177   1 H                                       1.0847189
   147   6 C      179   1 H                                       1.0851346
   148   6 C      180   1 H                                       1.0841960
   150   6 C      181   1 H                                       1.0776719
   151   6 C      182   1 H                                       1.0779893
   156   6 C      183   1 H                                       1.0779932
   157   6 C      184   1 H                                       1.0777051
   162   6 C      185   1 H                                       1.0841926
   163   6 C      186   1 H                                       1.0851359
   167   6 C      188   1 H                                       1.0847102
   168   6 C      189   1 H                                       1.0841262
   170   6 C      190   1 H                                       1.0776681
   171   6 C      191   1 H                                       1.0779809
   193   6 C      194   6 C                                       1.3975577
   194   6 C      195   6 C                                       1.4280222
   195   6 C      196   6 C                                       1.3549658
   196   6 C      197   6 C                                       1.4310924
   194   6 C      198   7 N                                       1.3678012
   197   6 C      198   7 N                                       1.3759891
   197   6 C      199   6 C                                       1.3888643
   200   6 C      201   6 C                                       1.3979625
   201   6 C      202   6 C                                       1.3816569
   202   6 C      203   6 C                                       1.3986767
   204   6 C      205   8 O                                       1.2039986
   203   6 C      206   6 C                                       1.3967867
   200   6 C      207   6 C                                       1.3975268
   206   6 C      207   6 C                                       1.3835443
   199   6 C      208   6 C                                       1.3886755
   208   6 C      209   6 C                                       1.4312686
   209   6 C      210   6 C                                       1.3548063
   208   6 C      211   7 N                                       1.3763118
   210   6 C      212   6 C                                       1.4280596
   211   7 N      212   6 C                                       1.3676629
   212   6 C      213   6 C                                       1.3974084
   213   6 C      214   6 C                                       1.3974013
   214   6 C      215   6 C                                       1.4279973
   215   6 C      216   6 C                                       1.3549828
   216   6 C      217   6 C                                       1.4310949
   214   6 C      218   7 N                                       1.3678737
   217   6 C      218   7 N                                       1.3759413
   217   6 C      219   6 C                                       1.3889750
   220   6 C      221   6 C                                       1.3974810
   221   6 C      222   6 C                                       1.3836209
   222   6 C      223   6 C                                       1.3968584
   224   6 C      225   8 O                                       1.2041900
   223   6 C      226   6 C                                       1.3987417
   220   6 C      227   6 C                                       1.3981195
   226   6 C      227   6 C                                       1.3815058
   219   6 C      228   6 C                                       1.3886684
   228   6 C      229   6 C                                       1.4311672
   229   6 C      230   6 C                                       1.3549692
   193   6 C      231   6 C                                       1.3977783
   230   6 C      231   6 C                                       1.4279230
   228   6 C      232   7 N                                       1.3763943
   231   6 C      232   7 N                                       1.3674707
   195   6 C      233   1 H                                       1.0779831
   196   6 C      234   1 H                                       1.0777037
   201   6 C      235   1 H                                       1.0841155
   202   6 C      236   1 H                                       1.0847132
   206   6 C      238   1 H                                       1.0851367
   207   6 C      239   1 H                                       1.0842006
   209   6 C      240   1 H                                       1.0776325
   210   6 C      241   1 H                                       1.0779660
   215   6 C      242   1 H                                       1.0779871
   216   6 C      243   1 H                                       1.0777006
   221   6 C      244   1 H                                       1.0841832
   222   6 C      245   1 H                                       1.0851393
   226   6 C      247   1 H                                       1.0847138
   227   6 C      248   1 H                                       1.0841223
   229   6 C      249   1 H                                       1.0776720
   230   6 C      250   1 H                                       1.0779862

 * 4 distinct bonds (by element types)

   Z      Z             #   av. dist./Å        max./Å        min./Å
   1 H    6 C          66     1.0812879     1.0851656     1.0776222
   6 C    6 C         134     1.3890081     1.4340001     1.2211762
   6 C    7 N          32     1.3720927     1.3766712     1.3674707
   6 C    8 O           8     1.2041602     1.2042888     1.2039986


optimized geometry written to: xtbopt.xyz


           -------------------------------------------------
          | TOTAL ENERGY             -457.544370501148 Eh   |
          | GRADIENT NORM               0.000893042483 Eh/α |
          | HOMO-LUMO GAP               0.980135001250 eV   |
           -------------------------------------------------

------------------------------------------------------------------------
 * finished run on 2022/07/30 at 04:24:56.225     
------------------------------------------------------------------------
 total:
 * wall-time:     0 d,  0 h,  2 min, 46.466 sec
 *  cpu-time:     0 d,  0 h,  2 min, 45.610 sec
 * ratio c/w:     0.995 speedup
 SCF:
 * wall-time:     0 d,  0 h,  0 min, 28.476 sec
 *  cpu-time:     0 d,  0 h,  0 min, 28.326 sec
 * ratio c/w:     0.995 speedup
 ANC optimizer:
 * wall-time:     0 d,  0 h,  2 min, 17.696 sec
 *  cpu-time:     0 d,  0 h,  2 min, 16.996 sec
 * ratio c/w:     0.995 speedup

