      -----------------------------------------------------------      
     |                   =====================                   |     
     |                           x T B                           |     
     |                   =====================                   |     
     |                         S. Grimme                         |     
     |          Mulliken Center for Theoretical Chemistry        |     
     |                    University of Bonn                     |     
      -----------------------------------------------------------      

   * xtb version 6.5.1 (b24c23e) compiled by 'conda@728c89f4b128' on 2022-07-12

   xtb is free software: you can redistribute it and/or modify it under
   the terms of the GNU Lesser General Public License as published by
   the Free Software Foundation, either version 3 of the License, or
   (at your option) any later version.
   
   xtb is distributed in the hope that it will be useful,
   but WITHOUT ANY WARRANTY; without even the implied warranty of
   MERCHANTABILITY or FITNESS FOR A PARTICULAR PURPOSE.  See the
   GNU Lesser General Public License for more details.
   
   Cite this work as:
   * C. Bannwarth, E. Caldeweyher, S. Ehlert, A. Hansen, P. Pracht,
     J. Seibert, S. Spicher, S. Grimme, WIREs Comput. Mol. Sci., 2020, 11,
     e01493. DOI: 10.1002/wcms.1493
   
   for GFN2-xTB:
   * C. Bannwarth, S. Ehlert and S. Grimme., J. Chem. Theory Comput., 2019,
     15, 1652-1671. DOI: 10.1021/acs.jctc.8b01176
   for GFN1-xTB:
   * S. Grimme, C. Bannwarth, P. Shushkov, J. Chem. Theory Comput., 2017,
     13, 1989-2009. DOI: 10.1021/acs.jctc.7b00118
   for GFN0-xTB:
   * P. Pracht, E. Caldeweyher, S. Ehlert, S. Grimme, ChemRxiv, 2019, preprint.
     DOI: 10.26434/chemrxiv.8326202.v1
   for GFN-FF:
   * S. Spicher and S. Grimme, Angew. Chem. Int. Ed., 2020, 59, 15665-15673.
     DOI: 10.1002/anie.202004239
   
   for ALPB and GBSA implicit solvation:
   * S. Ehlert, M. Stahn, S. Spicher, S. Grimme, J. Chem. Theory Comput.,
     2021, 17, 4250-4261. DOI: 10.1021/acs.jctc.1c00471
   
   for DFT-D4:
   * E. Caldeweyher, C. Bannwarth and S. Grimme, J. Chem. Phys., 2017,
     147, 034112. DOI: 10.1063/1.4993215
   * E. Caldeweyher, S. Ehlert, A. Hansen, H. Neugebauer, S. Spicher,
     C. Bannwarth and S. Grimme, J. Chem. Phys., 2019, 150, 154122.
     DOI: 10.1063/1.5090222
   * E. Caldeweyher, J.-M. Mewes, S. Ehlert and S. Grimme, Phys. Chem. Chem. Phys.
     2020, 22, 8499-8512. DOI: 10.1039/D0CP00502A
   
   for sTDA-xTB:
   * S. Grimme and C. Bannwarth, J. Chem. Phys., 2016, 145, 054103.
     DOI: 10.1063/1.4959605
   
   in the mass-spec context:
   * V. Asgeirsson, C. Bauer and S. Grimme, Chem. Sci., 2017, 8, 4879.
     DOI: 10.1039/c7sc00601b
   * J. Koopman and S. Grimme, ACS Omega 2019, 4, 12, 15120-15133.
     DOI: 10.1021/acsomega.9b02011
   
   for metadynamics refer to:
   * S. Grimme, J. Chem. Theory Comput., 2019, 155, 2847-2862
     DOI: 10.1021/acs.jctc.9b00143
   
   for SPH calculations refer to:
   * S. Spicher and S. Grimme, J. Chem. Theory Comput., 2021, 17, 1701-1714
     DOI: 10.1021/acs.jctc.0c01306
   
   with help from (in alphabetical order)
   P. Atkinson, C. Bannwarth, F. Bohle, G. Brandenburg, E. Caldeweyher
   M. Checinski, S. Dohm, S. Ehlert, S. Ehrlich, I. Gerasimov, C. Hölzer
   A. Katbashev, J. Koopman, C. Lavigne, S. Lehtola, F. März, M. Müller,
   F. Musil, H. Neugebauer, J. Pisarek, C. Plett, P. Pracht, F. Pultar,
   J. Seibert, P. Shushkov, S. Spicher, M. Stahn, M. Steiner, T. Strunk,
   J. Stückrath, T. Rose, and J. Unsleber
   
 * started run on 2022/07/26 at 15:59:53.414     

           -------------------------------------------------
          |                Calculation Setup                |
           -------------------------------------------------

          program call               : xtb H_C6_7.xyz --gfn 1 --opt -T 48
          hostname                   : cx3-6-14.cx3.hpc.ic.ac.uk
          coordinate file            : H_C6_7.xyz
          omp threads                :                     1

   ID    Z sym.   atoms
    1    6 C      1-5, 7-10, 12-17, 19-23, 38-42, 44-47, 49-54, 56-60,
                  75-115, 117-120, 122-127, 129-133, 147-151, 153-156,
                  158-163, 165-169, 183-187, 189-192, 194-199, 201-205,
                  219-223, 225-228, 230-235, 237-241, 255-259, 261-264,
                  266-271, 273-277
    2    7 N      6, 11, 18, 24, 43, 48, 55, 61, 116, 121, 128, 134, 152,
                  157, 164, 170, 188, 193, 200, 206, 224, 229, 236, 242, 260,
                  265, 272, 278
    3    1 H      25-37, 62-74, 135-146, 171-182, 207-218, 243-254, 279-290

molecular fragmentation (1/2 indicates fragments):
111111111111111111111111111111111111122222222222222222222222222222222222
222222222222222222222222222222222222222222222222222222222222222222222222
222222222222222222222222222222222222222222222222222222222222222222222222
222222222222222222222222222222222222222222222222222222222222222222222222
22
# atoms in fragment 1/2:    37   253
 fragment masses (1/2) :      309.34     2283.42
CMA distance (Bohr)    : 104.832
constraining FC (au)   :  0.0500
########################################################################
[WARNING] Please study the warnings concerning your input carefully
-1- prog_main_parseArguments: Unknown option '-T' provided
########################################################################

           -------------------------------------------------
          |                 G F N 1 - x T B                 |
           -------------------------------------------------

        Reference                      10.1021/acs.jctc.7b00118
      * Hamiltonian:
        H0-scaling (s, p, d)           1.850000    2.250000    2.000000
        zeta-weighting                 0.000000
      * Dispersion:
        s8                             2.400000
        a1                             0.630000
        a2                             5.000000
        s9                             0.000000
      * Repulsion:
        kExp                           1.500000
        rExp                           1.000000
      * Coulomb:
        alpha                          2.000000
        third order                    atomic
        anisotropic                    false
      * Halogen bond correction:
        rad-scale                      1.300000
        damping                        0.440000


          ...................................................
          :                      SETUP                      :
          :.................................................:
          :  # basis functions                 988          :
          :  # atomic orbitals                 988          :
          :  # shells                          580          :
          :  # electrons                       930          :
          :  # halogen bonds                     0          :
          :  max. iterations                   250          :
          :  Hamiltonian                  GFN1-xTB          :
          :  restarted?                      false          :
          :  GBSA solvation                  false          :
          :  PC potential                    false          :
          :  electronic temp.          300.0000000     K    :
          :  accuracy                    1.0000000          :
          :  -> integral cutoff          0.2500000E+02      :
          :  -> integral neglect         0.1000000E-07      :
          :  -> SCF convergence          0.1000000E-05 Eh   :
          :  -> wf. convergence          0.2000000E-04 e    :
          :  Broyden damping             0.4000000          :
          ...................................................

 iter      E             dE          RMSdq      gap      omega  full diag
   1   -513.5096944 -0.513510E+03  0.106E+01    0.12       0.0  T
   2   -471.8444410  0.416653E+02  0.775E+00    0.00       1.0  T
   3   2027.9119161  0.249976E+04  0.178E+01    0.03       1.0  T
   4   3892.9458845  0.186503E+04  0.222E+01    0.03       1.0  T
   5   -392.6726398 -0.428562E+04  0.714E+00    0.03       1.0  T
   6   -397.9092408 -0.523660E+01  0.642E+00    0.10       1.0  T
   7   -439.1274330 -0.412182E+02  0.554E+00    0.03       1.0  T
   8   -492.3559403 -0.532285E+02  0.346E+00    0.09       1.0  T
   9   -482.1251823  0.102308E+02  0.346E+00    0.05       1.0  T
  10   -497.6014864 -0.154763E+02  0.290E+00    0.21       1.0  T
  11   -509.9915689 -0.123901E+02  0.216E+00    0.15       1.0  T
  12   -512.3921131 -0.240054E+01  0.172E+00    0.03       1.0  T
  13   -513.4856966 -0.109358E+01  0.144E+00    0.17       1.0  T
  14   -513.7213906 -0.235694E+00  0.133E+00    0.03       1.0  T
  15   -511.4312554  0.229014E+01  0.154E+00    0.11       1.0  T
  16   -512.8895022 -0.145825E+01  0.132E+00    0.04       1.0  T
  17   -512.6843176  0.205185E+00  0.135E+00    0.11       1.0  T
  18   -512.3631833  0.321134E+00  0.128E+00    0.03       1.0  T
  19   -512.3567491  0.643427E-02  0.121E+00    0.06       1.0  T
  20   -508.7679300  0.358882E+01  0.141E+00    0.00       1.0  T
  21   -509.2210322 -0.453102E+00  0.118E+00    0.03       1.0  T
  22   -509.3529842 -0.131952E+00  0.150E+00    0.06       1.0  T
  23   -509.4765250 -0.123541E+00  0.171E+00    0.01       1.0  T
  24   -513.1188002 -0.364228E+01  0.951E-01    0.02       1.0  T
  25   -512.8279730  0.290827E+00  0.110E+00    0.01       1.0  T
  26   -513.7043803 -0.876407E+00  0.981E-01    0.06       1.0  T
  27   -513.8956330 -0.191253E+00  0.862E-01    0.04       1.0  T
  28   -513.8990212 -0.338825E-02  0.864E-01    0.05       1.0  T
  29   -513.8785645  0.204567E-01  0.837E-01    0.08       1.0  T
  30   -513.9978356 -0.119271E+00  0.807E-01    0.08       1.0  T
  31   -514.2356494 -0.237814E+00  0.833E-01    0.03       1.0  T
  32   -514.1890846  0.465648E-01  0.779E-01    0.01       1.0  T
  33   -513.3402772  0.848807E+00  0.112E+00    0.05       1.0  T
  34   -514.5859223 -0.124565E+01  0.585E-01    0.03       1.0  T
  35   -514.6095109 -0.235886E-01  0.579E-01    0.03       1.0  T
  36   -514.7280807 -0.118570E+00  0.521E-01    0.04       1.0  T
  37   -514.4618767  0.266204E+00  0.664E-01    0.05       1.0  T
  38   -514.8524953 -0.390619E+00  0.518E-01    0.03       1.0  T
  39   -514.8118769  0.406184E-01  0.474E-01    0.03       1.0  T
  40   -514.8729355 -0.610586E-01  0.460E-01    0.03       1.0  T
  41   -514.8956259 -0.226904E-01  0.383E-01    0.01       1.0  T
  42   -514.9367077 -0.410818E-01  0.344E-01    0.02       1.0  T
  43   -514.9236914  0.130163E-01  0.379E-01    0.03       1.0  T
  44   -514.9229761  0.715270E-03  0.376E-01    0.03       1.0  T
  45   -514.9231289 -0.152792E-03  0.365E-01    0.04       1.0  T
  46   -514.9441037 -0.209747E-01  0.307E-01    0.03       1.0  T
  47   -514.9685238 -0.244201E-01  0.293E-01    0.01       1.0  T
  48   -514.9998383 -0.313146E-01  0.220E-01    0.02       1.0  T
  49   -515.0152691 -0.154307E-01  0.183E-01    0.02       1.0  T
  50   -515.0289123 -0.136432E-01  0.133E-01    0.02       1.0  T
  51   -515.0316377 -0.272549E-02  0.117E-01    0.01       1.0  T
  52   -515.0233714  0.826640E-02  0.132E-01    0.03       1.0  T
  53   -515.0326759 -0.930458E-02  0.105E-01    0.02       1.0  T
  54   -515.0326253  0.505829E-04  0.104E-01    0.02       1.0  T
  55   -515.0389152 -0.628988E-02  0.793E-02    0.01       1.0  T
  56   -515.0420546 -0.313937E-02  0.623E-02    0.01       1.0  T
  57   -515.0416640  0.390569E-03  0.606E-02    0.01       1.0  T
  58   -515.0427727 -0.110864E-02  0.538E-02    0.01       1.0  T
  59   -515.0432644 -0.491753E-03  0.509E-02    0.01       1.0  T
  60   -515.0445036 -0.123920E-02  0.398E-02    0.01       1.0  T
  61   -515.0451135 -0.609900E-03  0.316E-02    0.01       1.0  T
  62   -515.0454991 -0.385596E-03  0.250E-02    0.01       1.0  T
  63   -515.0457912 -0.292045E-03  0.167E-02    0.01       1.0  T
  64   -515.0459374 -0.146208E-03  0.107E-02    0.01       1.0  T
  65   -515.0460268 -0.894679E-04  0.621E-03    0.01       1.0  T
  66   -515.0460346 -0.781539E-05  0.499E-03    0.01       1.2  T
  67   -515.0460179  0.167420E-04  0.526E-03    0.01       1.1  T
  68   -515.0460543 -0.363648E-04  0.319E-03    0.01       1.8  T
  69   -515.0460597 -0.540368E-05  0.247E-03    0.01       2.4  T
  70   -515.0460633 -0.357877E-05  0.158E-03    0.01       3.7  T
  71   -515.0460647 -0.149281E-05  0.105E-03    0.01       5.6  T
  72   -515.0460650 -0.296695E-06  0.978E-04    0.01       6.0  T
  73   -515.0460650  0.699532E-07  0.950E-04    0.01       6.2  T
  74   -515.0460655 -0.542870E-06  0.627E-04    0.01       9.4  T
  75   -515.0460658 -0.260701E-06  0.512E-04    0.01      11.5  T
  76   -515.0460659 -0.107333E-06  0.428E-04    0.01      13.7  T
  77   -515.0460660 -0.117824E-06  0.237E-04    0.01      24.8  T
  78   -515.0460661 -0.532140E-07  0.171E-04    0.01      34.2  T
  79   -515.0460661 -0.638022E-08  0.121E-04    0.01      48.5  T

   *** convergence criteria satisfied after 79 iterations ***

         #    Occupation            Energy/Eh            Energy/eV
      -------------------------------------------------------------
         1        2.0000           -0.8097422             -22.0342
       ...           ...                  ...                  ...
       459        2.0000           -0.3966838             -10.7943
       460        2.0000           -0.3931114             -10.6971
       461        2.0000           -0.3880368             -10.5590
       462        2.0000           -0.3827995             -10.4165
       463        1.9537           -0.3745049             -10.1908
       464        1.9532           -0.3744954             -10.1905
       465        0.6704           -0.3702991             -10.0764 (HOMO)
       466        0.5534           -0.3700367             -10.0692 (LUMO)
       467        0.4463           -0.3697646             -10.0618
       468        0.4230           -0.3696996             -10.0600
       469        0.0000           -0.3596743              -9.7872
       470        0.0000           -0.3562471              -9.6940
       ...           ...                  ...                  ...
       988                          5.2675118             143.3363
      -------------------------------------------------------------
                  HL-Gap            0.0002624 Eh            0.0071 eV
             Fermi-level           -0.3709497 Eh          -10.0941 eV

 SCC (total)                   0 d,  0 h,  0 min, 31.694 sec
 SCC setup                      ...        0 min,  0.027 sec (  0.084%)
 Dispersion                     ...        0 min,  0.015 sec (  0.048%)
 classical contributions        ...        0 min,  0.003 sec (  0.010%)
 integral evaluation            ...        0 min,  0.385 sec (  1.215%)
 iterations                     ...        0 min, 30.549 sec ( 96.389%)
 molecular gradient             ...        0 min,  0.637 sec (  2.010%)
 printout                       ...        0 min,  0.077 sec (  0.243%)

         :::::::::::::::::::::::::::::::::::::::::::::::::::::
         ::                     SUMMARY                     ::
         :::::::::::::::::::::::::::::::::::::::::::::::::::::
         :: total energy            -501.038943833742 Eh    ::
         :: gradient norm              7.297628981513 Eh/a0 ::
         :: HOMO-LUMO gap              0.007141422511 eV    ::
         ::.................................................::
         :: SCC energy              -515.046066061656 Eh    ::
         :: -> electrostatic           0.428195541190 Eh    ::
         :: repulsion energy          14.232311280995 Eh    ::
         :: dispersion energy         -0.225189053080 Eh    ::
         :: halogen bond corr.         0.000000000000 Eh    ::
         :: add. restraining           0.000000000000 Eh    ::
         :: total charge               0.000000000000 e     ::
         :::::::::::::::::::::::::::::::::::::::::::::::::::::

      ----------------------------------------------------------- 
     |                   =====================                   |
     |                        A N C O P T                        |
     |                   =====================                   |
     |               Approximate Normal Coordinate               |
     |                Rational Function Optimizer                |
      ----------------------------------------------------------- 

          ...................................................
          :                      SETUP                      :
          :.................................................:
          :   optimization level            normal          :
          :   max. optcycles                   870          :
          :   ANC micro-cycles                  20          :
          :   degrees of freedom               864          :
          :.................................................:
          :   RF solver                   davidson          :
          :   write xtbopt.log                true          :
          :   linear?                        false          :
          :   energy convergence         0.5000000E-05 Eh   :
          :   grad. convergence          0.1000000E-02 Eh/α :
          :   maximium RF displ.         1.0000000          :
          :   Hlow (freq-cutoff)         0.1000000E-01      :
          :   Hmax (freq-cutoff)         5.0000000          :
          :   S6 in model hess.         20.0000000          :
          ...................................................

generating ANC from model Hessian ...
Using Lindh-Hessian (1995)
 Shifting diagonal of input Hessian by    1.0111843358340932E-002
 Lowest  eigenvalues of input Hessian
    0.010000    0.010011    0.010091    0.010095    0.010099    0.010100
    0.010102    0.010102    0.010105    0.010105    0.010106    0.010107
    0.010109    0.010111    0.000000    0.000000    0.000000    0.000000
 Highest eigenvalues
    4.354640    4.360678    4.361304    4.361305    4.361305    4.361305


........................................................................
.............................. CYCLE    1 ..............................
........................................................................
   1   -515.0460661 -0.515046E+03  0.734E-05    0.01       0.0  T
   2   -515.0460661  0.602370E-08  0.931E-05    0.01      63.1  T
   3   -515.0460659  0.153469E-06  0.295E-04    0.01      19.9  T
   4   -515.0460653  0.582221E-06  0.616E-04    0.01       9.5  T
   5   -515.0460659 -0.529864E-06  0.401E-04    0.01      14.6  T
   6   -515.0460661 -0.202204E-06  0.972E-05    0.01      60.4  T
     SCC iter.                  ...        0 min,  2.482 sec
     gradient                   ...        0 min,  0.705 sec
 * total energy  :  -501.0389438 Eh     change        0.1365493E-08 Eh
   gradient norm :     7.2976317 Eh/α   predicted     0.0000000E+00 (-100.00%)
   displ. norm   :     0.7771806 α      lambda       -0.5624655E+01
   maximum displ.:     0.4734565 α      in ANC's #864, #856, #861, ...

........................................................................
.............................. CYCLE    2 ..............................
........................................................................
   1   -515.2667479 -0.515267E+03  0.319E-01    0.11       0.0  T
   2   -514.2080935  0.105865E+01  0.997E-01    0.15       1.0  T
   3   -515.1374883 -0.929395E+00  0.385E-01    0.15       1.0  T
   4   -515.2313453 -0.938570E-01  0.259E-01    0.01       1.0  T
   5   -515.1147930  0.116552E+00  0.349E-01    0.01       1.0  T
   6   -514.9739684  0.140825E+00  0.437E-01    0.03       1.0  T
   7   -515.3324576 -0.358489E+00  0.995E-02    0.05       1.0  T
   8   -515.3295259  0.293171E-02  0.101E-01    0.04       1.0  T
   9   -515.3214173  0.810853E-02  0.115E-01    0.02       1.0  T
  10   -515.3414597 -0.200424E-01  0.452E-02    0.05       1.0  T
  11   -515.3397018  0.175786E-02  0.507E-02    0.05       1.0  T
  12   -515.3428028 -0.310095E-02  0.273E-02    0.05       1.0  T
  13   -515.3415995  0.120332E-02  0.346E-02    0.05       1.0  T
  14   -515.3434521 -0.185263E-02  0.136E-02    0.06       1.0  T
  15   -515.3430861  0.366041E-03  0.202E-02    0.05       1.0  T
  16   -515.3431705 -0.844226E-04  0.166E-02    0.05       1.0  T
  17   -515.3435965 -0.426015E-03  0.801E-03    0.06       1.0  T
  18   -515.3435796  0.169056E-04  0.822E-03    0.05       1.0  T
  19   -515.3436612 -0.816509E-04  0.330E-03    0.05       1.8  T
  20   -515.3436724 -0.111676E-04  0.189E-03    0.05       3.1  T
  21   -515.3436716  0.815044E-06  0.199E-03    0.05       3.0  T
  22   -515.3436751 -0.349530E-05  0.107E-03    0.05       5.5  T
  23   -515.3436763 -0.121468E-05  0.402E-04    0.05      14.6  T
  24   -515.3436764 -0.842542E-07  0.281E-04    0.05      20.9  T
  25   -515.3436764 -0.462152E-07  0.189E-04    0.05      31.1  T
  26   -515.3436765 -0.258240E-07  0.118E-04    0.05      49.8  T
     SCC iter.                  ...        0 min, 10.704 sec
     gradient                   ...        0 min,  0.698 sec
 * total energy  :  -504.4002941 Eh     change       -0.3361350E+01 Eh
   gradient norm :     2.2693416 Eh/α   predicted    -0.4511399E+01 (  34.21%)
   displ. norm   :     0.5688860 α      lambda       -0.1087855E+01
   maximum displ.:     0.2901942 α      in ANC's #687, #699, #760, ...

........................................................................
.............................. CYCLE    3 ..............................
........................................................................
   1   -515.2940285 -0.515294E+03  0.103E-01    0.04       0.0  T
   2   -515.2360141  0.580144E-01  0.207E-01    0.13       1.0  T
   3   -515.0454077  0.190606E+00  0.439E-01    0.00       1.0  T
   4   -515.2848556 -0.239448E+00  0.960E-02    0.01       1.0  T
   5   -515.0424214  0.242434E+00  0.396E-01    0.05       1.0  T
   6   -515.2759135 -0.233492E+00  0.112E-01    0.08       1.0  T
   7   -515.2809382 -0.502475E-02  0.999E-02    0.06       1.0  T
   8   -515.2965097 -0.155715E-01  0.454E-02    0.03       1.0  T
   9   -515.2928384  0.367129E-02  0.637E-02    0.03       1.0  T
  10   -515.2993322 -0.649376E-02  0.200E-02    0.04       1.0  T
  11   -515.2976496  0.168263E-02  0.360E-02    0.04       1.0  T
  12   -515.2994960 -0.184641E-02  0.132E-02    0.05       1.0  T
  13   -515.2996709 -0.174912E-03  0.910E-03    0.05       1.0  T
  14   -515.2997366 -0.657331E-04  0.655E-03    0.05       1.0  T
  15   -515.2998066 -0.700162E-04  0.211E-03    0.05       2.8  T
  16   -515.2998095 -0.282775E-05  0.143E-03    0.05       4.1  T
  17   -515.2998085  0.100220E-05  0.160E-03    0.05       3.7  T
  18   -515.2998104 -0.192459E-05  0.114E-03    0.05       5.1  T
  19   -515.2998119 -0.152634E-05  0.554E-04    0.05      10.6  T
  20   -515.2998123 -0.404902E-06  0.150E-04    0.05      39.3  T
  21   -515.2998123 -0.407920E-08  0.126E-04    0.05      46.6  T
     SCC iter.                  ...        0 min,  8.629 sec
     gradient                   ...        0 min,  0.672 sec
 * total energy  :  -505.2515544 Eh     change       -0.8512604E+00 Eh
   gradient norm :     1.3748765 Eh/α   predicted    -0.7199613E+00 ( -15.42%)
   displ. norm   :     0.5772821 α      lambda       -0.6841738E+00
   maximum displ.:     0.1879693 α      in ANC's #687, #864, #699, ...

........................................................................
.............................. CYCLE    4 ..............................
........................................................................
   1   -515.2975960 -0.515298E+03  0.163E-01    0.10       0.0  T
   2   -514.3981787  0.899417E+00  0.863E-01    0.19       1.0  T
   3   -515.2082016 -0.810023E+00  0.308E-01    0.19       1.0  T
   4   -515.2952952 -0.870936E-01  0.139E-01    0.01       1.0  T
   5   -515.3143217 -0.190265E-01  0.695E-02    0.04       1.0  T
   6   -515.1032260  0.211096E+00  0.377E-01    0.05       1.0  T
   7   -515.3182511 -0.215025E+00  0.395E-02    0.07       1.0  T
   8   -515.3131857  0.506533E-02  0.726E-02    0.03       1.0  T
   9   -515.3198010 -0.661523E-02  0.206E-02    0.06       1.0  T
  10   -515.3206269 -0.825955E-03  0.762E-03    0.05       1.0  T
  11   -515.3202938  0.333148E-03  0.152E-02    0.05       1.0  T
  12   -515.3205881 -0.294365E-03  0.857E-03    0.06       1.0  T
  13   -515.3206475 -0.593972E-04  0.476E-03    0.06       1.2  T
  14   -515.3206765 -0.289598E-04  0.184E-03    0.05       3.2  T
  15   -515.3206785 -0.203016E-05  0.168E-03    0.05       3.5  T
  16   -515.3206824 -0.389578E-05  0.715E-04    0.05       8.2  T
  17   -515.3206824  0.523073E-09  0.618E-04    0.05       9.5  T
  18   -515.3206829 -0.510287E-06  0.814E-05    0.05      72.2  T
  19   -515.3206829  0.440753E-08  0.101E-04    0.05      57.9  T
     SCC iter.                  ...        0 min,  6.574 sec
     gradient                   ...        0 min,  0.571 sec
 * total energy  :  -505.7468584 Eh     change       -0.4953040E+00 Eh
   gradient norm :     0.6230352 Eh/α   predicted    -0.4560900E+00 (  -7.92%)
   displ. norm   :     0.5895281 α      lambda       -0.2806273E+00
   maximum displ.:     0.1526514 α      in ANC's #217, #687, #560, ...

........................................................................
.............................. CYCLE    5 ..............................
........................................................................
   1   -515.3335284 -0.515334E+03  0.198E-01    0.18       0.0  T
   2   -514.3124455  0.102108E+01  0.963E-01    0.18       1.0  T
   3   -515.1538955 -0.841450E+00  0.496E-01    0.22       1.0  T
   4   -515.3245832 -0.170688E+00  0.205E-01    0.00       1.0  T
   5   -515.3610234 -0.364402E-01  0.978E-02    0.08       1.0  T
   6   -515.3247750  0.362485E-01  0.183E-01    0.02       1.0  T
   7   -515.3621373 -0.373623E-01  0.913E-02    0.03       1.0  T
   8   -515.3690276 -0.689025E-02  0.582E-02    0.07       1.0  T
   9   -515.3640127  0.501488E-02  0.817E-02    0.03       1.0  T
  10   -515.3732009 -0.918821E-02  0.276E-02    0.06       1.0  T
  11   -515.3736841 -0.483216E-03  0.221E-02    0.07       1.0  T
  12   -515.3739904 -0.306248E-03  0.129E-02    0.07       1.0  T
  13   -515.3741968 -0.206419E-03  0.558E-03    0.07       1.1  T
  14   -515.3742483 -0.514869E-04  0.109E-03    0.07       5.4  T
  15   -515.3742499 -0.166667E-05  0.524E-04    0.07      11.2  T
  16   -515.3742487  0.123408E-05  0.111E-03    0.07       5.3  T
  17   -515.3742503 -0.155691E-05  0.282E-04    0.07      20.8  T
  18   -515.3742503 -0.489108E-07  0.209E-04    0.07      28.1  T
  19   -515.3742504 -0.502685E-07  0.195E-05    0.07     301.5  T
  20   -515.3742504  0.657678E-09  0.265E-05    0.07     221.9  T
     SCC iter.                  ...        0 min,  7.016 sec
     gradient                   ...        0 min,  0.621 sec
 * total energy  :  -505.9505968 Eh     change       -0.2037384E+00 Eh
   gradient norm :     0.2878456 Eh/α   predicted    -0.1890789E+00 (  -7.20%)
   displ. norm   :     0.6646852 α      lambda       -0.1233820E+00
   maximum displ.:     0.2650883 α      in ANC's #217, #231, #138, ...

........................................................................
.............................. CYCLE    6 ..............................
........................................................................
   1   -515.4002952 -0.515400E+03  0.171E-01    0.22       0.0  T
   2   -514.3723888  0.102791E+01  0.951E-01    0.17       1.0  T
   3   -515.2618941 -0.889505E+00  0.446E-01    0.25       1.0  T
   4   -515.4279618 -0.166068E+00  0.712E-02    0.07       1.0  T
   5   -515.4108844  0.170774E-01  0.122E-01    0.03       1.0  T
   6   -515.3380493  0.728351E-01  0.250E-01    0.00       1.0  T
   7   -515.4181094 -0.800600E-01  0.113E-01    0.14       1.0  T
   8   -515.4226988 -0.458938E-02  0.852E-02    0.13       1.0  T
   9   -515.4263620 -0.366327E-02  0.582E-02    0.11       1.0  T
  10   -515.4302206 -0.385859E-02  0.151E-02    0.09       1.0  T
  11   -515.4303938 -0.173158E-03  0.961E-03    0.08       1.0  T
  12   -515.4304375 -0.437042E-04  0.793E-03    0.08       1.0  T
  13   -515.4305228 -0.853240E-04  0.560E-03    0.09       1.0  T
  14   -515.4305429 -0.201480E-04  0.323E-03    0.08       1.8  T
  15   -515.4305565 -0.135471E-04  0.108E-03    0.08       5.4  T
  16   -515.4305582 -0.170614E-05  0.249E-04    0.08      23.5  T
  17   -515.4305580  0.187996E-06  0.420E-04    0.08      14.0  T
  18   -515.4305583 -0.248619E-06  0.140E-04    0.08      42.0  T
  19   -515.4305583 -0.244180E-07  0.652E-05    0.08      90.1  T
     SCC iter.                  ...        0 min,  6.534 sec
     gradient                   ...        0 min,  0.572 sec
 * total energy  :  -506.0444250 Eh     change       -0.9382818E-01 Eh
   gradient norm :     0.1588403 Eh/α   predicted    -0.8894711E-01 (  -5.20%)
   displ. norm   :     0.7203266 α      lambda       -0.6892155E-01
   maximum displ.:     0.3155539 α      in ANC's #217, #138, #231, ...

........................................................................
.............................. CYCLE    7 ..............................
........................................................................
   1   -515.4336932 -0.515434E+03  0.116E-01    0.23       0.0  T
   2   -514.3908580  0.104284E+01  0.920E-01    0.16       1.0  T
   3   -515.4117719 -0.102091E+01  0.201E-01    0.21       1.0  T
   4   -515.4463407 -0.345688E-01  0.399E-02    0.13       1.0  T
   5   -515.4478717 -0.153095E-02  0.292E-02    0.09       1.0  T
   6   -515.4049695  0.429021E-01  0.169E-01    0.04       1.0  T
   7   -515.4465690 -0.415995E-01  0.400E-02    0.08       1.0  T
   8   -515.4479886 -0.141963E-02  0.263E-02    0.10       1.0  T
   9   -515.4482025 -0.213879E-03  0.209E-02    0.10       1.0  T
  10   -515.4484761 -0.273638E-03  0.101E-02    0.11       1.0  T
  11   -515.4485156 -0.395032E-04  0.558E-03    0.10       1.1  T
  12   -515.4485363 -0.206288E-04  0.358E-03    0.10       1.6  T
  13   -515.4485586 -0.223770E-04  0.552E-04    0.10      10.6  T
  14   -515.4485590 -0.339309E-06  0.325E-04    0.10      18.1  T
  15   -515.4485590 -0.732928E-07  0.147E-04    0.10      39.8  T
  16   -515.4485591 -0.114146E-07  0.723E-05    0.10      81.2  T
     SCC iter.                  ...        0 min,  5.873 sec
     gradient                   ...        0 min,  0.650 sec
 * total energy  :  -506.1006880 Eh     change       -0.5626298E-01 Eh
   gradient norm :     0.1099603 Eh/α   predicted    -0.5234147E-01 (  -6.97%)
   displ. norm   :     0.7726928 α      lambda       -0.4882379E-01
   maximum displ.:     0.3179884 α      in ANC's #217, #138, #231, ...

........................................................................
.............................. CYCLE    8 ..............................
........................................................................
   1   -515.4277763 -0.515428E+03  0.772E-02    0.26       0.0  T
   2   -514.3641171  0.106366E+01  0.893E-01    0.15       1.0  T
   3   -515.4304089 -0.106629E+01  0.597E-02    0.21       1.0  T
   4   -515.4325934 -0.218443E-02  0.401E-02    0.18       1.0  T
   5   -515.4344809 -0.188755E-02  0.310E-02    0.14       1.0  T
   6   -515.4343053  0.175570E-03  0.276E-02    0.11       1.0  T
   7   -515.4322181  0.208726E-02  0.460E-02    0.09       1.0  T
   8   -515.4319716  0.246513E-03  0.458E-02    0.09       1.0  T
   9   -515.4346527 -0.268112E-02  0.188E-02    0.11       1.0  T
  10   -515.4349936 -0.340931E-03  0.116E-02    0.11       1.0  T
  11   -515.4351510 -0.157369E-03  0.571E-03    0.12       1.0  T
  12   -515.4351903 -0.393432E-04  0.293E-03    0.12       2.0  T
  13   -515.4352000 -0.963236E-05  0.148E-03    0.12       4.0  T
  14   -515.4352028 -0.286360E-05  0.677E-04    0.12       8.7  T
  15   -515.4352034 -0.583507E-06  0.277E-04    0.12      21.2  T
  16   -515.4352035 -0.110136E-06  0.891E-05    0.12      65.9  T
  17   -515.4352035 -0.157900E-08  0.805E-05    0.12      73.0  T
     SCC iter.                  ...        0 min,  6.258 sec
     gradient                   ...        0 min,  0.620 sec
 * total energy  :  -506.1423043 Eh     change       -0.4161629E-01 Eh
   gradient norm :     0.0777911 Eh/α   predicted    -0.3898720E-01 (  -6.32%)
   displ. norm   :     0.8331873 α      lambda       -0.3906369E-01
   maximum displ.:     0.2976057 α      in ANC's #138, #217, #35, ...

........................................................................
.............................. CYCLE    9 ..............................
........................................................................
   1   -515.3968214 -0.515397E+03  0.664E-02    0.34       0.0  T
   2   -515.0270913  0.369730E+00  0.502E-01    0.00       1.0  T
   3   -515.3915275 -0.364436E+00  0.124E-01    0.31       1.0  T
   4   -515.3991296 -0.760207E-02  0.475E-02    0.29       1.0  T
   5   -515.4006490 -0.151945E-02  0.311E-02    0.22       1.0  T
   6   -515.4016228 -0.973765E-03  0.133E-02    0.16       1.0  T
   7   -515.3956730  0.594978E-02  0.628E-02    0.10       1.0  T
   8   -515.3963832 -0.710211E-03  0.587E-02    0.10       1.0  T
   9   -515.4012949 -0.491165E-02  0.169E-02    0.14       1.0  T
  10   -515.4015446 -0.249752E-03  0.979E-03    0.15       1.0  T
  11   -515.4016193 -0.746992E-04  0.587E-03    0.15       1.0  T
  12   -515.4016666 -0.472943E-04  0.170E-03    0.16       3.5  T
  13   -515.4016711 -0.445380E-05  0.342E-04    0.16      17.2  T
  14   -515.4016712 -0.104146E-06  0.139E-04    0.16      42.3  T
  15   -515.4016712 -0.197593E-07  0.466E-05    0.16     125.9  T
     SCC iter.                  ...        0 min,  5.199 sec
     gradient                   ...        0 min,  0.628 sec
 * total energy  :  -506.1778903 Eh     change       -0.3558601E-01 Eh
   gradient norm :     0.0618711 Eh/α   predicted    -0.3309089E-01 (  -7.01%)
   displ. norm   :     0.9199311 α      lambda       -0.3818363E-01
   maximum displ.:     0.3179298 α      in ANC's #35, #80, #8, ...

........................................................................
.............................. CYCLE   10 ..............................
........................................................................
   1   -515.3539475 -0.515354E+03  0.687E-02    0.57       0.0  T
   2   -515.3495290  0.441851E-02  0.142E-01    0.34       1.0  T
   3   -515.3573488 -0.781975E-02  0.402E-02    0.35       1.0  T
   4   -515.3573164  0.323198E-04  0.282E-02    0.38       1.0  T
   5   -515.3576217 -0.305284E-03  0.113E-02    0.35       1.0  T
   6   -515.3576749 -0.532128E-04  0.245E-03    0.35       2.4  T
   7   -515.3576759 -0.972077E-06  0.144E-03    0.35       4.1  T
   8   -515.3576768 -0.851067E-06  0.836E-04    0.35       7.0  T
   9   -515.3576771 -0.374102E-06  0.268E-04    0.35      21.9  T
  10   -515.3576772 -0.318817E-07  0.995E-05    0.35      59.0  T
  11   -515.3576772 -0.609521E-08  0.518E-05    0.35     113.4  T
     SCC iter.                  ...        0 min,  3.945 sec
     gradient                   ...        0 min,  0.637 sec
 * total energy  :  -506.2164908 Eh     change       -0.3860055E-01 Eh
   gradient norm :     0.0636665 Eh/α   predicted    -0.3524872E-01 (  -8.68%)
   displ. norm   :     0.9207892 α      lambda       -0.4076495E-01
   maximum displ.:     0.3659439 α      in ANC's #80, #8, #35, ...

........................................................................
.............................. CYCLE   11 ..............................
........................................................................
   1   -515.3152349 -0.515315E+03  0.573E-02    0.74       0.0  T
   2   -515.3147443  0.490591E-03  0.785E-02    0.75       1.0  T
   3   -515.3171144 -0.237017E-02  0.192E-02    0.75       1.0  T
   4   -515.3170699  0.445675E-04  0.987E-03    0.75       1.0  T
   5   -515.3171273 -0.574068E-04  0.667E-03    0.75       1.0  T
   6   -515.3171491 -0.218481E-04  0.131E-03    0.75       4.5  T
   7   -515.3171497 -0.611462E-06  0.490E-04    0.75      12.0  T
   8   -515.3171498 -0.867075E-07  0.249E-04    0.75      23.6  T
   9   -515.3171498 -0.173762E-07  0.109E-04    0.75      53.8  T
  10   -515.3171498 -0.427474E-08  0.464E-05    0.75     126.7  T
     SCC iter.                  ...        0 min,  3.479 sec
     gradient                   ...        0 min,  0.579 sec
 * total energy  :  -506.2600494 Eh     change       -0.4355856E-01 Eh
   gradient norm :     0.0806544 Eh/α   predicted    -0.3766382E-01 ( -13.53%)
   displ. norm   :     0.8997983 α      lambda       -0.4764464E-01
   maximum displ.:     0.3863761 α      in ANC's #80, #8, #35, ...

........................................................................
.............................. CYCLE   12 ..............................
........................................................................
   1   -515.2855527 -0.515286E+03  0.521E-02    0.76       0.0  T
   2   -515.2861436 -0.590962E-03  0.523E-02    0.76       1.0  T
   3   -515.2867771 -0.633509E-03  0.191E-02    0.76       1.0  T
   4   -515.2867149  0.622829E-04  0.949E-03    0.76       1.0  T
   5   -515.2867682 -0.533582E-04  0.581E-03    0.76       1.0  T
   6   -515.2867900 -0.218121E-04  0.122E-03    0.76       4.8  T
   7   -515.2867908 -0.765799E-06  0.548E-04    0.76      10.7  T
   8   -515.2867910 -0.167255E-06  0.259E-04    0.76      22.7  T
   9   -515.2867910 -0.231038E-07  0.123E-04    0.76      47.8  T
  10   -515.2867910 -0.691409E-08  0.481E-05    0.76     122.0  T
     SCC iter.                  ...        0 min,  3.563 sec
     gradient                   ...        0 min,  0.628 sec
 * total energy  :  -506.3107062 Eh     change       -0.5065685E-01 Eh
   gradient norm :     0.0936806 Eh/α   predicted    -0.4310977E-01 ( -14.90%)
   displ. norm   :     0.8872789 α      lambda       -0.5371865E-01
   maximum displ.:     0.3948940 α      in ANC's #80, #8, #35, ...

........................................................................
.............................. CYCLE   13 ..............................
........................................................................
   1   -515.2679017 -0.515268E+03  0.485E-02    0.77       0.0  T
   2   -515.2683584 -0.456685E-03  0.464E-02    0.77       1.0  T
   3   -515.2686243 -0.265932E-03  0.215E-02    0.77       1.0  T
   4   -515.2685485  0.757928E-04  0.121E-02    0.77       1.0  T
   5   -515.2686167 -0.681589E-04  0.396E-03    0.77       1.5  T
   6   -515.2686309 -0.142460E-04  0.129E-03    0.77       4.6  T
   7   -515.2686322 -0.123609E-05  0.486E-04    0.77      12.1  T
   8   -515.2686323 -0.140411E-06  0.163E-04    0.77      35.9  T
   9   -515.2686323 -0.103576E-07  0.811E-05    0.77      72.4  T
     SCC iter.                  ...        0 min,  3.261 sec
     gradient                   ...        0 min,  0.657 sec
 * total energy  :  -506.3648414 Eh     change       -0.5413513E-01 Eh
   gradient norm :     0.0951783 Eh/α   predicted    -0.4800476E-01 ( -11.32%)
   displ. norm   :     0.9422902 α      lambda       -0.6556374E-01
   maximum displ.:     0.4181670 α      in ANC's #80, #8, #35, ...

........................................................................
.............................. CYCLE   14 ..............................
........................................................................
   1   -515.2519935 -0.515252E+03  0.650E-02    0.74       0.0  T
   2   -515.2524822 -0.488631E-03  0.678E-02    0.74       1.0  T
   3   -515.2530563 -0.574138E-03  0.344E-02    0.74       1.0  T
   4   -515.2526812  0.375125E-03  0.244E-02    0.74       1.0  T
   5   -515.2530504 -0.369226E-03  0.528E-03    0.74       1.1  T
   6   -515.2530726 -0.221809E-04  0.107E-03    0.74       5.5  T
   7   -515.2530729 -0.309163E-06  0.441E-04    0.74      13.3  T
   8   -515.2530730 -0.112425E-06  0.177E-04    0.74      33.3  T
   9   -515.2530730 -0.176514E-07  0.889E-05    0.74      66.1  T
     SCC iter.                  ...        0 min,  3.241 sec
     gradient                   ...        0 min,  0.588 sec
 * total energy  :  -506.4115688 Eh     change       -0.4672741E-01 Eh
   gradient norm :     0.0784751 Eh/α   predicted    -0.6188946E-01 (  32.45%)
   displ. norm   :     0.7994649 α      lambda       -0.3462607E-01
   maximum displ.:     0.4027048 α      in ANC's #8, #35, #64, ...

........................................................................
.............................. CYCLE   15 ..............................
........................................................................
   1   -515.2873982 -0.515287E+03  0.206E-02    0.77       0.0  T
   2   -515.2874124 -0.141575E-04  0.182E-02    0.77       1.0  T
   3   -515.2875192 -0.106806E-03  0.697E-03    0.77       1.0  T
   4   -515.2875010  0.181811E-04  0.693E-03    0.77       1.0  T
   5   -515.2875287 -0.276267E-04  0.160E-03    0.77       3.7  T
   6   -515.2875294 -0.749992E-06  0.401E-04    0.77      14.6  T
   7   -515.2875295 -0.580259E-07  0.236E-04    0.77      24.9  T
   8   -515.2875295 -0.384289E-07  0.970E-05    0.77      60.6  T
   9   -515.2875295 -0.734747E-08  0.244E-05    0.77     240.9  T
     SCC iter.                  ...        0 min,  3.222 sec
     gradient                   ...        0 min,  0.629 sec
 * total energy  :  -506.4398062 Eh     change       -0.2823743E-01 Eh
   gradient norm :     0.0834990 Eh/α   predicted    -0.2837865E-01 (   0.50%)
   displ. norm   :     0.8105649 α      lambda       -0.4142007E-01
   maximum displ.:     0.3457624 α      in ANC's #8, #35, #64, ...

........................................................................
.............................. CYCLE   16 ..............................
........................................................................
   1   -515.3561258 -0.515356E+03  0.348E-02    0.74       0.0  T
   2   -515.3563717 -0.245868E-03  0.285E-02    0.74       1.0  T
   3   -515.3565648 -0.193081E-03  0.131E-02    0.74       1.0  T
   4   -515.3564900  0.747583E-04  0.107E-02    0.74       1.0  T
   5   -515.3565709 -0.808789E-04  0.383E-03    0.74       1.5  T
   6   -515.3565754 -0.450268E-05  0.579E-04    0.74      10.1  T
   7   -515.3565756 -0.235354E-06  0.194E-04    0.74      30.2  T
   8   -515.3565756 -0.168484E-07  0.865E-05    0.74      67.9  T
     SCC iter.                  ...        0 min,  2.825 sec
     gradient                   ...        0 min,  0.596 sec
 * total energy  :  -506.4671410 Eh     change       -0.2733481E-01 Eh
   gradient norm :     0.0862231 Eh/α   predicted    -0.3431685E-01 (  25.54%)
   displ. norm   :     0.7984773 α      lambda       -0.3009027E-01
   maximum displ.:     0.4481061 α      in ANC's #8, #35, #64, ...

........................................................................
.............................. CYCLE   17 ..............................
........................................................................
   1   -515.3890828 -0.515389E+03  0.253E-02    0.72       0.0  T
   2   -515.3891035 -0.206939E-04  0.243E-02    0.72       1.0  T
   3   -515.3892373 -0.133823E-03  0.103E-02    0.72       1.0  T
   4   -515.3891734  0.638604E-04  0.992E-03    0.72       1.0  T
   5   -515.3892411 -0.676444E-04  0.167E-03    0.72       3.5  T
   6   -515.3892426 -0.154067E-05  0.273E-04    0.72      21.5  T
   7   -515.3892426 -0.326058E-07  0.128E-04    0.72      45.8  T
   8   -515.3892427 -0.127884E-07  0.556E-05    0.72     105.7  T
     SCC iter.                  ...        0 min,  2.631 sec
     gradient                   ...        0 min,  0.576 sec
 * total energy  :  -506.4921485 Eh     change       -0.2500746E-01 Eh
   gradient norm :     0.0532423 Eh/α   predicted    -0.2463741E-01 (  -1.48%)
   displ. norm   :     0.8539718 α      lambda       -0.2377116E-01
   maximum displ.:     0.4842589 α      in ANC's #8, #35, #64, ...

........................................................................
.............................. CYCLE   18 ..............................
........................................................................
   1   -515.4404722 -0.515440E+03  0.136E-02    0.72       0.0  T
   2   -515.4404865 -0.142683E-04  0.982E-03    0.72       1.0  T
   3   -515.4405040 -0.174922E-04  0.524E-03    0.72       1.1  T
   4   -515.4405055 -0.151528E-05  0.415E-03    0.72       1.4  T
   5   -515.4405167 -0.111970E-04  0.824E-04    0.72       7.1  T
   6   -515.4405171 -0.384511E-06  0.316E-04    0.72      18.6  T
   7   -515.4405171 -0.825191E-07  0.130E-04    0.72      45.2  T
   8   -515.4405171 -0.735656E-08  0.663E-05    0.72      88.5  T
     SCC iter.                  ...        0 min,  2.773 sec
     gradient                   ...        0 min,  0.577 sec
 * total energy  :  -506.5134799 Eh     change       -0.2133144E-01 Eh
   gradient norm :     0.0386399 Eh/α   predicted    -0.2055336E-01 (  -3.65%)
   displ. norm   :     0.8837375 α      lambda       -0.2077584E-01
   maximum displ.:     0.4900454 α      in ANC's #8, #35, #64, ...

........................................................................
.............................. CYCLE   19 ..............................
........................................................................
   1   -515.4875601 -0.515488E+03  0.119E-02    0.72       0.0  T
   2   -515.4875741 -0.140187E-04  0.866E-03    0.72       1.0  T
   3   -515.4875884 -0.142557E-04  0.474E-03    0.72       1.2  T
   4   -515.4875877  0.665852E-06  0.405E-03    0.72       1.4  T
   5   -515.4875993 -0.115420E-04  0.944E-04    0.72       6.2  T
   6   -515.4875997 -0.407645E-06  0.247E-04    0.72      23.8  T
   7   -515.4875997 -0.402197E-07  0.111E-04    0.72      52.7  T
   8   -515.4875997 -0.446676E-08  0.567E-05    0.72     103.6  T
     SCC iter.                  ...        0 min,  2.696 sec
     gradient                   ...        0 min,  0.583 sec
 * total energy  :  -506.5310425 Eh     change       -0.1756255E-01 Eh
   gradient norm :     0.0415694 Eh/α   predicted    -0.1850081E-01 (   5.34%)
   displ. norm   :     0.9193351 α      lambda       -0.2035885E-01
   maximum displ.:     0.5043317 α      in ANC's #8, #35, #64, ...

........................................................................
.............................. CYCLE   20 ..............................
........................................................................
   1   -515.5258992 -0.515526E+03  0.114E-02    0.71       0.0  T
   2   -515.5258935  0.569980E-05  0.119E-02    0.71       1.0  T
   3   -515.5259610 -0.675216E-04  0.467E-03    0.71       1.3  T
   4   -515.5259513  0.966570E-05  0.426E-03    0.71       1.4  T
   5   -515.5259624 -0.110888E-04  0.975E-04    0.71       6.0  T
   6   -515.5259628 -0.413118E-06  0.322E-04    0.71      18.2  T
   7   -515.5259629 -0.825992E-07  0.124E-04    0.71      47.3  T
   8   -515.5259629 -0.893374E-08  0.587E-05    0.71     100.0  T
     SCC iter.                  ...        0 min,  2.754 sec
     gradient                   ...        0 min,  0.652 sec
 * total energy  :  -506.5446699 Eh     change       -0.1362745E-01 Eh
   gradient norm :     0.0555799 Eh/α   predicted    -0.1878285E-01 (  37.83%)
   displ. norm   :     0.7797912 α      lambda       -0.1554663E-01
   maximum displ.:     0.4538984 α      in ANC's #8, #35, #64, ...
 * RMSD in coord.:     0.6581155 α      energy gain  -0.5505726E+01 Eh

generating ANC from model Hessian ...
Using Lindh-Hessian (1995)
 Shifting diagonal of input Hessian by    1.0004082459966989E-002
 Lowest  eigenvalues of input Hessian
    0.010000    0.010000    0.000000    0.000000    0.000000    0.000000
    0.000000    0.000000    0.010004    0.010005    0.010005    0.010007
    0.010007    0.010009    0.010010    0.010011    0.010012    0.010014
 Highest eigenvalues
    2.809338    2.812623    3.025998    3.026025    3.050881    3.050881


........................................................................
.............................. CYCLE   21 ..............................
........................................................................
   1   -515.5681471 -0.515568E+03  0.136E-02    0.71       0.0  T
   2   -515.5681482 -0.112154E-05  0.122E-02    0.71       1.0  T
   3   -515.5681880 -0.398526E-04  0.525E-03    0.71       1.1  T
   4   -515.5681728  0.152110E-04  0.475E-03    0.71       1.2  T
   5   -515.5681910 -0.181193E-04  0.665E-04    0.71       8.8  T
   6   -515.5681913 -0.345060E-06  0.168E-04    0.71      34.9  T
   7   -515.5681913 -0.120012E-07  0.113E-04    0.71      52.1  T
     SCC iter.                  ...        0 min,  2.673 sec
     gradient                   ...        0 min,  0.610 sec
 * total energy  :  -506.5575431 Eh     change       -0.1287323E-01 Eh
   gradient norm :     0.0425759 Eh/α   predicted     0.0000000E+00 (-100.00%)
   displ. norm   :     0.5962930 α      lambda       -0.9379411E-02
   maximum displ.:     0.3873609 α      in ANC's #76, #52, #95, ...

........................................................................
.............................. CYCLE   22 ..............................
........................................................................
   1   -515.5899969 -0.515590E+03  0.792E-03    0.72       0.0  T
   2   -515.5899929  0.392086E-05  0.819E-03    0.72       1.0  T
   3   -515.5900193 -0.263406E-04  0.311E-03    0.72       1.9  T
   4   -515.5900106  0.866144E-05  0.337E-03    0.72       1.7  T
   5   -515.5900198 -0.921700E-05  0.650E-04    0.72       9.0  T
   6   -515.5900201 -0.221342E-06  0.149E-04    0.72      39.5  T
   7   -515.5900201 -0.104695E-07  0.576E-05    0.72     101.9  T
     SCC iter.                  ...        0 min,  2.457 sec
     gradient                   ...        0 min,  0.594 sec
 * total energy  :  -506.5660125 Eh     change       -0.8469350E-02 Eh
   gradient norm :     0.0225611 Eh/α   predicted    -0.6361495E-02 ( -24.89%)
   displ. norm   :     0.8504705 α      lambda       -0.1104418E-01
   maximum displ.:     0.5543449 α      in ANC's #76, #52, #95, ...

........................................................................
.............................. CYCLE   23 ..............................
........................................................................
   1   -515.6159399 -0.515616E+03  0.104E-02    0.72       0.0  T
   2   -515.6159326  0.734735E-05  0.106E-02    0.72       1.0  T
   3   -515.6159824 -0.498107E-04  0.372E-03    0.72       1.6  T
   4   -515.6159695  0.129184E-04  0.421E-03    0.72       1.4  T
   5   -515.6159837 -0.141793E-04  0.841E-04    0.72       7.0  T
   6   -515.6159840 -0.345192E-06  0.216E-04    0.72      27.2  T
   7   -515.6159840 -0.214434E-07  0.833E-05    0.72      70.5  T
   8   -515.6159840 -0.331374E-08  0.441E-05    0.72     133.2  T
     SCC iter.                  ...        0 min,  3.042 sec
     gradient                   ...        0 min,  0.652 sec
 * total energy  :  -506.5750927 Eh     change       -0.9080165E-02 Eh
   gradient norm :     0.0206452 Eh/α   predicted    -0.9516222E-02 (   4.80%)
   displ. norm   :     0.8558442 α      lambda       -0.9740912E-02
   maximum displ.:     0.5512222 α      in ANC's #52, #76, #95, ...

........................................................................
.............................. CYCLE   24 ..............................
........................................................................
   1   -515.6397705 -0.515640E+03  0.787E-03    0.72       0.0  T
   2   -515.6397646  0.590144E-05  0.738E-03    0.72       1.0  T
   3   -515.6397943 -0.297129E-04  0.259E-03    0.72       2.3  T
   4   -515.6397905  0.382150E-05  0.275E-03    0.72       2.1  T
   5   -515.6397960 -0.549784E-05  0.578E-04    0.72      10.2  T
   6   -515.6397962 -0.187576E-06  0.210E-04    0.72      28.0  T
   7   -515.6397962 -0.252360E-07  0.819E-05    0.72      71.7  T
   8   -515.6397962 -0.312639E-08  0.413E-05    0.72     142.2  T
     SCC iter.                  ...        0 min,  2.880 sec
     gradient                   ...        0 min,  0.630 sec
 * total energy  :  -506.5824089 Eh     change       -0.7316253E-02 Eh
   gradient norm :     0.0318432 Eh/α   predicted    -0.8437924E-02 (  15.33%)
   displ. norm   :     0.7791168 α      lambda       -0.7503496E-02
   maximum displ.:     0.5338319 α      in ANC's #52, #76, #95, ...

........................................................................
.............................. CYCLE   25 ..............................
........................................................................
   1   -515.6615104 -0.515662E+03  0.640E-03    0.72       0.0  T
   2   -515.6615099  0.502145E-06  0.499E-03    0.72       1.2  T
   3   -515.6615212 -0.113021E-04  0.248E-03    0.72       2.4  T
   4   -515.6615226 -0.141016E-05  0.184E-03    0.72       3.2  T
   5   -515.6615245 -0.187390E-05  0.532E-04    0.72      11.0  T
   6   -515.6615247 -0.194023E-06  0.215E-04    0.72      27.3  T
   7   -515.6615247 -0.342128E-07  0.780E-05    0.72      75.3  T
   8   -515.6615247 -0.255034E-08  0.377E-05    0.72     155.6  T
     SCC iter.                  ...        0 min,  3.121 sec
     gradient                   ...        0 min,  0.630 sec
 * total energy  :  -506.5888846 Eh     change       -0.6475700E-02 Eh
   gradient norm :     0.0255916 Eh/α   predicted    -0.6029152E-02 (  -6.90%)
   displ. norm   :     0.8095173 α      lambda       -0.6845851E-02
   maximum displ.:     0.5742186 α      in ANC's #52, #76, #77, ...

........................................................................
.............................. CYCLE   26 ..............................
........................................................................
   1   -515.6802604 -0.515680E+03  0.752E-03    0.72       0.0  T
   2   -515.6802655 -0.506489E-05  0.549E-03    0.72       1.1  T
   3   -515.6802762 -0.107648E-04  0.244E-03    0.72       2.4  T
   4   -515.6802762  0.470706E-07  0.206E-03    0.72       2.9  T
   5   -515.6802785 -0.233241E-05  0.592E-04    0.72       9.9  T
   6   -515.6802787 -0.190698E-06  0.230E-04    0.72      25.5  T
   7   -515.6802787 -0.425005E-07  0.902E-05    0.72      65.1  T
   8   -515.6802787 -0.380430E-08  0.471E-05    0.72     124.6  T
     SCC iter.                  ...        0 min,  2.917 sec
     gradient                   ...        0 min,  0.631 sec
 * total energy  :  -506.5944755 Eh     change       -0.5590900E-02 Eh
   gradient norm :     0.0120372 Eh/α   predicted    -0.5666035E-02 (   1.34%)
   displ. norm   :     0.7975048 α      lambda       -0.5487388E-02
   maximum displ.:     0.5967185 α      in ANC's #52, #76, #77, ...

........................................................................
.............................. CYCLE   27 ..............................
........................................................................
   1   -515.6956369 -0.515696E+03  0.642E-03    0.72       0.0  T
   2   -515.6956402 -0.328089E-05  0.463E-03    0.72       1.3  T
   3   -515.6956479 -0.773669E-05  0.216E-03    0.72       2.7  T
   4   -515.6956487 -0.752643E-06  0.167E-03    0.72       3.5  T
   5   -515.6956501 -0.140198E-05  0.537E-04    0.72      10.9  T
   6   -515.6956502 -0.159974E-06  0.205E-04    0.72      28.6  T
   7   -515.6956503 -0.311936E-07  0.893E-05    0.72      65.7  T
   8   -515.6956503 -0.430759E-08  0.394E-05    0.72     149.0  T
     SCC iter.                  ...        0 min,  2.821 sec
     gradient                   ...        0 min,  0.586 sec
 * total energy  :  -506.5990627 Eh     change       -0.4587155E-02 Eh
   gradient norm :     0.0136904 Eh/α   predicted    -0.4488725E-02 (  -2.15%)
   displ. norm   :     0.7841461 α      lambda       -0.4784329E-02
   maximum displ.:     0.5894096 α      in ANC's #52, #76, #78, ...

........................................................................
.............................. CYCLE   28 ..............................
........................................................................
   1   -515.7056358 -0.515706E+03  0.523E-03    0.72       0.0  T
   2   -515.7056377 -0.187243E-05  0.370E-03    0.72       1.6  T
   3   -515.7056425 -0.484708E-05  0.184E-03    0.72       3.2  T
   4   -515.7056432 -0.683463E-06  0.139E-03    0.72       4.2  T
   5   -515.7056443 -0.109206E-05  0.452E-04    0.72      13.0  T
   6   -515.7056444 -0.108291E-06  0.189E-04    0.72      31.1  T
   7   -515.7056444 -0.223165E-07  0.762E-05    0.72      77.1  T
     SCC iter.                  ...        0 min,  2.100 sec
     gradient                   ...        0 min,  0.540 sec
 * total energy  :  -506.6023753 Eh     change       -0.3312602E-02 Eh
   gradient norm :     0.0184155 Eh/α   predicted    -0.3863075E-02 (  16.62%)
   displ. norm   :     0.6704939 α      lambda       -0.4409313E-02
   maximum displ.:     0.5183967 α      in ANC's #52, #76, #141, ...

........................................................................
.............................. CYCLE   29 ..............................
........................................................................
   1   -515.7182398 -0.515718E+03  0.438E-03    0.72       0.0  T
   2   -515.7182420 -0.224956E-05  0.341E-03    0.72       1.7  T
   3   -515.7182451 -0.303666E-05  0.148E-03    0.72       4.0  T
   4   -515.7182443  0.732100E-06  0.116E-03    0.72       5.1  T
   5   -515.7182452 -0.893281E-06  0.410E-04    0.72      14.3  T
   6   -515.7182454 -0.155660E-06  0.150E-04    0.72      39.2  T
   7   -515.7182454 -0.110931E-07  0.548E-05    0.72     107.2  T
     SCC iter.                  ...        0 min,  2.112 sec
     gradient                   ...        0 min,  0.550 sec
 * total energy  :  -506.6056862 Eh     change       -0.3310912E-02 Eh
   gradient norm :     0.0129951 Eh/α   predicted    -0.3195790E-02 (  -3.48%)
   displ. norm   :     0.6916699 α      lambda       -0.3829354E-02
   maximum displ.:     0.5447152 α      in ANC's #52, #76, #69, ...

........................................................................
.............................. CYCLE   30 ..............................
........................................................................
   1   -515.7229713 -0.515723E+03  0.444E-03    0.72       0.0  T
   2   -515.7229734 -0.213466E-05  0.338E-03    0.72       1.7  T
   3   -515.7229753 -0.190430E-05  0.168E-03    0.72       3.5  T
   4   -515.7229748  0.590392E-06  0.110E-03    0.72       5.3  T
   5   -515.7229754 -0.683511E-06  0.436E-04    0.72      13.5  T
   6   -515.7229756 -0.166222E-06  0.126E-04    0.72      46.6  T
   7   -515.7229756 -0.649379E-08  0.502E-05    0.72     117.0  T
     SCC iter.                  ...        0 min,  2.164 sec
     gradient                   ...        0 min,  0.550 sec
 * total energy  :  -506.6075844 Eh     change       -0.1898203E-02 Eh
   gradient norm :     0.0149103 Eh/α   predicted    -0.2830676E-02 (  49.12%)
   displ. norm   :     0.5332204 α      lambda       -0.3408291E-02
   maximum displ.:     0.4234254 α      in ANC's #52, #76, #29, ...

........................................................................
.............................. CYCLE   31 ..............................
........................................................................
   1   -515.7349704 -0.515735E+03  0.371E-03    0.72       0.0  T
   2   -515.7349725 -0.209832E-05  0.341E-03    0.72       1.7  T
   3   -515.7349748 -0.223268E-05  0.167E-03    0.72       3.5  T
   4   -515.7349741  0.668703E-06  0.101E-03    0.72       5.8  T
   5   -515.7349747 -0.627377E-06  0.351E-04    0.72      16.7  T
   6   -515.7349748 -0.100184E-06  0.996E-05    0.72      58.9  T
   7   -515.7349748 -0.574778E-08  0.395E-05    0.72     148.8  T
     SCC iter.                  ...        0 min,  2.161 sec
     gradient                   ...        0 min,  0.557 sec
 * total energy  :  -506.6100950 Eh     change       -0.2510610E-02 Eh
   gradient norm :     0.0102805 Eh/α   predicted    -0.2188677E-02 ( -12.82%)
   displ. norm   :     0.6247906 α      lambda       -0.2714809E-02
   maximum displ.:     0.5182543 α      in ANC's #52, #76, #29, ...

........................................................................
.............................. CYCLE   32 ..............................
........................................................................
   1   -515.7379896 -0.515738E+03  0.290E-03    0.72       0.0  T
   2   -515.7379909 -0.134113E-05  0.180E-03    0.72       3.3  T
   3   -515.7379918 -0.826228E-06  0.103E-03    0.72       5.7  T
   4   -515.7379919 -0.132280E-06  0.643E-04    0.72       9.1  T
   5   -515.7379920 -0.975683E-07  0.306E-04    0.72      19.2  T
   6   -515.7379921 -0.879720E-07  0.918E-05    0.72      64.0  T
   7   -515.7379921 -0.324792E-08  0.379E-05    0.72     154.8  T
     SCC iter.                  ...        0 min,  2.159 sec
     gradient                   ...        0 min,  0.557 sec
 * total energy  :  -506.6118142 Eh     change       -0.1719213E-02 Eh
   gradient norm :     0.0096335 Eh/α   predicted    -0.1887292E-02 (   9.78%)
   displ. norm   :     0.5355635 α      lambda       -0.2250391E-02
   maximum displ.:     0.4531891 α      in ANC's #52, #29, #76, ...

........................................................................
.............................. CYCLE   33 ..............................
........................................................................
   1   -515.7401892 -0.515740E+03  0.247E-03    0.72       0.0  T
   2   -515.7401901 -0.972312E-06  0.146E-03    0.72       4.0  T
   3   -515.7401907 -0.538311E-06  0.901E-04    0.72       6.5  T
   4   -515.7401908 -0.118461E-06  0.497E-04    0.72      11.8  T
   5   -515.7401908 -0.275431E-07  0.286E-04    0.72      20.6  T
   6   -515.7401909 -0.774540E-07  0.719E-05    0.72      81.6  T
   7   -515.7401909 -0.241141E-08  0.260E-05    0.72     226.3  T
     SCC iter.                  ...        0 min,  2.175 sec
     gradient                   ...        0 min,  0.597 sec
 * total energy  :  -506.6133098 Eh     change       -0.1495629E-02 Eh
   gradient norm :     0.0092608 Eh/α   predicted    -0.1447931E-02 (  -3.19%)
   displ. norm   :     0.4790425 α      lambda       -0.1931940E-02
   maximum displ.:     0.3984476 α      in ANC's #52, #29, #28, ...

........................................................................
.............................. CYCLE   34 ..............................
........................................................................
   1   -515.7427791 -0.515743E+03  0.235E-03    0.72       0.0  T
   2   -515.7427799 -0.824532E-06  0.185E-03    0.72       3.2  T
   3   -515.7427810 -0.111567E-05  0.779E-04    0.72       7.5  T
   4   -515.7427809  0.692144E-07  0.535E-04    0.72      11.0  T
   5   -515.7427810 -0.637544E-07  0.266E-04    0.72      22.0  T
   6   -515.7427811 -0.646726E-07  0.742E-05    0.72      79.1  T
   7   -515.7427811 -0.280397E-08  0.222E-05    0.72     264.3  T
     SCC iter.                  ...        0 min,  2.159 sec
     gradient                   ...        0 min,  0.553 sec
 * total energy  :  -506.6143414 Eh     change       -0.1031516E-02 Eh
   gradient norm :     0.0095962 Eh/α   predicted    -0.1187632E-02 (  15.13%)
   displ. norm   :     0.4204448 α      lambda       -0.1995089E-02
   maximum displ.:     0.3355059 α      in ANC's #52, #40, #29, ...

........................................................................
.............................. CYCLE   35 ..............................
........................................................................
   1   -515.7471958 -0.515747E+03  0.235E-03    0.72       0.0  T
   2   -515.7471964 -0.576719E-06  0.201E-03    0.72       2.9  T
   3   -515.7471978 -0.142556E-05  0.757E-04    0.72       7.8  T
   4   -515.7471977  0.928981E-07  0.505E-04    0.72      11.6  T
   5   -515.7471978 -0.878032E-07  0.225E-04    0.72      26.1  T
   6   -515.7471979 -0.412653E-07  0.606E-05    0.72      97.0  T
   7   -515.7471979 -0.286536E-08  0.214E-05    0.72     274.8  T
     SCC iter.                  ...        0 min,  2.150 sec
     gradient                   ...        0 min,  0.557 sec
 * total energy  :  -506.6151925 Eh     change       -0.8511049E-03 Eh
   gradient norm :     0.0107747 Eh/α   predicted    -0.1173888E-02 (  37.93%)
   displ. norm   :     0.3309551 α      lambda       -0.1479574E-02
   maximum displ.:     0.2597979 α      in ANC's #52, #29, #28, ...

........................................................................
.............................. CYCLE   36 ..............................
........................................................................
   1   -515.7515424 -0.515752E+03  0.153E-03    0.72       0.0  T
   2   -515.7515426 -0.221870E-06  0.103E-03    0.72       5.7  T
   3   -515.7515430 -0.325396E-06  0.519E-04    0.72      11.3  T
   4   -515.7515430 -0.250043E-08  0.358E-04    0.72      16.4  T
   5   -515.7515430 -0.651263E-07  0.150E-04    0.72      39.1  T
   6   -515.7515430 -0.197128E-07  0.372E-05    0.72     157.7  T
     SCC iter.                  ...        0 min,  1.844 sec
     gradient                   ...        0 min,  0.550 sec
 * total energy  :  -506.6161967 Eh     change       -0.1004206E-02 Eh
   gradient norm :     0.0082547 Eh/α   predicted    -0.8208147E-03 ( -18.26%)
   displ. norm   :     0.4070055 α      lambda       -0.1301647E-02
   maximum displ.:     0.3228310 α      in ANC's #52, #29, #28, ...

........................................................................
.............................. CYCLE   37 ..............................
........................................................................
   1   -515.7514226 -0.515751E+03  0.171E-03    0.72       0.0  T
   2   -515.7514231 -0.459291E-06  0.109E-03    0.72       5.4  T
   3   -515.7514234 -0.299956E-06  0.581E-04    0.72      10.1  T
   4   -515.7514234 -0.284116E-07  0.402E-04    0.72      14.6  T
   5   -515.7514234 -0.600630E-07  0.176E-04    0.72      33.4  T
   6   -515.7514235 -0.286792E-07  0.481E-05    0.72     122.1  T
     SCC iter.                  ...        0 min,  1.852 sec
     gradient                   ...        0 min,  0.552 sec
 * total energy  :  -506.6169353 Eh     change       -0.7386324E-03 Eh
   gradient norm :     0.0080697 Eh/α   predicted    -0.7586370E-03 (   2.71%)
   displ. norm   :     0.3809555 α      lambda       -0.1117845E-02
   maximum displ.:     0.2996822 α      in ANC's #52, #29, #28, ...

........................................................................
.............................. CYCLE   38 ..............................
........................................................................
   1   -515.7526157 -0.515753E+03  0.161E-03    0.72       0.0  T
   2   -515.7526160 -0.315597E-06  0.103E-03    0.72       5.7  T
   3   -515.7526163 -0.285518E-06  0.548E-04    0.72      10.7  T
   4   -515.7526163 -0.200422E-07  0.374E-04    0.72      15.7  T
   5   -515.7526164 -0.649816E-07  0.150E-04    0.72      39.2  T
   6   -515.7526164 -0.195652E-07  0.441E-05    0.72     133.1  T
     SCC iter.                  ...        0 min,  1.929 sec
     gradient                   ...        0 min,  0.568 sec
 * total energy  :  -506.6177288 Eh     change       -0.7935064E-03 Eh
   gradient norm :     0.0096123 Eh/α   predicted    -0.6400366E-03 ( -19.34%)
   displ. norm   :     0.4135913 α      lambda       -0.1068472E-02
   maximum displ.:     0.3170359 α      in ANC's #52, #29, #28, ...

........................................................................
.............................. CYCLE   39 ..............................
........................................................................
   1   -515.7551374 -0.515755E+03  0.170E-03    0.72       0.0  T
   2   -515.7551376 -0.262456E-06  0.129E-03    0.72       4.6  T
   3   -515.7551384 -0.737040E-06  0.502E-04    0.72      11.7  T
   4   -515.7551384  0.212401E-07  0.423E-04    0.72      13.9  T
   5   -515.7551385 -0.935996E-07  0.137E-04    0.72      42.9  T
   6   -515.7551385 -0.126161E-07  0.475E-05    0.72     123.7  T
     SCC iter.                  ...        0 min,  1.885 sec
     gradient                   ...        0 min,  0.560 sec
 * total energy  :  -506.6185480 Eh     change       -0.8192035E-03 Eh
   gradient norm :     0.0058253 Eh/α   predicted    -0.6256204E-03 ( -23.63%)
   displ. norm   :     0.4878619 α      lambda       -0.1052662E-02
   maximum displ.:     0.3636749 α      in ANC's #52, #29, #28, ...

........................................................................
.............................. CYCLE   40 ..............................
........................................................................
   1   -515.7576670 -0.515758E+03  0.209E-03    0.72       0.0  T
   2   -515.7576673 -0.362419E-06  0.157E-03    0.72       3.7  T
   3   -515.7576685 -0.114502E-05  0.611E-04    0.72       9.6  T
   4   -515.7576685  0.191631E-07  0.509E-04    0.72      11.5  T
   5   -515.7576686 -0.125503E-06  0.162E-04    0.72      36.2  T
   6   -515.7576686 -0.195653E-07  0.580E-05    0.72     101.3  T
     SCC iter.                  ...        0 min,  1.891 sec
     gradient                   ...        0 min,  0.642 sec
 * total energy  :  -506.6191254 Eh     change       -0.5773486E-03 Eh
   gradient norm :     0.0078880 Eh/α   predicted    -0.6516059E-03 (  12.86%)
   displ. norm   :     0.4585087 α      lambda       -0.1127160E-02
   maximum displ.:     0.3310262 α      in ANC's #52, #29, #28, ...

........................................................................
.............................. CYCLE   41 ..............................
........................................................................
   1   -515.7615370 -0.515762E+03  0.191E-03    0.72       0.0  T
   2   -515.7615376 -0.575049E-06  0.165E-03    0.72       3.6  T
   3   -515.7615386 -0.106031E-05  0.594E-04    0.72       9.9  T
   4   -515.7615385  0.132537E-06  0.511E-04    0.72      11.5  T
   5   -515.7615387 -0.153463E-06  0.158E-04    0.72      37.1  T
   6   -515.7615387 -0.183907E-07  0.561E-05    0.72     104.6  T
     SCC iter.                  ...        0 min,  2.838 sec
     gradient                   ...        0 min,  0.647 sec
 * total energy  :  -506.6198120 Eh     change       -0.6866490E-03 Eh
   gradient norm :     0.0100148 Eh/α   predicted    -0.6820580E-03 (  -0.67%)
   displ. norm   :     0.4808434 α      lambda       -0.8871527E-03
   maximum displ.:     0.3400651 α      in ANC's #52, #29, #28, ...

........................................................................
.............................. CYCLE   42 ..............................
........................................................................
   1   -515.7618250 -0.515762E+03  0.164E-03    0.72       0.0  T
   2   -515.7618255 -0.410311E-06  0.102E-03    0.72       5.8  T
   3   -515.7618258 -0.360062E-06  0.552E-04    0.72      10.6  T
   4   -515.7618259 -0.416135E-07  0.354E-04    0.72      16.6  T
   5   -515.7618259 -0.472904E-07  0.134E-04    0.72      43.7  T
   6   -515.7618259 -0.130360E-07  0.469E-05    0.72     125.1  T
     SCC iter.                  ...        0 min,  4.002 sec
     gradient                   ...        0 min,  0.660 sec
 * total energy  :  -506.6203115 Eh     change       -0.4995446E-03 Eh
   gradient norm :     0.0059729 Eh/α   predicted    -0.5461360E-03 (   9.33%)
   displ. norm   :     0.4856905 α      lambda       -0.8423490E-03
   maximum displ.:     0.3395136 α      in ANC's #52, #29, #28, ...
 * RMSD in coord.:     0.6541210 α      energy gain  -0.7564164E-01 Eh

generating ANC from model Hessian ...
Using Lindh-Hessian (1995)
 Shifting diagonal of input Hessian by    1.0005126295126541E-002
 Lowest  eigenvalues of input Hessian
    0.010000    0.010001    0.010004    0.000000    0.000000    0.000000
    0.000000    0.000000    0.000000    0.010005    0.010006    0.010006
    0.010007    0.010007    0.010008    0.010009    0.010009    0.010011
 Highest eigenvalues
    2.985047    2.985547    2.995552    2.996527    3.005620    3.006777


........................................................................
.............................. CYCLE   43 ..............................
........................................................................
   1   -515.7610854 -0.515761E+03  0.161E-03    0.72       0.0  T
   2   -515.7610858 -0.401237E-06  0.107E-03    0.72       5.5  T
   3   -515.7610861 -0.264172E-06  0.577E-04    0.72      10.2  T
   4   -515.7610861 -0.488512E-09  0.368E-04    0.72      15.9  T
   5   -515.7610861 -0.490070E-07  0.150E-04    0.72      39.1  T
   6   -515.7610861 -0.184763E-07  0.440E-05    0.72     133.4  T
     SCC iter.                  ...        0 min,  2.143 sec
     gradient                   ...        0 min,  0.550 sec
 * total energy  :  -506.6207960 Eh     change       -0.4844981E-03 Eh
   gradient norm :     0.0080771 Eh/α   predicted     0.0000000E+00 (-100.00%)
   displ. norm   :     0.0956677 α      lambda       -0.2014468E-03
   maximum displ.:     0.0600635 α      in ANC's #48, #28, #47, ...

........................................................................
.............................. CYCLE   44 ..............................
........................................................................
   1   -515.7628461 -0.515763E+03  0.835E-04    0.72       0.0  T
   2   -515.7628462 -0.147144E-06  0.707E-04    0.72       8.3  T
   3   -515.7628463 -0.123248E-06  0.295E-04    0.72      19.9  T
   4   -515.7628463  0.158550E-07  0.207E-04    0.72      28.3  T
   5   -515.7628463 -0.104003E-07  0.977E-05    0.72      60.1  T
   6   -515.7628463 -0.891566E-08  0.223E-05    0.72     263.6  T
     SCC iter.                  ...        0 min,  1.843 sec
     gradient                   ...        0 min,  0.552 sec
 * total energy  :  -506.6209046 Eh     change       -0.1085058E-03 Eh
   gradient norm :     0.0037341 Eh/α   predicted    -0.1016462E-03 (  -6.32%)
   displ. norm   :     0.1846282 α      lambda       -0.2659920E-03
   maximum displ.:     0.1248951 α      in ANC's #48, #28, #29, ...

........................................................................
.............................. CYCLE   45 ..............................
........................................................................
   1   -515.7654636 -0.515765E+03  0.128E-03    0.72       0.0  T
   2   -515.7654639 -0.318023E-06  0.105E-03    0.72       5.6  T
   3   -515.7654643 -0.318417E-06  0.422E-04    0.72      13.9  T
   4   -515.7654642  0.330167E-07  0.307E-04    0.72      19.2  T
   5   -515.7654643 -0.293068E-07  0.143E-04    0.72      41.1  T
   6   -515.7654643 -0.158757E-07  0.360E-05    0.72     163.0  T
     SCC iter.                  ...        0 min,  1.852 sec
     gradient                   ...        0 min,  0.621 sec
 * total energy  :  -506.6209449 Eh     change       -0.4039689E-04 Eh
   gradient norm :     0.0111744 Eh/α   predicted    -0.1375343E-03 ( 240.46%)
   displ. norm   :     0.1387133 α      lambda       -0.3126066E-03
   maximum displ.:     0.0846354 α      in ANC's #48, #28, #39, ...

........................................................................
.............................. CYCLE   46 ..............................
........................................................................
   1   -515.7657812 -0.515766E+03  0.566E-04    0.72       0.0  T
   2   -515.7657813 -0.592677E-07  0.369E-04    0.72      15.9  T
   3   -515.7657813 -0.530623E-07  0.171E-04    0.72      34.4  T
   4   -515.7657813 -0.266414E-08  0.111E-04    0.72      52.8  T
     SCC iter.                  ...        0 min,  1.313 sec
     gradient                   ...        0 min,  0.557 sec
 * total energy  :  -506.6211157 Eh     change       -0.1707533E-03 Eh
   gradient norm :     0.0081358 Eh/α   predicted    -0.1593114E-03 (  -6.70%)
   displ. norm   :     0.2575196 α      lambda       -0.4883161E-03
   maximum displ.:     0.1466170 α      in ANC's #48, #28, #47, ...

........................................................................
.............................. CYCLE   47 ..............................
........................................................................
   1   -515.7621567 -0.515762E+03  0.198E-03    0.72       0.0  T
   2   -515.7621573 -0.527487E-06  0.164E-03    0.72       3.6  T
   3   -515.7621576 -0.355872E-06  0.867E-04    0.72       6.8  T
   4   -515.7621575  0.134505E-06  0.515E-04    0.72      11.4  T
   5   -515.7621576 -0.125602E-06  0.247E-04    0.72      23.8  T
   6   -515.7621577 -0.550504E-07  0.446E-05    0.72     131.8  T
   7   -515.7621577 -0.125249E-08  0.925E-06    0.72     634.9  T
     SCC iter.                  ...        0 min,  2.206 sec
     gradient                   ...        0 min,  0.552 sec
 * total energy  :  -506.6210411 Eh     change        0.7455721E-04 Eh
   gradient norm :     0.0099531 Eh/α   predicted    -0.2603509E-03 (-449.20%)
   displ. norm   :     0.1374408 α      lambda       -0.6100902E-03
   maximum displ.:     0.0642464 α      in ANC's #48, #47, #28, ...

........................................................................
.............................. CYCLE   48 ..............................
........................................................................
   1   -515.7634381 -0.515763E+03  0.128E-03    0.72       0.0  T
   2   -515.7634382 -0.107513E-06  0.107E-03    0.72       5.5  T
   3   -515.7634383 -0.151585E-06  0.564E-04    0.72      10.4  T
   4   -515.7634383  0.787213E-07  0.311E-04    0.72      18.9  T
   5   -515.7634384 -0.894588E-07  0.734E-05    0.72      80.0  T
   6   -515.7634384 -0.459215E-08  0.243E-05    0.72     242.1  T
     SCC iter.                  ...        0 min,  2.047 sec
     gradient                   ...        0 min,  0.612 sec
 * total energy  :  -506.6213672 Eh     change       -0.3260211E-03 Eh
   gradient norm :     0.0050616 Eh/α   predicted    -0.3108088E-03 (  -4.67%)
   displ. norm   :     0.1944461 α      lambda       -0.2387971E-03
   maximum displ.:     0.1162952 α      in ANC's #48, #28, #29, ...

........................................................................
.............................. CYCLE   49 ..............................
........................................................................
   1   -515.7634259 -0.515763E+03  0.751E-04    0.72       0.0  T
   2   -515.7634261 -0.129098E-06  0.675E-04    0.72       8.7  T
   3   -515.7634262 -0.119085E-06  0.271E-04    0.72      21.6  T
   4   -515.7634262  0.108241E-07  0.186E-04    0.72      31.6  T
   5   -515.7634262 -0.357704E-08  0.962E-05    0.72      61.1  T
     SCC iter.                  ...        0 min,  1.589 sec
     gradient                   ...        0 min,  0.562 sec
 * total energy  :  -506.6214438 Eh     change       -0.7664007E-04 Eh
   gradient norm :     0.0043679 Eh/α   predicted    -0.1239154E-03 (  61.68%)
   displ. norm   :     0.2182546 α      lambda       -0.2195792E-03
   maximum displ.:     0.1334440 α      in ANC's #48, #28, #29, ...

........................................................................
.............................. CYCLE   50 ..............................
........................................................................
   1   -515.7631927 -0.515763E+03  0.620E-04    0.72       0.0  T
[...]
    48   7 N       49   6 C                                       1.3463500
    49   6 C       50   6 C                                       1.4107588
    50   6 C       51   6 C                                       1.4076960
    51   6 C       52   6 C                                       1.4211543
    52   6 C       53   6 C                                       1.3676667
    53   6 C       54   6 C                                       1.4229855
    51   6 C       55   7 N                                       1.3618452
    54   6 C       55   7 N                                       1.3688773
    54   6 C       56   6 C                                       1.3891487
    56   6 C       57   6 C                                       1.3894413
    58   6 C       59   6 C                                       1.3481522
    38   6 C       60   6 C                                       1.3898137
    57   6 C       61   7 N                                       1.3536448
    60   6 C       61   7 N                                       1.3543920
    38   6 C       62   1 H                                       1.0848629
    40   6 C       63   1 H                                       1.0784418
    41   6 C       64   1 H                                       1.0784881
    43   7 N       65   1 H                                       1.0144612
    44   6 C       66   1 H                                       1.0853280
    46   6 C       67   1 H                                       1.0787292
    47   6 C       68   1 H                                       1.0784227
    52   6 C       69   1 H                                       1.0782478
    53   6 C       70   1 H                                       1.0783496
    55   7 N       71   1 H                                       1.0146803
    56   6 C       72   1 H                                       1.0852545
    58   6 C       73   1 H                                       1.0789049
    59   6 C       74   1 H                                       1.0788780
    75   6 C       76   6 C                                       1.2287266
    77   6 C       78   6 C                                       1.2242111
    79   6 C       80   6 C                                       1.2243920
    81   6 C       82   6 C                                       1.2288854
    83   6 C       84   6 C                                       1.2245077
    85   6 C       86   6 C                                       1.2244804
    87   6 C       88   6 C                                       1.2288546
    89   6 C       90   6 C                                       1.2244444
    91   6 C       92   6 C                                       1.2244412
    93   6 C       94   6 C                                       1.2288504
    95   6 C       96   6 C                                       1.2244587
    97   6 C       98   6 C                                       1.2244480
    99   6 C      100   6 C                                       1.2289072
   101   6 C      102   6 C                                       1.2244719
   103   6 C      104   6 C                                       1.2244825
   105   6 C      106   6 C                                       1.2287276
   107   6 C      108   6 C                                       1.2243741
   109   6 C      110   6 C                                       1.2241898
   111   6 C      112   6 C                                       1.4085206
   112   6 C      113   6 C                                       1.4199365
   113   6 C      114   6 C                                       1.3686128
   114   6 C      115   6 C                                       1.4217440
   112   6 C      116   7 N                                       1.3618844
   115   6 C      116   7 N                                       1.3680261
   115   6 C      117   6 C                                       1.3908688
   117   6 C      118   6 C                                       1.3861568
   118   6 C      119   6 C                                       1.4521689
   119   6 C      120   6 C                                       1.3492196
   118   6 C      121   7 N                                       1.3612451
   120   6 C      122   6 C                                       1.4514964
   121   7 N      122   6 C                                       1.3461742
   122   6 C      123   6 C                                       1.4106834
   123   6 C      124   6 C                                       1.4085169
   124   6 C      125   6 C                                       1.4200383
   125   6 C      126   6 C                                       1.3685063
   126   6 C      127   6 C                                       1.4218471
   124   6 C      128   7 N                                       1.3616344
   127   6 C      128   7 N                                       1.3681884
   127   6 C      129   6 C                                       1.3905383
   129   6 C      130   6 C                                       1.3864188
   130   6 C      131   6 C                                       1.4520695
   131   6 C      132   6 C                                       1.3492210
   111   6 C      133   6 C                                       1.4105608
   132   6 C      133   6 C                                       1.4514110
   130   6 C      134   7 N                                       1.3610272
   133   6 C      134   7 N                                       1.3465405
   113   6 C      135   1 H                                       1.0781855
   114   6 C      136   1 H                                       1.0783271
   116   7 N      137   1 H                                       1.0146981
   117   6 C      138   1 H                                       1.0855405
   119   6 C      139   1 H                                       1.0787333
   120   6 C      140   1 H                                       1.0784417
   125   6 C      141   1 H                                       1.0781825
   126   6 C      142   1 H                                       1.0783186
   128   7 N      143   1 H                                       1.0146829
   129   6 C      144   1 H                                       1.0855326
   131   6 C      145   1 H                                       1.0787167
   132   6 C      146   1 H                                       1.0784021
   147   6 C      148   6 C                                       1.4086512
   148   6 C      149   6 C                                       1.4200017
   149   6 C      150   6 C                                       1.3685563
   150   6 C      151   6 C                                       1.4216818
   148   6 C      152   7 N                                       1.3616797
   151   6 C      152   7 N                                       1.3681343
   151   6 C      153   6 C                                       1.3907131
   153   6 C      154   6 C                                       1.3861286
   154   6 C      155   6 C                                       1.4520601
   155   6 C      156   6 C                                       1.3492020
   154   6 C      157   7 N                                       1.3612637
   156   6 C      158   6 C                                       1.4515093
   157   7 N      158   6 C                                       1.3461257
   158   6 C      159   6 C                                       1.4106384
   159   6 C      160   6 C                                       1.4085200
   160   6 C      161   6 C                                       1.4200253
   161   6 C      162   6 C                                       1.3685468
   162   6 C      163   6 C                                       1.4217577
   160   6 C      164   7 N                                       1.3616399
   163   6 C      164   7 N                                       1.3681733
   163   6 C      165   6 C                                       1.3906495
   165   6 C      166   6 C                                       1.3862728
   166   6 C      167   6 C                                       1.4520637
   167   6 C      168   6 C                                       1.3492372
   147   6 C      169   6 C                                       1.4105455
   168   6 C      169   6 C                                       1.4514410
   166   6 C      170   7 N                                       1.3611876
   169   6 C      170   7 N                                       1.3462743
   149   6 C      171   1 H                                       1.0781639
   150   6 C      172   1 H                                       1.0783122
   152   7 N      173   1 H                                       1.0146733
   153   6 C      174   1 H                                       1.0855076
   155   6 C      175   1 H                                       1.0787181
   156   6 C      176   1 H                                       1.0784248
   161   6 C      177   1 H                                       1.0781791
   162   6 C      178   1 H                                       1.0783180
   164   7 N      179   1 H                                       1.0146656
   165   6 C      180   1 H                                       1.0855149
   167   6 C      181   1 H                                       1.0787207
   168   6 C      182   1 H                                       1.0784299
   183   6 C      184   6 C                                       1.4084954
   184   6 C      185   6 C                                       1.4200123
   185   6 C      186   6 C                                       1.3685611
   186   6 C      187   6 C                                       1.4217072
   184   6 C      188   7 N                                       1.3616394
   187   6 C      188   7 N                                       1.3681265
   187   6 C      189   6 C                                       1.3906616
   189   6 C      190   6 C                                       1.3861616
   190   6 C      191   6 C                                       1.4520249
   191   6 C      192   6 C                                       1.3491877
   190   6 C      193   7 N                                       1.3612759
   192   6 C      194   6 C                                       1.4515177
   193   7 N      194   6 C                                       1.3461505
   194   6 C      195   6 C                                       1.4106946
   195   6 C      196   6 C                                       1.4084648
   196   6 C      197   6 C                                       1.4200127
   197   6 C      198   6 C                                       1.3685687
   198   6 C      199   6 C                                       1.4217248
   196   6 C      200   7 N                                       1.3616551
   199   6 C      200   7 N                                       1.3681258
   199   6 C      201   6 C                                       1.3906774
   201   6 C      202   6 C                                       1.3861879
   202   6 C      203   6 C                                       1.4520455
   203   6 C      204   6 C                                       1.3491985
   183   6 C      205   6 C                                       1.4106575
   204   6 C      205   6 C                                       1.4515078
   202   6 C      206   7 N                                       1.3612653
   205   6 C      206   7 N                                       1.3461705
   185   6 C      207   1 H                                       1.0781746
   186   6 C      208   1 H                                       1.0783153
   188   7 N      209   1 H                                       1.0146731
   189   6 C      210   1 H                                       1.0855022
   191   6 C      211   1 H                                       1.0787123
   192   6 C      212   1 H                                       1.0784119
   197   6 C      213   1 H                                       1.0781794
   198   6 C      214   1 H                                       1.0783187
   200   7 N      215   1 H                                       1.0146717
   201   6 C      216   1 H                                       1.0855062
   203   6 C      217   1 H                                       1.0787157
   204   6 C      218   1 H                                       1.0784192
   219   6 C      220   6 C                                       1.4084737
   220   6 C      221   6 C                                       1.4200208
   221   6 C      222   6 C                                       1.3685555
   222   6 C      223   6 C                                       1.4217670
   220   6 C      224   7 N                                       1.3616485
   223   6 C      224   7 N                                       1.3681623
   223   6 C      225   6 C                                       1.3906539
   225   6 C      226   6 C                                       1.3862794
   226   6 C      227   6 C                                       1.4520644
   227   6 C      228   6 C                                       1.3492340
   226   6 C      229   7 N                                       1.3611957
   228   6 C      230   6 C                                       1.4514476
   229   7 N      230   6 C                                       1.3462787
   230   6 C      231   6 C                                       1.4105723
   231   6 C      232   6 C                                       1.4086237
   232   6 C      233   6 C                                       1.4199950
   233   6 C      234   6 C                                       1.3685597
   234   6 C      235   6 C                                       1.4216798
   232   6 C      236   7 N                                       1.3616772
   235   6 C      236   7 N                                       1.3681225
   235   6 C      237   6 C                                       1.3907094
   237   6 C      238   6 C                                       1.3861186
   238   6 C      239   6 C                                       1.4520474
   239   6 C      240   6 C                                       1.3491916
   219   6 C      241   6 C                                       1.4106908
   240   6 C      241   6 C                                       1.4515221
   238   6 C      242   7 N                                       1.3612800
   241   6 C      242   7 N                                       1.3461161
   221   6 C      243   1 H                                       1.0781841
   222   6 C      244   1 H                                       1.0783205
   224   7 N      245   1 H                                       1.0146672
   225   6 C      246   1 H                                       1.0855169
   227   6 C      247   1 H                                       1.0787215
   228   6 C      248   1 H                                       1.0784284
   233   6 C      249   1 H                                       1.0781645
   234   6 C      250   1 H                                       1.0783114
   236   7 N      251   1 H                                       1.0146767
   237   6 C      252   1 H                                       1.0855059
   239   6 C      253   1 H                                       1.0787152
   240   6 C      254   1 H                                       1.0784175
   255   6 C      256   6 C                                       1.4085328
   256   6 C      257   6 C                                       1.4200496
   257   6 C      258   6 C                                       1.3685073
   258   6 C      259   6 C                                       1.4218582
   256   6 C      260   7 N                                       1.3616489
   259   6 C      260   7 N                                       1.3681986
   259   6 C      261   6 C                                       1.3905458
   261   6 C      262   6 C                                       1.3864466
   262   6 C      263   6 C                                       1.4520917
   263   6 C      264   6 C                                       1.3492303
   262   6 C      265   7 N                                       1.3609974
   264   6 C      266   6 C                                       1.4514046
   265   7 N      266   6 C                                       1.3465709
   266   6 C      267   6 C                                       1.4104888
   267   6 C      268   6 C                                       1.4085375
   268   6 C      269   6 C                                       1.4199470
   269   6 C      270   6 C                                       1.3685965
   270   6 C      271   6 C                                       1.4217366
   268   6 C      272   7 N                                       1.3618746
   271   6 C      272   7 N                                       1.3680292
   271   6 C      273   6 C                                       1.3908522
   273   6 C      274   6 C                                       1.3861411
   274   6 C      275   6 C                                       1.4521620
   275   6 C      276   6 C                                       1.3492145
   255   6 C      277   6 C                                       1.4106643
   276   6 C      277   6 C                                       1.4514930
   274   6 C      278   7 N                                       1.3612412
   277   6 C      278   7 N                                       1.3461606
   257   6 C      279   1 H                                       1.0781830
   258   6 C      280   1 H                                       1.0783213
   260   7 N      281   1 H                                       1.0146796
   261   6 C      282   1 H                                       1.0855356
   263   6 C      283   1 H                                       1.0787206
   264   6 C      284   1 H                                       1.0784100
   269   6 C      285   1 H                                       1.0781809
   270   6 C      286   1 H                                       1.0783241
   272   7 N      287   1 H                                       1.0146975
   273   6 C      288   1 H                                       1.0855365
   275   6 C      289   1 H                                       1.0787305
   276   6 C      290   1 H                                       1.0784416

 * 4 distinct bonds (by element types)

   Z      Z             #   av. dist./Å        max./Å        min./Å
   1 H    6 C          72     1.0799918     1.0855405     1.0781639
   6 C    6 C         154     1.3832600     1.4522234     1.2241898
   1 H    7 N          14     1.0146476     1.0146981     1.0144592
   6 C    7 N          56     1.3594059     1.3688887     1.3461161


optimized geometry written to: xtbopt.xyz


           -------------------------------------------------
          | TOTAL ENERGY             -506.622933748890 Eh   |
          | GRADIENT NORM               0.000458450131 Eh/α |
          | HOMO-LUMO GAP               0.724709211974 eV   |
           -------------------------------------------------

------------------------------------------------------------------------
 * finished run on 2022/07/26 at 16:05:36.480     
------------------------------------------------------------------------
 total:
 * wall-time:     0 d,  0 h,  5 min, 43.066 sec
 *  cpu-time:     0 d,  0 h,  5 min, 41.000 sec
 * ratio c/w:     0.994 speedup
 SCF:
 * wall-time:     0 d,  0 h,  0 min, 31.696 sec
 *  cpu-time:     0 d,  0 h,  0 min, 31.382 sec
 * ratio c/w:     0.990 speedup
 ANC optimizer:
 * wall-time:     0 d,  0 h,  5 min, 11.071 sec
 *  cpu-time:     0 d,  0 h,  5 min,  9.333 sec
 * ratio c/w:     0.994 speedup

