156
 energy: -237.452506562970 gnorm: 1.641481061063 xtb: 6.5.1 (b24c23e)
Zn          13.46912500000000       -0.00695100000000       -0.00474700000000
C           10.09525700000000        0.12556700000000        0.03453600000000
C           10.76397300000000        1.17820700000000        0.51314800000000
C           10.12065600000000        2.35973600000000        1.07593300000000
C           11.06767000000000        3.21219900000000        1.42105700000000
C           12.36811400000000        2.61490400000000        1.09067200000000
N           12.18354700000000        1.32071100000000        0.51824600000000
C           13.56187300000000        3.21243700000000        1.27298900000000
C           13.60742800000000        4.58033100000000        1.85254900000000
C           13.52369400000000        5.71356900000000        1.00935000000000
C           13.38589900000000        5.56311900000000       -0.48368300000000
C           13.56663500000000        6.99884500000000        1.57088900000000
C           13.68623200000000        7.17150400000000        2.95475700000000
C           13.77213000000000        8.55144500000000        3.53823100000000
C           13.79498600000000        6.04989400000000        3.78490300000000
C           13.74817700000000        4.75379000000000        3.24940100000000
C           13.85954100000000        3.56757300000000        4.17189700000000
C           14.85495600000000        2.57298900000000        0.91966000000000
C           16.14709300000000        3.26368800000000        0.99185100000000
C           17.08229100000000        2.40470200000000        0.64382700000000
N           14.99234700000000        1.33769400000000        0.54425800000000
C           16.39454300000000        1.15293000000000        0.34795600000000
C           16.98954200000000       -0.00080100000000       -0.00056000000000
C           16.23229500000000       -1.24276300000000       -0.28819200000000
C           16.78858200000000       -2.44162700000000       -0.41106700000000
C           15.73960000000000       -3.37069300000000       -0.77767700000000
C           14.60821900000000       -2.68034300000000       -0.85415900000000
N           14.82852100000000       -1.30192300000000       -0.54805000000000
C           13.30653500000000       -3.25996500000000       -1.27421800000000
C           13.29605700000000       -4.62207000000000       -1.87253600000000
C           13.53472600000000       -4.78976400000000       -3.25672300000000
C           13.80245400000000       -3.60469700000000       -4.14817300000000
C           13.53143100000000       -6.07968700000000       -3.80878700000000
C           13.29268100000000       -7.20078800000000       -3.00661200000000
C           13.26710700000000       -8.56681100000000       -3.62742300000000
C           13.04356000000000       -7.03318300000000       -1.63895500000000
C           13.05425900000000       -5.75513400000000       -1.05965000000000
C           12.79318100000000       -5.61145700000000        0.41770400000000
C           12.14486100000000       -2.59722500000000       -1.13071900000000
C           10.82486200000000       -3.09280100000000       -1.51352000000000
C            9.96372300000000       -2.16568600000000       -1.14241200000000
C           10.72588200000000       -1.07719800000000       -0.53191600000000
N           11.99916000000000       -1.31822900000000       -0.51884700000000
H            9.01208200000000        0.15092400000000        0.05686500000000
H            9.05756900000000        2.52571700000000        1.19384500000000
H           10.88982700000000        4.18351000000000        1.86433300000000
H           12.43427700000000        5.04372700000000       -0.72183900000000
H           14.23593000000000        4.97116000000000       -0.88324200000000
H           13.38137200000000        6.54745100000000       -0.99810600000000
H           13.50742300000000        7.87082900000000        0.93002400000000
H           13.34827000000000        8.57015100000000        4.56499000000000
H           14.83495100000000        8.86936600000000        3.57892400000000
H           13.20022800000000        9.27601900000000        2.92007900000000
H           13.91434800000000        6.18941800000000        4.85301400000000
H           14.77453600000000        2.98820100000000        3.92770100000000
H           13.91840000000000        3.87791600000000        5.23646300000000
H           12.97024500000000        2.91346000000000        4.05394900000000
H           16.32274400000000        4.29229900000000        1.27837000000000
H           18.14247200000000        2.61647200000000        0.60119100000000
H           17.83419100000000       -2.68878200000000       -0.28724100000000
H           15.86694200000000       -4.42684800000000       -0.97690900000000
H           12.96735400000000       -2.87675000000000       -4.07030500000000
H           13.89827800000000       -3.90416900000000       -5.21333400000000
H           14.74801600000000       -3.11137300000000       -3.83997600000000
H           13.71319000000000       -6.21613100000000       -4.86868800000000
H           14.16805600000000       -8.71084900000000       -4.26181500000000
H           13.25798700000000       -9.36497300000000       -2.85408000000000
H           12.35851100000000       -8.66975300000000       -4.25808500000000
H           12.84470200000000       -7.90206100000000       -1.02270800000000
H           11.83867900000000       -5.06847500000000        0.57814600000000
H           13.62074600000000       -5.04584200000000        0.89491900000000
H           12.72043600000000       -6.59882500000000        0.92115400000000
H           10.57702200000000       -4.03059100000000       -1.99367100000000
H            8.89050100000000       -2.21650900000000       -1.27061700000000
Zn          31.55714700000000        0.00653500000000        0.00067700000000
C           34.93101500000000       -0.11628500000000       -0.06272300000000
C           34.26229899999999       -1.20720800000000       -0.44613600000000
C           34.90561599999999       -2.44941100000000       -0.85804500000000
C           33.95860200000000       -3.30347400000000       -1.19919300000000
C           32.65815800000000       -2.64374000000000       -1.02406900000000
N           32.84272400000000       -1.31356600000000       -0.54111700000000
C           31.46439900000000       -3.20113300000000       -1.30620100000000
C           31.41884400000000       -4.58942900000000       -1.83503000000000
C           31.50257800000000       -4.82338400000000       -3.22804100000000
C           31.64037300000000       -3.68115400000000       -4.20122800000000
C           31.45963700000000       -6.13958700000000       -3.71267600000000
C           31.34003999999999       -7.22226500000000       -2.83363600000000
C           31.25414200000000       -8.62196200000000       -3.36798200000000
C           31.23128600000000       -6.98766200000000       -1.45809500000000
C           31.27809500000000       -5.68167200000000       -0.94717600000000
C           31.16673100000000       -5.46438700000000        0.53973300000000
C           30.17131600000000       -2.49509900000000       -1.11845000000000
C           28.87917900000000       -3.04347600000000       -1.54454800000000
C           27.94398100000000       -2.18270000000000       -1.20097700000000
N           30.03392500000000       -1.34383000000000       -0.53410500000000
C           28.63172900000000       -1.07460200000000       -0.54783700000000
C           28.03673000000000       -0.00080100000000       -0.00056000000000
C           28.79397700000000        1.09451300000000        0.65173300000000
C           28.23769000000000        2.04466300000000        1.39307600000000
C           29.28667200000000        2.96887700000000        1.77175400000000
C           30.41805300000000        2.52368200000000        1.23861700000000
N           30.19775100000000        1.31710900000000        0.50518200000000
C           31.71973700000000        3.23274600000000        1.33679800000000
C           31.73021500000000        4.62985100000000        1.84808400000000
C           31.49154500000000        5.70916600000000        0.96537700000000
C           31.22381800000000        5.47121700000000       -0.49833300000000
C           31.49484100000000        7.02216300000000        1.46006600000000
C           31.73359100000000        7.27576300000000        2.81507100000000
C           31.75916500000000        8.69126700000000        3.31283900000000
C           31.98271200000000        6.20795500000000        3.68591200000000
C           31.97201300000000        4.88466800000000        3.21910100000000
C           32.23309100000000        3.75818000000000        4.18566300000000
C           32.88141100000000        2.65517500000000        0.98151100000000
C           34.20141000000000        3.27779900000000        1.04838900000000
C           35.06254900000000        2.35188000000000        0.67430800000000
C           34.30039000000000        1.14378100000000        0.36124200000000
N           33.02711200000000        1.30865700000000        0.53754400000000
H           36.01418899999999       -0.15004000000000       -0.06416700000000
H           35.96870300000000       -2.65081400000000       -0.88787500000000
H           34.13644500000000       -4.31124700000000       -1.55179700000000
H           32.59199500000000       -3.14148800000000       -4.01348900000000
H           30.79034200000000       -2.97738100000000       -4.07971400000000
H           31.64490000000000       -4.03528400000000       -5.25390700000000
H           31.51884900000000       -6.32510800000000       -4.77881200000000
H           31.67800200000000       -9.34631400000000       -2.64004000000000
H           30.19132100000000       -8.87954200000000       -3.55872400000000
H           31.82604400000000       -8.71684000000000       -4.31567200000000
H           31.11192400000000       -7.82782300000000       -0.78396000000000
H           30.25173600000000       -4.87725800000000        0.76464000000000
H           31.10787200000000       -6.42535400000000        1.09304700000000
H           32.05602700000000       -4.91073100000000        0.90748400000000
H           28.70352800000000       -3.98407000000000       -2.04993600000000
H           26.88380000000000       -2.30599100000000       -1.37835600000000
H           27.19208100000000        2.13727900000000        1.65353900000000
H           29.15933000000000        3.86891400000000        2.35919700000000
H           32.05891800000000        4.89203200000000       -0.94612200000000
H           31.12799400000000        6.42475100000000       -1.05960300000000
H           30.27825600000000        4.90187000000000       -0.61748500000000
H           31.31308200000000        7.85441700000000        0.78972200000000
H           30.85821600000000        9.23440900000000        2.95479400000000
H           31.76828500000000        8.73180100000000        4.42346000000000
H           32.66776100000000        9.20217200000000        2.92903400000000
H           32.18157000000000        6.40827800000000        4.73213400000000
H           33.18759300000000        3.25529500000000        3.92551400000000
H           31.40552599999999        3.01965200000000        4.13842400000000
H           32.30583600000000        4.12209600000000        5.23252600000000
H           34.44925000000000        4.28691400000000        1.35117800000000
H           36.13577099999999        2.47731200000000        0.61698300000000
C           18.01277300000000        0.01481800000000        0.01036500000000
C           19.47099900000000       -0.00701800000000       -0.00750800000000
C           20.60492700000000       -0.02777200000000       -0.00899900000000
C           21.96630900000000       -0.04036200000000       -0.01119000000000
C           23.24052800000000       -0.03005500000000       -0.01595500000000
C           24.42899000000000       -0.01125700000000       -0.02211100000000
C           25.78135100000000        0.01352700000000       -0.00624300000000
C           26.88161800000000        0.01481800000000        0.01036500000000
156
 energy: -237.881668892269 gnorm: 0.459952176879 xtb: 6.5.1 (b24c23e)
Zn          13.46998109433236       -0.00610803920372       -0.00426120941999
C           10.09568071713143        0.11302132259908        0.02853924829300
C           10.76966082325599        1.18056091549967        0.51404404496173
C           10.11943268128986        2.35504892831974        1.07381644895437
C           11.07493572185775        3.21446501796182        1.42159859242430
C           12.36541978225489        2.61089826453841        1.08923702412947
N           12.16748231232494        1.33469352951265        0.52572426455678
C           13.57388291609174        3.21277321981577        1.27211766615147
C           13.60976021466461        4.58461618000924        1.85386799513286
C           13.52390047390053        5.71453947418108        1.01249882109721
C           13.38607439763979        5.56250263088059       -0.48422620786234
C           13.56643794411193        6.99540578255801        1.57312347149650
C           13.68775867090597        7.16947302086308        2.95370180989186
C           13.77081785941575        8.55323266837440        3.53911526400143
C           13.79398686079624        6.04906572619440        3.78095745656367
C           13.74834208422701        4.75667016953236        3.24776386891925
C           13.85938901005634        3.56674569142491        4.17174794638222
C           14.84763968284396        2.59333918941937        0.92762557615414
C           16.13367300486033        3.27396766969141        0.99689364502273
C           17.07834696004210        2.39622546673975        0.64149333844576
N           14.99435498019577        1.34253254653137        0.54383779793984
C           16.35680894062413        1.17848317625668        0.35444020583807
C           16.89319944935497       -0.01316248476666       -0.00395080036349
C           16.19740423526576       -1.24795841907111       -0.29217920318918
C           16.78735180676933       -2.45864924053929       -0.41519799600928
C           15.75541124967937       -3.37498164211249       -0.77717853371934
C           14.59689080792649       -2.67312074943473       -0.85697498001129
N           14.82753592829280       -1.31302665328105       -0.54951385249094
C           13.31628516847671       -3.25624717817444       -1.27214335858803
C           13.29965501955154       -4.62469938663683       -1.87273246508040
C           13.53486907384257       -4.79221991156864       -3.25491906191741
C           13.80226016043131       -3.60378781175819       -4.14806784383864
C           13.53063742866634       -6.07861507367407       -3.80460763109983
C           13.29166011686810       -7.19896857709128       -3.00522020269424
C           13.26782696675899       -8.56878498299710       -3.62781159832495
C           13.04452814637677       -7.02953381413383       -1.64110090715788
C           13.05456233267324       -5.75531416083059       -1.06270434977397
C           12.79353295041220       -5.61081828598847        0.41834715654234
C           12.14322385615468       -2.59672239693965       -1.13076947937145
C           10.83053099873850       -3.09392485951160       -1.51305504416569
C            9.95650329183394       -2.15797547802388       -1.13901307723296
C           10.71090325165595       -1.07094366462718       -0.52900195504590
N           11.99807147391283       -1.32641034636271       -0.52448126227837
H            9.01232218024701        0.14830169952952        0.05532634272521
H            9.05748480080648        2.52149268305231        1.19199114834070
H           10.89527866172320        4.18402368282654        1.86441746584166
H           12.43939122840031        5.04510269510788       -0.72174025740439
H           14.23108916096075        4.97276872956570       -0.88213596940459
H           13.38134027473999        6.54251013014656       -0.99457032128831
H           13.50719763551059        7.86936840735420        0.93042835676094
H           13.35130837628403        8.57049459892249        4.56059100378654
H           14.82935329142495        8.86915920974853        3.57935180127109
H           13.20389582852129        9.27325282202361        2.92283083744995
H           13.91384275315687        6.18865867622956        4.85173408387641
H           14.76953584521216        2.98950506355365        3.92881283393619
H           13.91819970775430        3.87702433794435        5.23047470131607
H           12.97521761405029        2.91513098704602        4.05418152170324
H           16.31851989507468        4.29544194273818        1.27977726302294
H           18.14060658044813        2.60901108513482        0.59899924979299
H           17.83412939226737       -2.68980503663417       -0.28704772145754
H           15.87014800906073       -4.42782315253825       -0.97619038203287
H           12.97221236397304       -2.87888096520166       -4.07024700720709
H           13.89778658069684       -3.90335877352896       -5.20730748563908
H           14.74296378896556       -3.11223752086011       -3.84138816440280
H           13.71307985529222       -6.21523194484653       -4.86720129373848
H           14.16297070375181       -8.71091612056177       -4.25984201922056
H           13.25751090914533       -9.36104671317089       -2.85804756982366
H           12.36357557849433       -8.67050928694348       -4.25568672216419
H           12.84520503055821       -7.90057913429440       -1.02309282604913
H           11.84371597381042       -5.07006446885159        0.57851843499444
H           13.61602105606707       -5.04724556475317        0.89333846900157
H           12.72069084952447       -6.59387834500819        0.91757853240916
H           10.58213625410325       -4.03046937588528       -1.99336526520875
H            8.88826950701820       -2.21294521861932       -1.26915211586885
Zn          31.55603293843916        0.00590340578891        0.00057096454387
C           34.93044045506709       -0.10330892373535       -0.05844975721020
C           34.25675395650272       -1.20931947018164       -0.44706170342052
C           34.90683723059049       -2.44469904769517       -0.85638495936297
C           33.95156796900079       -3.30541933722077       -1.20037037879893
C           32.66069964793147       -2.63925136716759       -1.02210423897375
N           32.85847887326063       -1.32912466614976       -0.54547524835942
C           31.45207010751893       -3.20049570061447       -1.30683858763231
C           31.41642923484791       -4.59345614424455       -1.83705229054224
C           31.50236578775831       -4.82628083155592       -3.22644525910748
C           31.64020175883000       -3.68033750117190       -4.20119676386990
C           31.45983384980053       -6.13866130776103       -3.70869322221123
C           31.33850967170865       -7.22008242716924       -2.83299634380787
C           31.25545840045495       -8.62386288104428       -3.36858089206175
C           31.23228238318953       -6.98434742640384       -1.46036752814191
C           31.27793100518276       -5.68263850265951       -0.95035469237836
C           31.16688545822551       -5.46369166693294        0.54019860323043
C           30.17936613187213       -2.51288833233609       -1.12545897305939
C           28.88985336831737       -3.05319635922341       -1.54783512141807
C           27.94663076766771       -2.17669002431257       -1.19761803939132
N           30.03232700533923       -1.34693710337184       -0.53866745305539
C           28.66279521918151       -1.08953506253253       -0.55579393837367
C           28.12808663983544        0.00663679314056        0.00607629309648
C           28.82311359499580        1.09488799291201        0.64835630113006
C           28.23851287133152        2.06044198441561        1.40182669773429
C           29.26949171763706        2.97111924220858        1.77496790402590
C           30.42979013648959        2.51968617900618        1.23101053745061
N           30.19780179489468        1.32528844286207        0.51234562846822
C           31.70916048343413        3.22842707203363        1.33568101887484
C           31.72658400660871        4.63185164284704        1.84978869721134
C           31.49141309070995        5.70967135888280        0.96837584184004
C           31.22400892959443        5.47048484546034       -0.49888682818021
C           31.49563633537328        7.01848777961050        1.46234274593148
C           31.73461150975622        7.27349003959159        2.81481623359877
C           31.75844483021330        8.69295910266495        3.31392571462325
C           31.98174148187906        6.20680875826267        3.68183805813443
C           31.97171685428394        4.88691143350931        3.21702543082693
C           32.23273715540848        3.75727266264747        4.18568660377960
C           32.88319023702728        2.65458151530898        0.98094211446080
C           34.19561639499720        3.27824211617474        1.04951125738584
C           35.06981557703141        2.34384604341269        0.67138830961098
C           34.31546134916254        1.13735438748825        0.35904935663886
N           33.02828222772833        1.31871083953668        0.53919124238728
H           36.01390327417135       -0.14712692838199       -0.06346938899509
H           35.96878874480417       -2.64652463620372       -0.88629682010778
H           34.13100929992792       -4.31166336825849       -1.55208614067544
H           32.58687797268124       -3.14254736561413       -4.01437802193907
H           30.79519703933844       -2.97930231155310       -4.08005141601850
H           31.64493251630683       -4.03416481919443       -5.24793101826374
H           31.51907430947660       -6.32433599674880       -4.77751029268240
H           31.67496177718990       -9.34351159539228       -2.64345244312474
H           30.19692260313299       -8.87968319444497       -3.55826953700141
H           31.82237433553320       -8.71674595723618       -4.31176870181433
H           31.11242864341121       -7.82639132288467       -0.78435928819143
H           30.25674447199046       -4.87898249095449        0.76456174371251
H           31.10807284944343       -6.42056019632684        1.08934046717321
H           32.05104837180856       -4.91210225462830        0.90649996489269
H           28.70753095699683       -3.98714162555288       -2.05099226798416
H           26.88528905105127       -2.30002203989459       -1.37527288597878
H           27.19222509111636        2.13850150563722        1.65482017334032
H           29.15606488485364        3.86904561646284        2.36039204228823
H           32.05405812026866        4.89353066690751       -0.94460899669504
H           31.12848552296325        6.41999195718133       -1.05581163463856
H           30.28331171075430        4.90347448504114       -0.61790672937812
H           31.31319181417279        7.85273185975608        0.79017422647852
H           30.86330268327609        9.23308876809108        2.95626386321393
H           31.76876102873985        8.73171388175306        4.41787775986150
H           32.66269578073103        9.20105605464633        2.93128738247558
H           32.18106620758717        6.40747410277144        4.73082924751485
H           33.18255786584779        3.25618136254286        3.92688542020351
H           31.41025117755729        3.02175950118780        4.13825571974346
H           32.30558084508647        4.12100151107680        5.22651970386107
H           34.44409921468753        4.28658830736983        1.35131075343669
H           36.13801457424493        2.47371167223167        0.61556451483054
C           18.16113784988712        0.00469033572454        0.00698140134641
C           19.43567946124876       -0.00828287630754       -0.00829078145629
C           20.66128053413970       -0.02835906141663       -0.00882101368209
C           21.94645836601732       -0.04037039403748       -0.01133012521923
C           23.21193338913631       -0.03061654041208       -0.01617629978660
C           24.42544924646815       -0.01182338692155       -0.02206903909826
C           25.69594792438473        0.01661471981198       -0.00626567743930
C           26.87433151697700        0.02587293648784        0.01435225158773
156
 energy: -237.973942297176 gnorm: 0.178434201895 xtb: 6.5.1 (b24c23e)
Zn          13.46863146413026       -0.00217035598614       -0.00292070055062
C           10.09611110368640        0.09717221802106        0.02082957941157
C           10.77132975473656        1.18165670018168        0.51499401014801
C           10.12025552909953        2.34929769351431        1.07090220103821
C           11.08473049915140        3.21656105300911        1.42165862439363
C           12.36301100597536        2.61077973254291        1.09035852200836
N           12.14323507156670        1.35686351155730        0.53916020545310
C           13.58689115719683        3.21749442823772        1.27303226606296
C           13.61508380194191        4.59192446007232        1.85563149093732
C           13.52473724468585        5.71618038627684        1.01747965234769
C           13.38682584784707        5.56040602610938       -0.47987665224811
C           13.56599588339895        6.99150939851528        1.57649630237779
C           13.69153356650598        7.16735892771361        2.95231616665029
C           13.76893001064539        8.55281828233490        3.53911433513245
C           13.79229545483448        6.04856045819918        3.77563597422452
C           13.74954079783408        4.76134949271320        3.24448061372169
C           13.85883351365008        3.56850936165689        4.16678514654020
C           14.83566102582113        2.62382709403811        0.93969389691841
C           16.11752112703692        3.29011523634066        1.00617238117553
C           17.06302852185553        2.39444967464272        0.64192527025881
N           14.99749248137112        1.36057238913326        0.53739907603876
C           16.34116958163881        1.18491643365581        0.35492696779382
C           16.87591967122761       -0.03310027406085       -0.00680621426152
C           16.17983342811750       -1.24641226238894       -0.29962844184484
C           16.78559401430819       -2.48481275921970       -0.42677946079981
C           15.77887536901851       -3.38155809824199       -0.78251829847258
C           14.58984811911946       -2.66988164509362       -0.86427402370540
N           14.82851074076904       -1.33356396045135       -0.54438515255433
C           13.33431409054258       -3.24878116143689       -1.26959917861874
C           13.31320476479097       -4.62494892688194       -1.86941711049411
C           13.53789283605899       -4.79430578145736       -3.24891598437669
C           13.80154407161444       -3.60487624269683       -4.14311020012115
C           13.52884875105438       -6.07595743099420       -3.79729264130057
C           13.28917893392619       -7.19565047679631       -3.00318275150658
C           13.26887971114003       -8.56767819955559       -3.62676521042593
C           13.04571850017555       -7.02274370222039       -1.64375287427364
C           13.05744009349664       -5.75256654269642       -1.06689042183952
C           12.79534539898305       -5.60796625305508        0.41462280244598
C           12.14134204378516       -2.59342750515184       -1.13132665432635
C           10.83558544008075       -3.08971068612838       -1.50872279790249
C            9.94452010478602       -2.14955784859179       -1.13349348600204
C           10.68774218551714       -1.06630100328965       -0.52640936963470
N           11.99097377652799       -1.33620312812084       -0.53676296314883
H            9.01293120767672        0.13985542650694        0.04915035977159
H            9.05792293807118        2.50812770849207        1.18603414991016
H           10.91349145996181        4.18602048458811        1.86476995690997
H           12.44964436623489        5.04532382597089       -0.72127776720493
H           14.22152482384935        4.97335070794615       -0.87972841327746
H           13.38140037697791        6.53321271499985       -0.98469577184972
H           13.50582427514835        7.86461248401624        0.93194487359290
H           13.35758210779932        8.57084032340815        4.55373152509580
H           14.81817686452876        8.87073875050896        3.58108128677684
H           13.21109586465938        9.26885829319089        2.92672548875234
H           13.91130315575728        6.18607696813330        4.84732139985173
H           14.75951366672022        2.99038308715662        3.92927670588847
H           13.91769955366141        3.87770822511339        5.21667389600683
H           12.98494951190908        2.91694268451582        4.05224562168952
H           16.30570809028172        4.30966816720209        1.28670351038336
H           18.12725130277434        2.59198019771593        0.59431157866728
H           17.83272919061059       -2.70013961146554       -0.28788710515857
H           15.88166904428331       -4.43486696891345       -0.97501741927822
H           12.98173197273435       -2.88140951884568       -4.06757420545213
H           13.89624937240485       -3.90438765942792       -5.19329369782812
H           14.73323276203427       -3.11163193199332       -3.84273361482263
H           13.71213844692917       -6.21115332388320       -4.86084277445213
H           14.15326810553610       -8.71127161100655       -4.25756405885791
H           13.25609891697379       -9.35339107345411       -2.86423284456524
H           12.37381433779469       -8.67331848369009       -4.25201293619133
H           12.84700628469218       -7.89396020939683       -1.02418639069098