      -----------------------------------------------------------      
     |                   =====================                   |     
     |                           x T B                           |     
     |                   =====================                   |     
     |                         S. Grimme                         |     
     |          Mulliken Center for Theoretical Chemistry        |     
     |                    University of Bonn                     |     
      -----------------------------------------------------------      

   * xtb version 6.5.1 (b24c23e) compiled by 'conda@728c89f4b128' on 2022-07-12

   xtb is free software: you can redistribute it and/or modify it under
   the terms of the GNU Lesser General Public License as published by
   the Free Software Foundation, either version 3 of the License, or
   (at your option) any later version.
   
   xtb is distributed in the hope that it will be useful,
   but WITHOUT ANY WARRANTY; without even the implied warranty of
   MERCHANTABILITY or FITNESS FOR A PARTICULAR PURPOSE.  See the
   GNU Lesser General Public License for more details.
   
   Cite this work as:
   * C. Bannwarth, E. Caldeweyher, S. Ehlert, A. Hansen, P. Pracht,
     J. Seibert, S. Spicher, S. Grimme, WIREs Comput. Mol. Sci., 2020, 11,
     e01493. DOI: 10.1002/wcms.1493
   
   for GFN2-xTB:
   * C. Bannwarth, S. Ehlert and S. Grimme., J. Chem. Theory Comput., 2019,
     15, 1652-1671. DOI: 10.1021/acs.jctc.8b01176
   for GFN1-xTB:
   * S. Grimme, C. Bannwarth, P. Shushkov, J. Chem. Theory Comput., 2017,
     13, 1989-2009. DOI: 10.1021/acs.jctc.7b00118
   for GFN0-xTB:
   * P. Pracht, E. Caldeweyher, S. Ehlert, S. Grimme, ChemRxiv, 2019, preprint.
     DOI: 10.26434/chemrxiv.8326202.v1
   for GFN-FF:
   * S. Spicher and S. Grimme, Angew. Chem. Int. Ed., 2020, 59, 15665-15673.
     DOI: 10.1002/anie.202004239
   
   for ALPB and GBSA implicit solvation:
   * S. Ehlert, M. Stahn, S. Spicher, S. Grimme, J. Chem. Theory Comput.,
     2021, 17, 4250-4261. DOI: 10.1021/acs.jctc.1c00471
   
   for DFT-D4:
   * E. Caldeweyher, C. Bannwarth and S. Grimme, J. Chem. Phys., 2017,
     147, 034112. DOI: 10.1063/1.4993215
   * E. Caldeweyher, S. Ehlert, A. Hansen, H. Neugebauer, S. Spicher,
     C. Bannwarth and S. Grimme, J. Chem. Phys., 2019, 150, 154122.
     DOI: 10.1063/1.5090222
   * E. Caldeweyher, J.-M. Mewes, S. Ehlert and S. Grimme, Phys. Chem. Chem. Phys.
     2020, 22, 8499-8512. DOI: 10.1039/D0CP00502A
   
   for sTDA-xTB:
   * S. Grimme and C. Bannwarth, J. Chem. Phys., 2016, 145, 054103.
     DOI: 10.1063/1.4959605
   
   in the mass-spec context:
   * V. Asgeirsson, C. Bauer and S. Grimme, Chem. Sci., 2017, 8, 4879.
     DOI: 10.1039/c7sc00601b
   * J. Koopman and S. Grimme, ACS Omega 2019, 4, 12, 15120-15133.
     DOI: 10.1021/acsomega.9b02011
   
   for metadynamics refer to:
   * S. Grimme, J. Chem. Theory Comput., 2019, 155, 2847-2862
     DOI: 10.1021/acs.jctc.9b00143
   
   for SPH calculations refer to:
   * S. Spicher and S. Grimme, J. Chem. Theory Comput., 2021, 17, 1701-1714
     DOI: 10.1021/acs.jctc.0c01306
   
   with help from (in alphabetical order)
   P. Atkinson, C. Bannwarth, F. Bohle, G. Brandenburg, E. Caldeweyher
   M. Checinski, S. Dohm, S. Ehlert, S. Ehrlich, I. Gerasimov, C. Hölzer
   A. Katbashev, J. Koopman, C. Lavigne, S. Lehtola, F. März, M. Müller,
   F. Musil, H. Neugebauer, J. Pisarek, C. Plett, P. Pracht, F. Pultar,
   J. Seibert, P. Shushkov, S. Spicher, M. Stahn, M. Steiner, T. Strunk,
   J. Stückrath, T. Rose, and J. Unsleber
   
 * started run on 2022/07/30 at 08:13:56.234     

           -------------------------------------------------
          |                Calculation Setup                |
           -------------------------------------------------

          program call               : xtb xtbopt.xyz --gfn 1 --vipea
          hostname                   : cx3-15-11.cx3.hpc.ic.ac.uk
          coordinate file            : xtbopt.xyz
          omp threads                :                     1

   ID    Z sym.   atoms
    1   29 Cu     1, 61
    2    6 C      2-6, 8-12, 16-20, 22-27, 29-33, 37-42, 62-66, 68-72, 76-80,
                  82-87, 89-93, 97-102, 121-126
    3    7 N      7, 13, 21, 28, 34, 43, 67, 73, 81, 88, 94, 103
    4    8 O      14, 15, 35, 36, 74, 75, 95, 96
    5    1 H      44-60, 104-120

           -------------------------------------------------
          |                 I P E A - x T B                 |
           -------------------------------------------------

        Reference                      10.1039/c7sc00601b
      * Hamiltonian:
        H0-scaling (s, p, d)           2.150000    2.300000    2.000000
        zeta-weighting                 0.000000
      * Dispersion:
        s8                             2.400000
        a1                             0.630000
        a2                             5.000000
        s9                             0.000000
      * Repulsion:
        kExp                           1.500000
        rExp                           1.000000
      * Coulomb:
        alpha                          1.000000
        third order                    atomic
        anisotropic                    false
      * Halogen bond correction:
        rad-scale                      1.300000
        damping                        0.440000


          ...................................................
          :                      SETUP                      :
          :.................................................:
          :  # basis functions                 538          :
          :  # atomic orbitals                 536          :
          :  # shells                          344          :
          :  # electrons                       444          :
          :  # halogen bonds                     0          :
          :  max. iterations                   250          :
          :  Hamiltonian                  GFN1-xTB          :
          :  restarted?                      false          :
          :  GBSA solvation                  false          :
          :  PC potential                    false          :
          :  electronic temp.          300.0000000     K    :
          :  accuracy                    1.0000000          :
          :  -> integral cutoff          0.2500000E+02      :
          :  -> integral neglect         0.1000000E-07      :
          :  -> SCF convergence          0.1000000E-05 Eh   :
          :  -> wf. convergence          0.2000000E-04 e    :
          :  Broyden damping             0.4000000          :
          ...................................................

 iter      E             dE          RMSdq      gap      omega  full diag
   1   -283.9551412 -0.283955E+03  0.102E+01    0.01       0.0  T
   2   -284.0756116 -0.120470E+00  0.631E+00    0.01       1.0  T
   3   -279.5683531  0.450726E+01  0.470E+00    0.13       1.0  T
   4   -284.3876333 -0.481928E+01  0.114E+00    0.65       1.0  T
   5   -284.5695687 -0.181935E+00  0.942E-01    0.45       1.0  T
   6   -284.7224381 -0.152869E+00  0.519E-01    0.04       1.0  T
   7   -284.6706130  0.518250E-01  0.718E-01    0.14       1.0  T
   8   -284.7625150 -0.919020E-01  0.399E-01    0.06       1.0  T
   9   -284.7626361 -0.121114E-03  0.398E-01    0.06       1.0  T
  10   -284.7754281 -0.127919E-01  0.336E-01    0.04       1.0  T
  11   -284.7999969 -0.245688E-01  0.172E-01    0.02       1.0  T
  12   -284.8033729 -0.337607E-02  0.124E-01    0.02       1.0  T
  13   -284.8076350 -0.426205E-02  0.219E-02    0.01       1.0  T
  14   -284.8077239 -0.888638E-04  0.122E-02    0.01       1.0  T
  15   -284.8077603 -0.364176E-04  0.428E-03    0.01       2.1  T
  16   -284.8077651 -0.484353E-05  0.720E-04    0.01      12.4  T
  17   -284.8077628  0.234868E-05  0.297E-03    0.01       3.0  T
  18   -284.8077652 -0.241821E-05  0.300E-04    0.01      29.7  T
  19   -284.8077652 -0.234173E-07  0.691E-05    0.01     128.9  T
  20   -284.8077652  0.359535E-08  0.127E-04    0.01      70.2  T

   *** convergence criteria satisfied after 20 iterations ***

         #    Occupation            Energy/Eh            Energy/eV
      -------------------------------------------------------------
         1        2.0000           -1.1853607             -32.2553
       ...           ...                  ...                  ...
       216        2.0000           -0.4270247             -11.6199
       217        2.0000           -0.4137782             -11.2595
       218        2.0000           -0.4027208             -10.9586
       219        2.0000           -0.4027118             -10.9583
       220        2.0000           -0.4003555             -10.8942
       221        2.0000           -0.3850981             -10.4791
       222        0.9708           -0.3298020              -8.9744 (HOMO)
       223        0.7995           -0.3294713              -8.9654 (LUMO)
       224        0.2289           -0.3279137              -8.9230
       225        0.0004           -0.3217743              -8.7559
       226        0.0004           -0.3217279              -8.7547
       227                         -0.3136498              -8.5348
       ...                                ...                  ...
       536                        507.5021693           13809.8369
      -------------------------------------------------------------
                  HL-Gap            0.0003307 Eh            0.0090 eV
             Fermi-level           -0.3298575 Eh           -8.9759 eV

 SCC (total)                   0 d,  0 h,  0 min,  2.733 sec
 SCC setup                      ...        0 min,  0.003 sec (  0.106%)
 Dispersion                     ...        0 min,  0.004 sec (  0.142%)
 classical contributions        ...        0 min,  0.002 sec (  0.057%)
 integral evaluation            ...        0 min,  0.311 sec ( 11.387%)
 iterations                     ...        0 min,  1.710 sec ( 62.572%)
 molecular gradient             ...        0 min,  0.683 sec ( 24.968%)
 printout                       ...        0 min,  0.021 sec (  0.765%)

         :::::::::::::::::::::::::::::::::::::::::::::::::::::
         ::                     SUMMARY                     ::
         :::::::::::::::::::::::::::::::::::::::::::::::::::::
         :: total energy            -279.971494737165 Eh    ::
         :: gradient norm              0.100133702497 Eh/a0 ::
         :: HOMO-LUMO gap              0.008998668073 eV    ::
         ::.................................................::
         :: SCC energy              -284.807765208885 Eh    ::
         :: -> electrostatic           0.219215529363 Eh    ::
         :: repulsion energy           4.948547973106 Eh    ::
         :: dispersion energy         -0.112277501386 Eh    ::
         :: halogen bond corr.         0.000000000000 Eh    ::
         :: add. restraining           0.000000000000 Eh    ::
         :: total charge              -0.000000000001 e     ::
         :::::::::::::::::::::::::::::::::::::::::::::::::::::

           ------------------------------------------------- 
          |        vertical delta SCC IP calculation        |
           ------------------------------------------------- 
   1   -284.4282049 -0.284428E+03  0.306E-01    0.01       0.0  T
   2   -284.4389313 -0.107265E-01  0.122E-01    0.00       1.0  T
   3   -284.4400038 -0.107243E-02  0.851E-02    0.00       1.0  T
   4   -284.4375360  0.246774E-02  0.115E-01    0.03       1.0  T
   5   -284.4170815  0.204545E-01  0.282E-01    0.10       1.0  T
   6   -284.4407961 -0.237145E-01  0.326E-02    0.00       1.0  T
   7   -284.4409899 -0.193829E-03  0.143E-02    0.00       1.0  T
   8   -284.4410471 -0.572260E-04  0.344E-03    0.00       2.6  T
   9   -284.4410492 -0.209169E-05  0.202E-03    0.00       4.4  T
  10   -284.4410500 -0.728732E-06  0.109E-03    0.00       8.2  T
  11   -284.4410500 -0.392561E-08  0.951E-04    0.00       9.4  T
  12   -284.4410502 -0.262866E-06  0.225E-04    0.00      39.7  T
  13   -284.4410502 -0.993907E-08  0.839E-05    0.00     106.2  T
  14   -284.4410502 -0.633520E-09  0.511E-05    0.00     174.4  T
     SCC iter.                  ...        0 min,  1.186 sec
     gradient                   ...        0 min,  0.683 sec
------------------------------------------------------------------------
empirical IP shift (eV):    4.8455
delta SCC IP (eV):    5.1333
------------------------------------------------------------------------
           ------------------------------------------------- 
          |        vertical delta SCC EA calculation        |
           ------------------------------------------------- 
   1   -285.0423109 -0.285042E+03  0.705E-01    0.21       0.0  T
   2   -284.9136014  0.128710E+00  0.897E-01    0.00       1.0  T
   3   -285.0661232 -0.152522E+00  0.559E-01    0.17       1.0  T
   4   -285.0612656  0.485762E-02  0.427E-01    0.03       1.0  T
   5   -284.9908324  0.704332E-01  0.600E-01    0.03       1.0  T
   6   -285.0573903 -0.665579E-01  0.306E-01    0.01       1.0  T
   7   -285.0303837  0.270067E-01  0.458E-01    0.03       1.0  T
   8   -285.1015632 -0.711796E-01  0.828E-02    0.03       1.0  T
   9   -285.1033282 -0.176497E-02  0.448E-02    0.02       1.0  T
  10   -285.1026994  0.628821E-03  0.640E-02    0.02       1.0  T
  11   -285.1018241  0.875290E-03  0.681E-02    0.02       1.0  T
  12   -285.1037651 -0.194096E-02  0.105E-02    0.02       1.0  T
  13   -285.1038300 -0.649737E-04  0.407E-03    0.02       2.2  T
  14   -285.1038223  0.768216E-05  0.594E-03    0.02       1.5  T
  15   -285.1038306 -0.827407E-05  0.337E-03    0.02       2.6  T
  16   -285.1038314 -0.760856E-06  0.261E-03    0.02       3.4  T
  17   -285.1038341 -0.270324E-05  0.360E-04    0.02      24.8  T
  18   -285.1038341 -0.487138E-07  0.119E-04    0.02      75.0  T
  19   -285.1038341  0.172474E-08  0.164E-04    0.02      54.2  T
     SCC iter.                  ...        0 min,  1.546 sec
     gradient                   ...        0 min,  0.674 sec
------------------------------------------------------------------------
empirical EA shift (eV):    4.8455
delta SCC EA (eV):    3.2109
------------------------------------------------------------------------
           -------------------------------------------------
          |                Property Printout                |
           -------------------------------------------------

    * Orbital Energies and Occupations

         #    Occupation            Energy/Eh            Energy/eV
      -------------------------------------------------------------
         1        2.0000           -1.1353652             -30.8949
       ...           ...                  ...                  ...
       211        2.0000           -0.3763253             -10.2403
       212        2.0000           -0.3691419             -10.0449
       213        2.0000           -0.3672212              -9.9926
       214        2.0000           -0.3671932              -9.9918
       215        2.0000           -0.3671881              -9.9917
       216        2.0000           -0.3631491              -9.8818
       217        2.0000           -0.3488441              -9.4925
       218        2.0000           -0.3393354              -9.2338
       219        2.0000           -0.3393236              -9.2335
       220        2.0000           -0.3370962              -9.1729
       221        2.0000           -0.3213834              -8.7453
       222        1.1567           -0.2652891              -7.2189
       223        0.9451           -0.2648453              -7.2068 (HOMO)
       224        0.5501           -0.2639572              -7.1826 (LUMO)
       225        0.1750           -0.2625888              -7.1454
       226        0.1731           -0.2625772              -7.1451
       227        0.0000           -0.2532970              -6.8926
       228        0.0000           -0.2532525              -6.8914
       229        0.0000           -0.2497963              -6.7973
       230                         -0.2447777              -6.6607
       231                         -0.2447092              -6.6589
       232                         -0.2136057              -5.8125
       233                         -0.2035804              -5.5397
       234                         -0.2023852              -5.5072
       ...                                ...                  ...
       536                        507.5651817           13811.5516
      -------------------------------------------------------------
                  HL-Gap            0.0008882 Eh            0.0242 eV
             Fermi-level           -0.2649599 Eh           -7.2099 eV

  Mulliken/CM5 charges         n(s)   n(p)   n(d)
     1Cu    0.28386  0.63828   0.535  0.890  9.291
     2C    -0.02727 -0.06854   1.083  2.944  0.000
     3C     0.05701  0.11842   1.116  2.827  0.000
     4C    -0.04052 -0.08671   1.086  2.954  0.000
     5C    -0.03846 -0.08426   1.079  2.959  0.000
     6C     0.05726  0.12248   1.107  2.836  0.000
     7N    -0.21439 -0.46475   1.326  3.888  0.000
     8C     0.00535  0.01067   1.085  2.910  0.000
     9C     0.01751  0.00884   1.095  2.887  0.000
    10C    -0.01596 -0.06903   1.078  2.938  0.000
    11C    -0.01052 -0.05724   1.090  2.920  0.000
    12C     0.04138  0.09596   1.116  2.843  0.000
    13N     0.28930  0.11722   1.470  3.240  0.000
    14O    -0.28278 -0.24185   1.674  4.608  0.000
    15O    -0.28181 -0.24087   1.674  4.608  0.000
    16C    -0.01102 -0.05774   1.090  2.921  0.000
    17C    -0.01668 -0.06973   1.077  2.939  0.000
    18C     0.05592  0.12036   1.104  2.840  0.000
    19C    -0.03919 -0.08498   1.077  2.962  0.000
    20C    -0.03851 -0.08378   1.084  2.954  0.000
    21N    -0.21123 -0.46100   1.328  3.883  0.000
    22C     0.06177  0.12787   1.120  2.818  0.000
    23C     0.01244  0.01925   1.080  2.908  0.000
    24C     0.06171  0.12781   1.120  2.818  0.000
    25C    -0.03855 -0.08381   1.085  2.954  0.000
    26C    -0.03920 -0.08497   1.077  2.962  0.000
    27C     0.05589  0.12033   1.104  2.840  0.000
    28N    -0.21139 -0.46096   1.328  3.883  0.000
    29C     0.00532  0.01063   1.085  2.910  0.000
    30C     0.01754  0.00888   1.095  2.887  0.000
    31C    -0.01671 -0.06976   1.077  2.939  0.000
    32C    -0.01104 -0.05776   1.090  2.921  0.000
    33C     0.04138  0.09595   1.116  2.843  0.000
    34N     0.28937  0.11728   1.470  3.240  0.000
    35O    -0.28272 -0.24178   1.674  4.608  0.000
    36O    -0.28180 -0.24087   1.674  4.608  0.000
    37C    -0.01049 -0.05721   1.090  2.920  0.000
    38C    -0.01592 -0.06898   1.077  2.939  0.000
    39C     0.05725  0.12248   1.107  2.836  0.000
    40C    -0.03847 -0.08425   1.079  2.959  0.000
    41C    -0.04053 -0.08671   1.086  2.954  0.000
    42C     0.05701  0.11842   1.116  2.827  0.000
    43N    -0.21435 -0.46481   1.326  3.888  0.000
    44H     0.02148  0.08042   0.979  0.000  0.000
    45H     0.02795  0.08451   0.972  0.000  0.000
    46H     0.02203  0.08084   0.978  0.000  0.000
    47H     0.03202  0.09005   0.968  0.000  0.000
    48H     0.04885  0.11277   0.951  0.000  0.000
    49H     0.04778  0.11171   0.952  0.000  0.000
    50H     0.03096  0.08899   0.969  0.000  0.000
    51H     0.02263  0.08155   0.977  0.000  0.000
    52H     0.02550  0.08360   0.975  0.000  0.000
    53H     0.02541  0.08343   0.975  0.000  0.000
    54H     0.02261  0.08149   0.977  0.000  0.000
    55H     0.03089  0.08892   0.969  0.000  0.000
    56H     0.04773  0.11167   0.952  0.000  0.000
    57H     0.04892  0.11285   0.951  0.000  0.000
    58H     0.03217  0.09019   0.968  0.000  0.000
    59H     0.02208  0.08091   0.978  0.000  0.000
    60H     0.02794  0.08450   0.972  0.000  0.000
    61Cu    0.28384  0.63829   0.535  0.890  9.291
    62C    -0.02725 -0.06853   1.083  2.944  0.000
    63C     0.05699  0.11840   1.116  2.827  0.000
    64C    -0.04053 -0.08671   1.086  2.954  0.000
    65C    -0.03847 -0.08426   1.079  2.959  0.000
    66C     0.05726  0.12248   1.107  2.836  0.000
    67N    -0.21441 -0.46479   1.326  3.888  0.000
    68C     0.00532  0.01063   1.085  2.910  0.000
    69C     0.01748  0.00881   1.095  2.888  0.000
    70C    -0.01597 -0.06904   1.078  2.938  0.000
    71C    -0.01053 -0.05725   1.090  2.920  0.000
    72C     0.04137  0.09596   1.116  2.843  0.000
    73N     0.28923  0.11716   1.470  3.240  0.000
    74O    -0.28281 -0.24187   1.674  4.609  0.000
    75O    -0.28188 -0.24096   1.674  4.608  0.000
    76C    -0.01104 -0.05776   1.090  2.921  0.000
    77C    -0.01669 -0.06974   1.077  2.939  0.000
    78C     0.05591  0.12036   1.104  2.840  0.000
    79C    -0.03920 -0.08499   1.077  2.962  0.000
    80C    -0.03851 -0.08379   1.084  2.954  0.000
    81N    -0.21128 -0.46103   1.328  3.883  0.000
    82C     0.06175  0.12785   1.120  2.818  0.000
    83C     0.01243  0.01924   1.080  2.908  0.000
    84C     0.06168  0.12778   1.120  2.818  0.000
    85C    -0.03855 -0.08382   1.085  2.954  0.000
    86C    -0.03920 -0.08498   1.077  2.962  0.000
    87C     0.05589  0.12032   1.104  2.840  0.000
    88N    -0.21141 -0.46100   1.328  3.883  0.000
    89C     0.00528  0.01060   1.085  2.910  0.000
    90C     0.01750  0.00884   1.095  2.887  0.000
    91C    -0.01672 -0.06977   1.077  2.939  0.000
    92C    -0.01106 -0.05779   1.090  2.921  0.000
    93C     0.04136  0.09593   1.116  2.843  0.000
    94N     0.28931  0.11723   1.470  3.240  0.000
    95O    -0.28280 -0.24187   1.674  4.609  0.000
    96O    -0.28180 -0.24086   1.674  4.608  0.000
    97C    -0.01051 -0.05723   1.090  2.920  0.000
    98C    -0.01593 -0.06899   1.077  2.939  0.000
    99C     0.05725  0.12248   1.107  2.836  0.000
   100C    -0.03847 -0.08426   1.079  2.959  0.000
   101C    -0.04053 -0.08672   1.086  2.954  0.000
   102C     0.05699  0.11841   1.116  2.827  0.000
   103N    -0.21437 -0.46483   1.326  3.888  0.000
   104H     0.02149  0.08044   0.979  0.000  0.000
   105H     0.02795  0.08451   0.972  0.000  0.000
   106H     0.02202  0.08084   0.978  0.000  0.000
   107H     0.03201  0.09005   0.968  0.000  0.000
   108H     0.04883  0.11276   0.951  0.000  0.000
   109H     0.04776  0.11169   0.952  0.000  0.000
   110H     0.03093  0.08897   0.969  0.000  0.000
   111H     0.02263  0.08154   0.977  0.000  0.000
   112H     0.02550  0.08359   0.975  0.000  0.000
   113H     0.02541  0.08343   0.975  0.000  0.000
   114H     0.02260  0.08148   0.977  0.000  0.000
   115H     0.03087  0.08890   0.969  0.000  0.000
   116H     0.04771  0.11164   0.952  0.000  0.000
   117H     0.04891  0.11283   0.951  0.000  0.000
   118H     0.03215  0.09017   0.968  0.000  0.000
   119H     0.02207  0.08091   0.978  0.000  0.000
   120H     0.02794  0.08450   0.972  0.000  0.000
   121C    -0.02326 -0.02336   1.076  2.948  0.000
   122C    -0.02326 -0.02336   1.076  2.948  0.000
   123C    -0.02689 -0.02764   1.063  2.964  0.000
   124C    -0.02406 -0.02568   1.091  2.933  0.000
   125C    -0.02689 -0.02764   1.063  2.964  0.000
   126C    -0.02405 -0.02567   1.091  2.933  0.000

Wiberg/Mayer (AO) data.
largest (>0.10) Wiberg bond orders for each atom

 ---------------------------------------------------------------------------
     #   Z sym  total        # sym  WBO       # sym  WBO       # sym  WBO
 ---------------------------------------------------------------------------
     1  29 Cu   2.643 --    43 N    0.601     7 N    0.601    21 N    0.598
                            28 N    0.597
     2   6 C    3.792 --    42 C    1.384     3 C    1.384    44 H    0.998
     3   6 C    3.940 --     2 C    1.384     7 N    1.270     4 C    1.199
     4   6 C    3.833 --     5 C    1.638     3 C    1.199    45 H    0.994
     5   6 C    3.817 --     4 C    1.638     6 C    1.206    46 H    0.999
     6   6 C    3.911 --     8 C    1.358     7 N    1.269     5 C    1.206
     7   7 N    2.945 --     3 C    1.270     6 C    1.269     1 Cu   0.601
     8   6 C    3.813 --     6 C    1.358    18 C    1.352     9 C    1.059
     9   6 C    3.887 --    17 C    1.411    10 C    1.411     8 C    1.059
    10   6 C    3.864 --    11 C    1.469     9 C    1.411    47 H    0.988
    11   6 C    3.891 --    10 C    1.469    12 C    1.399    48 H    0.986
    12   6 C    3.925 --    16 C    1.399    11 C    1.399    13 N    1.010
    13   7 N    4.090 --    15 O    1.556    14 O    1.555    12 C    1.010
    14   8 O    1.985 --    13 N    1.555    15 O    0.372
    15   8 O    1.986 --    13 N    1.556    14 O    0.372
    16   6 C    3.892 --    17 C    1.469    12 C    1.399    49 H    0.987
    17   6 C    3.863 --    16 C    1.469     9 C    1.411    50 H    0.989
    18   6 C    3.895 --     8 C    1.352    21 N    1.257    19 C    1.219
    19   6 C    3.805 --    20 C    1.614    18 C    1.219    51 H    0.998
    20   6 C    3.821 --    19 C    1.614    22 C    1.229    52 H    0.999
    21   7 N    2.959 --    22 C    1.298    18 C    1.257     1 Cu   0.598
    22   6 C    3.911 --    21 N    1.298    23 C    1.282    20 C    1.229
    23   6 C    3.805 --    24 C    1.282    22 C    1.282   124 C    1.234
    24   6 C    3.911 --    28 N    1.298    23 C    1.282    25 C    1.230
    25   6 C    3.822 --    26 C    1.614    24 C    1.230    53 H    0.999
    26   6 C    3.805 --    25 C    1.614    27 C    1.219    54 H    0.998
    27   6 C    3.895 --    29 C    1.352    28 N    1.257    26 C    1.219
    28   7 N    2.959 --    24 C    1.298    27 C    1.257     1 Cu   0.597
    29   6 C    3.812 --    39 C    1.358    27 C    1.352    30 C    1.059
    30   6 C    3.887 --    38 C    1.411    31 C    1.411    29 C    1.059
    31   6 C    3.863 --    32 C    1.469    30 C    1.411    55 H    0.989
    32   6 C    3.892 --    31 C    1.469    33 C    1.399    56 H    0.987
    33   6 C    3.925 --    32 C    1.399    37 C    1.399    34 N    1.010
    34   7 N    4.090 --    36 O    1.556    35 O    1.555    33 C    1.010
    35   8 O    1.985 --    34 N    1.555    36 O    0.372
    36   8 O    1.986 --    34 N    1.556    35 O    0.372
    37   6 C    3.891 --    38 C    1.469    33 C    1.399    57 H    0.986
    38   6 C    3.864 --    37 C    1.469    30 C    1.411    58 H    0.988
    39   6 C    3.911 --    29 C    1.358    43 N    1.269    40 C    1.206
    40   6 C    3.817 --    41 C    1.638    39 C    1.206    59 H    0.999
    41   6 C    3.834 --    40 C    1.638    42 C    1.199    60 H    0.994
    42   6 C    3.940 --     2 C    1.384    43 N    1.270    41 C    1.199
    43   7 N    2.945 --    42 C    1.270    39 C    1.269     1 Cu   0.601
    44   1 H    1.035 --     2 C    0.998
    45   1 H    1.024 --     4 C    0.994
    46   1 H    1.038 --     5 C    0.999
    47   1 H    1.050 --    10 C    0.988
    48   1 H    1.032 --    11 C    0.986
    49   1 H    1.032 --    16 C    0.987
    50   1 H    1.050 --    17 C    0.989
    51   1 H    1.037 --    19 C    0.998
    52   1 H    1.035 --    20 C    0.999
    53   1 H    1.036 --    25 C    0.999
    54   1 H    1.037 --    26 C    0.998
    55   1 H    1.050 --    31 C    0.989
    56   1 H    1.032 --    32 C    0.987
    57   1 H    1.032 --    37 C    0.986
    58   1 H    1.050 --    38 C    0.988
    59   1 H    1.038 --    40 C    0.999
    60   1 H    1.024 --    41 C    0.994
    61  29 Cu   2.644 --   103 N    0.601    67 N    0.601    81 N    0.598
                            88 N    0.597
    62   6 C    3.792 --   102 C    1.384    63 C    1.384   104 H    0.998
    63   6 C    3.940 --    62 C    1.384    67 N    1.270    64 C    1.199
    64   6 C    3.833 --    65 C    1.638    63 C    1.199   105 H    0.994
    65   6 C    3.817 --    64 C    1.638    66 C    1.206   106 H    0.999
    66   6 C    3.911 --    68 C    1.358    67 N    1.269    65 C    1.206
    67   7 N    2.945 --    63 C    1.270    66 C    1.269    61 Cu   0.601
    68   6 C    3.812 --    66 C    1.358    78 C    1.352    69 C    1.059
    69   6 C    3.887 --    77 C    1.411    70 C    1.411    68 C    1.059
    70   6 C    3.864 --    71 C    1.469    69 C    1.411   107 H    0.988
    71   6 C    3.891 --    70 C    1.469    72 C    1.399   108 H    0.986
    72   6 C    3.925 --    76 C    1.399    71 C    1.399    73 N    1.010
    73   7 N    4.090 --    75 O    1.556    74 O    1.555    72 C    1.010
    74   8 O    1.985 --    73 N    1.555    75 O    0.372
    75   8 O    1.986 --    73 N    1.556    74 O    0.372
    76   6 C    3.892 --    77 C    1.469    72 C    1.399   109 H    0.987
    77   6 C    3.863 --    76 C    1.469    69 C    1.411   110 H    0.989
    78   6 C    3.895 --    68 C    1.352    81 N    1.257    79 C    1.219
    79   6 C    3.805 --    80 C    1.614    78 C    1.219   111 H    0.998
    80   6 C    3.821 --    79 C    1.614    82 C    1.230   112 H    0.999
    81   7 N    2.959 --    82 C    1.298    78 C    1.257    61 Cu   0.598
    82   6 C    3.911 --    81 N    1.298    83 C    1.282    80 C    1.230
    83   6 C    3.805 --    84 C    1.282    82 C    1.282   126 C    1.234
    84   6 C    3.911 --    88 N    1.298    83 C    1.282    85 C    1.230
    85   6 C    3.822 --    86 C    1.614    84 C    1.230   113 H    0.999
    86   6 C    3.805 --    85 C    1.614    87 C    1.219   114 H    0.998
    87   6 C    3.895 --    89 C    1.352    88 N    1.257    86 C    1.219
    88   7 N    2.959 --    84 C    1.298    87 C    1.257    61 Cu   0.597
    89   6 C    3.812 --    99 C    1.357    87 C    1.352    90 C    1.059
    90   6 C    3.887 --    98 C    1.411    91 C    1.411    89 C    1.059
    91   6 C    3.863 --    92 C    1.469    90 C    1.411   115 H    0.989
    92   6 C    3.892 --    91 C    1.469    93 C    1.399   116 H    0.987
    93   6 C    3.925 --    92 C    1.399    97 C    1.399    94 N    1.010
    94   7 N    4.090 --    96 O    1.556    95 O    1.555    93 C    1.010
    95   8 O    1.985 --    94 N    1.555    96 O    0.372
    96   8 O    1.986 --    94 N    1.556    95 O    0.372
    97   6 C    3.891 --    98 C    1.469    93 C    1.399   117 H    0.986
    98   6 C    3.863 --    97 C    1.469    90 C    1.411   118 H    0.988
    99   6 C    3.911 --    89 C    1.357   103 N    1.269   100 C    1.206
   100   6 C    3.817 --   101 C    1.638    99 C    1.206   119 H    0.999
   101   6 C    3.834 --   100 C    1.638   102 C    1.199   120 H    0.994
   102   6 C    3.940 --    62 C    1.384   103 N    1.270   101 C    1.199
   103   7 N    2.945 --   102 C    1.270    99 C    1.269    61 Cu   0.601
   104   1 H    1.035 --    62 C    0.998
   105   1 H    1.024 --    64 C    0.994
   106   1 H    1.038 --    65 C    0.999
   107   1 H    1.051 --    70 C    0.988
   108   1 H    1.032 --    71 C    0.986
   109   1 H    1.032 --    76 C    0.987
   110   1 H    1.050 --    77 C    0.989
   111   1 H    1.037 --    79 C    0.998
   112   1 H    1.035 --    80 C    0.999
   113   1 H    1.036 --    85 C    0.999
   114   1 H    1.037 --    86 C    0.998
   115   1 H    1.050 --    91 C    0.989
   116   1 H    1.032 --    92 C    0.987
   117   1 H    1.032 --    97 C    0.986
   118   1 H    1.050 --    98 C    0.988
   119   1 H    1.038 --   100 C    0.999
   120   1 H    1.024 --   101 C    0.994
   121   6 C    3.831 --   122 C    2.359   125 C    1.366   124 C    0.165
   122   6 C    3.831 --   121 C    2.359   123 C    1.366   126 C    0.165
   123   6 C    3.802 --   124 C    2.457   122 C    1.366
   124   6 C    3.764 --   123 C    2.457    23 C    1.234   121 C    0.165
   125   6 C    3.802 --   126 C    2.457   121 C    1.366
   126   6 C    3.764 --   125 C    2.457    83 C    1.234   122 C    0.165
 ---------------------------------------------------------------------------

Topologies differ in total number of bonds
Writing topology from bond orders to xtbtopo.mol

 dipole moment from electron density (au)
     X       Y       Z   
 -42.8434   0.0130  -0.0650  total (Debye):  108.897


           -------------------------------------------------
          | TOTAL ENERGY             -280.267563656054 Eh   |
          | GRADIENT NORM               0.130297117180 Eh/α |
          | HOMO-LUMO GAP               0.024168092210 eV   |
           -------------------------------------------------
########################################################################
[WARNING] Runtime exception occurred
-1- restart_readRestart: Dimension missmatch in restart file.
########################################################################

------------------------------------------------------------------------
 * finished run on 2022/07/30 at 08:14:04.069     
------------------------------------------------------------------------
 total:
 * wall-time:     0 d,  0 h,  0 min,  7.836 sec
 *  cpu-time:     0 d,  0 h,  0 min,  7.790 sec
 * ratio c/w:     0.994 speedup
 SCF:
 * wall-time:     0 d,  0 h,  0 min,  7.506 sec
 *  cpu-time:     0 d,  0 h,  0 min,  7.465 sec
 * ratio c/w:     0.995 speedup

