126
 energy: -250.345752544464 gnorm: 0.534229473444 xtb: 6.5.1 (b24c23e)
Cu          14.44809900000000        0.02866900000000        0.00196400000000
C           11.11135300000000       -0.09632800000000       -0.07573200000000
C           11.77455000000000       -1.24766200000000       -0.21845100000000
C           11.12384300000000       -2.54619300000000       -0.34448400000000
C           12.06433200000000       -3.45930000000000       -0.49891500000000
C           13.36975000000000       -2.78466800000000       -0.49008600000000
N           13.19274300000000       -1.37990200000000       -0.30272900000000
C           14.56221800000000       -3.39472700000000       -0.65270000000000
C           14.60960200000000       -4.85662100000000       -0.88195400000000
C           15.12490200000000       -5.70606000000000        0.10614600000000
C           15.18366300000000       -7.08514300000000       -0.11129700000000
C           14.73087500000000       -7.63730400000000       -1.32403700000000
N           14.78674000000000       -9.05749400000000       -1.55067800000000
O           14.34229000000000       -9.59477900000000       -2.73757500000000
O           15.22637600000000       -9.82573400000000       -0.66956500000000
C           14.22163200000000       -6.77875800000000       -2.31437200000000
C           14.16359600000000       -5.39956400000000       -2.09564100000000
C           15.85523100000000       -2.66153700000000       -0.62358700000000
C           17.14181100000000       -3.26062800000000       -1.00014600000000
C           18.07615500000000       -2.34611300000000       -0.83592500000000
N           15.99598100000000       -1.42759400000000       -0.24597900000000
C           17.39317200000000       -1.15221900000000       -0.35229300000000
C           17.98659000000000       -0.00019600000000        0.00005400000000
C           17.22329600000000        1.17474200000000        0.47774500000000
C           17.75572700000000        2.18761600000000        1.14974900000000
C           16.71213700000000        3.17663100000000        1.33787900000000
C           15.61165300000000        2.70417400000000        0.76372700000000
N           15.84455600000000        1.41525700000000        0.19282600000000
C           14.32971400000000        3.44934400000000        0.66967600000000
C           14.34720900000000        4.91704100000000        0.88152200000000
C           13.68506600000000        5.48554400000000        1.97978100000000
C           13.72215800000000        6.86689700000000        2.18827700000000
C           14.42651800000000        7.70349600000000        1.30483700000000
N           14.46128800000000        9.12598500000000        1.52150900000000
O           13.85618400000000        9.67969600000000        2.62699100000000
O           15.04501100000000        9.87915000000000        0.71429700000000
C           15.09708000000000        7.12701500000000        0.21004800000000
C           15.06012400000000        5.74512600000000        0.00318500000000
C           13.16759300000000        2.82322400000000        0.40247900000000
C           11.85743000000000        3.45614000000000        0.25943500000000
C           10.99597600000000        2.47659600000000        0.06626600000000
C           11.74738800000000        1.22246200000000        0.07091200000000
N           13.01390300000000        1.41221400000000        0.26523800000000
H           10.02787100000000       -0.12450800000000       -0.06988500000000
H           10.05969900000000       -2.74407000000000       -0.31534100000000
H           11.87646100000000       -4.51928800000000       -0.61064800000000
H           15.47885900000000       -5.29925900000000        1.04565000000000
H           15.58422900000000       -7.71910300000000        0.66879600000000
H           13.86918700000000       -7.17243500000000       -3.25911900000000
H           13.77229800000000       -4.75366900000000       -2.87197700000000
H           17.31467600000000       -4.26871100000000       -1.35407300000000
H           19.13174700000000       -2.48537800000000       -1.02890200000000
H           18.78232800000000        2.27886800000000        1.47717000000000
H           16.82229100000000        4.13313800000000        1.83303400000000
H           13.14403400000000        4.85703200000000        2.67688800000000
H           13.20021600000000        7.27993200000000        3.04195200000000
H           15.65534800000000        7.74328700000000       -0.48226200000000
H           15.58701200000000        5.31933900000000       -0.84228800000000
H           11.61406000000000        4.50970500000000        0.29977000000000
H            9.92945000000000        2.59486800000000       -0.07391800000000
Cu          30.87986000000000       -0.02767100000000       -0.00899900000000
C           34.21660600000000        0.11734000000000       -0.03415700000000
C           33.55340900000000        1.23818700000000        0.26523900000000
C           34.20411600000000        2.48923700000000        0.63529700000000
C           33.26362700000000        3.39363000000000        0.83451100000000
C           31.95820900000000        2.76490800000000        0.58973600000000
N           32.13521500000000        1.39238000000000        0.23669500000000
C           30.76574100000000        3.39143100000000        0.66773400000000
C           30.71835700000000        4.83262800000000        1.00335600000000
C           30.20305700000000        5.24959600000000        2.23787000000000
C           30.14429600000000        6.60959600000000        2.55339000000000
C           30.59708300000000        7.57620000000000        1.63616800000000
N           30.54121900000000        8.97775600000000        1.95857500000000
O           30.98566900000000        9.92087900000000        1.05973200000000
O           30.10158300000000        9.35956400000000        3.06346200000000
C           31.10632700000000        7.15162600000000        0.39616600000000
C           31.16436200000000        5.79104100000000        0.08179900000000
C           29.47272800000000        2.70081700000000        0.41980700000000
C           28.18614700000000        3.39739400000000        0.29535500000000
C           27.25180400000000        2.48802400000000        0.10468900000000
N           29.33197800000000        1.41531400000000        0.30718600000000
C           27.93478700000000        1.19989300000000        0.10537500000000
C           27.34136800000000       -0.00019600000000        0.00005400000000
C           28.10466200000000       -1.26852700000000        0.00234000000000
C           27.57223200000000       -2.45947700000000        0.24553000000000
C           28.61582200000000       -3.44687600000000        0.04909300000000
C           29.71630600000000       -2.79360500000000       -0.30601700000000
N           29.48340200000000       -1.38466100000000       -0.35197500000000
C           30.99824500000000       -3.44914400000000       -0.67261400000000
C           30.98075000000000       -4.88919300000000       -1.02655000000000
C           31.64289300000000       -5.82802000000000       -0.22158400000000
C           31.60580100000000       -7.18676900000000       -0.54625000000000
C           30.90144099999999       -7.63107700000000       -1.67892500000000
N           30.86667100000000       -9.03102700000000       -2.01143600000000
O           31.47177400000000       -9.95885000000000       -1.19422700000000
O           30.28294800000000       -9.42657100000000       -3.04216100000000
C           30.23087900000000       -6.68615500000000       -2.47768300000000
C           30.26783400000000       -5.32752100000000       -2.15130300000000
C           32.16036600000000       -2.76851600000000       -0.68554700000000
C           33.47052900000000       -3.30162000000000       -1.05547300000000
C           34.33198300000000       -2.32111200000000       -0.86726000000000
C           33.58057100000000       -1.16021900000000       -0.39270400000000
N           32.31405600000000       -1.40899200000000       -0.28370500000000
H           35.30008800000000        0.14127100000000       -0.01817100000000
H           35.26826000000000        2.66174900000000        0.73650900000000
H           33.45149800000000        4.41817800000000        1.12838100000000
H           29.84910000000000        4.52020000000000        2.95629600000000
H           29.74373000000000        6.90480000000000        3.51427800000000
H           31.45877200000000        7.87082200000000       -0.33204000000000
H           31.55566000000000        5.48336500000000       -0.88008100000000
H           28.01328200000000        4.46463600000000        0.34523900000000
H           26.19621100000000        2.68948700000000       -0.02199000000000
H           26.54563000000000       -2.66684100000000        0.51484700000000
H           28.50566700000000       -4.51926000000000        0.14947200000000
H           32.18392400000000       -5.50675000000000        0.66032900000000
H           32.12774200000000       -7.88976300000000        0.09027100000000
H           29.67261000000000       -6.99787700000000       -3.35056000000000
H           29.74094700000000       -4.61578200000000       -2.77543800000000
H           33.71389900000000       -4.29344200000000       -1.41312400000000
H           35.39850899999999       -2.37819200000000       -1.04156400000000
C           23.26790000000000        0.00111600000000        0.00848600000000
C           22.05896000000000       -0.01233900000000        0.00003900000000
C           20.63743100000000       -0.00352000000000       -0.01194400000000
C           19.42576200000000        0.00391900000000       -0.00108100000000
C           24.68450400000000       -0.00555900000000        0.00901900000000
C           25.90520000000000        0.00391900000000       -0.00108100000000
126
 energy: -250.500526608734 gnorm: 0.328379892426 xtb: 6.5.1 (b24c23e)
Cu          14.45690564606097        0.02154657915861       -0.00261264902196
C           11.11126924424099       -0.07688700140716       -0.07351685004719
C           11.77879593867333       -1.24804606752385       -0.21774013373740
C           11.12404152754904       -2.53852105781168       -0.34356397559048
C           12.07630507367517       -3.46141676407221       -0.49997735282909
C           13.36881742876653       -2.77966294360604       -0.49039893482528
N           13.16962722851443       -1.40256164124657       -0.30485777905111
C           14.57947887564187       -3.39288288885209       -0.65439843503593
C           14.61808830433581       -4.85957426325800       -0.88578291408329
C           15.12693040828161       -5.71588580904150        0.09770326766546
C           15.18183063453734       -7.08990602945673       -0.11729673079351
C           14.72880303955980       -7.64124821933469       -1.33022379183918
N           14.78115889495579       -9.06460798032024       -1.55938133253658
O           14.36182889669491       -9.54586812723766       -2.68086498087403
O           15.21631253053685       -9.80061643068762       -0.69034311148780
C           14.22080503184899       -6.78069598377722       -2.31421464580149
C           14.16364744122874       -5.40859233562782       -2.09179417076998
C           15.84761947837399       -2.68354407592222       -0.62518442043401
C           17.12467372625542       -3.27702566334221       -1.00118053672421
C           18.06976149630870       -2.34156950366310       -0.83273920512733
N           16.00798838799070       -1.42753191360766       -0.25544936498041
C           17.38987751613244       -1.15518439740801       -0.35500362012139
C           17.98666855427414        0.01370381124627        0.01076733044530
C           17.21703425083177        1.17175847094683        0.46500281989970
C           17.76018165283153        2.21533205239938        1.15761604700731
C           16.73867471831471        3.18161314422249        1.34040064113004
C           15.60563539130043        2.69591040758597        0.74912325246309
N           15.85154258648925        1.41696410525893        0.20420263497129
C           14.34818825216194        3.43875019518717        0.66738085157920
C           14.35995235123385        4.91319022626806        0.88741592709149
C           13.68776447808051        5.49124903109035        1.97498100758291
C           13.72188312428110        6.86697264368711        2.18719736690502
C           14.42357570757889        7.70657135060728        1.31036797842620
N           14.45803708947627        9.13244841180345        1.53140395950564
O           13.88165886596193        9.62998506219867        2.57325435103181
O           15.03066677763966        9.85407377624048        0.73294703889281
C           15.09339220950700        7.13018402502809        0.21531443775253
C           15.06086905341201        5.75266495248008        0.01161097619936
C           13.16785601872588        2.82143700670382        0.40160336927016
C           11.86564366448995        3.45240418868799        0.26126804348525
C           10.98303708236845        2.46284635365611        0.06413125929225
C           11.72385606970987        1.21377553018960        0.07061571763453
N           13.01090331217627        1.42415290348022        0.26244746459479
H           10.02829941906144       -0.11389394007036       -0.07056639746720
H           10.06045528006879       -2.73064307865784       -0.31356718014557
H           11.89403264545487       -4.52066347710807       -0.61189202754099
H           15.47751204603381       -5.30453356525662        1.03977372611907
H           15.58208339899615       -7.72544700728922        0.66400132099682
H           13.87013892897152       -7.17794180170584       -3.25876984549849
H           13.77429931413820       -4.75778779566746       -2.86818475957763
H           17.30003736084806       -4.27911388614292       -1.35479086743368
H           19.12661655966976       -2.47104764659282       -1.02396047868843
H           18.78405003502769        2.28967783965067        1.48414872593941
H           16.83290017739829        4.13355314712827        1.83756389987691
H           13.14703891383141        4.86020407421451        2.67312912101534
H           13.20158709948917        7.28419961266715        3.04112330423126
H           15.65198266501455        7.74869196608078       -0.47797132773566
H           15.58484660163190        5.32427623653518       -0.83742572131755
H           11.63031390387717        4.50708090664593        0.30142134086663
H            9.92169665827954        2.58303722308505       -0.07576615392491
Cu          30.87100080086145       -0.01933660945975       -0.01056919491370
C           34.21668965658151        0.09848435912644       -0.03939334194964
C           33.54916034775631        1.23827604662742        0.26604296770125
C           34.20391698514621        2.48177652858588        0.63327193861805
C           33.25165161411164        3.39598821645198        0.83432175068031
C           31.95914509156996        2.76038298602026        0.58757199395645
N           32.15832709557304        1.41417903120880        0.24321336807898
C           30.74848258899328        3.39035819202330        0.66547342857513
C           30.70987693116754        4.83680087141028        1.00091570128695
C           30.20103032904613        5.26187040503701        2.23372789398871
C           30.14612867037592        6.61626071051814        2.54961399782136
C           30.59915519780665        7.58217585816893        1.63191119836620
N           30.54679969598629        8.98761418228481        1.95317395949576
O           30.96612983380421        9.85427223381263        1.09396613773529
O           30.11164726740676        9.34407019004662        3.03478069941768
C           31.10715315048644        7.15336372914816        0.39703851262219
C           31.16431158679512        5.79796840912908        0.08875010444023
C           29.48033893348001        2.72185948263696        0.42657519089213
C           28.20334390485056        3.41309410099907        0.30055466765799
C           27.25820862383469        2.48280167690506        0.10591871811500
N           29.31982904403260        1.41882862156648        0.29832820477672
C           27.93787761974593        1.20396824715727        0.10399678046596
C           27.33996699841733       -0.01663923075346        0.00513193246977
C           28.11047906954615       -1.26077093983401       -0.00839024044536
C           27.56767477485375       -2.48803545699347        0.24243309923474
C           28.58925429861307       -3.45235686296779        0.04956373182057
C           29.72224134116557       -2.78034566269285       -0.31645927616850
N           29.47613436732836       -1.39032579823158       -0.34207031651660
C           30.97973180017965       -3.43841540190137       -0.67075879247514
C           30.96799031112678       -4.88781112534939       -1.01963240398774
C           31.64018982188347       -5.83149897264687       -0.22817342057499
C           31.60607517303854       -7.18642815513206       -0.54727987060482
C           30.90438314418870       -7.63599992561700       -1.67495040709457
N           30.86992181617028       -9.04072772114768       -2.00468605367155
O           31.44629936979222       -9.89261625812104       -1.22540326909223
O           30.29729224064780       -9.41031643521588       -3.01546890544222
C           30.23456764950629       -6.69106375832569       -2.47398778251538
C           30.26708734185802       -5.33766373876517       -2.14631527098765
C           32.16008650554512       -2.76651978895153       -0.68568411078900
C           33.46230454925038       -3.29884148713880       -1.05237123253562
C           34.34491523877237       -2.30756499297916       -0.86408237416218
C           33.60409721991916       -1.15205285723786       -0.38972105362833
N           32.31704564445469       -1.41900032149492       -0.29076433919840
H           35.29965944278629        0.13168569732788       -0.02278299323110
H           35.26750328553499        2.64863473645246        0.73311852630689
H           33.43392527519644        4.41991834953626        1.12774327623600
H           29.85044691255237        4.52729288327237        2.95282582730677
H           29.74587529761053        6.91247864664429        3.51221148245409
H           31.45782002346630        7.87579631616861       -0.32965171124874
H           31.55365887140338        5.48576128465857       -0.87502152686536
H           28.02795994021965        4.47462494157093        0.34848402444825
H           26.20133523852828        2.67441385833033       -0.02277861396778
H           26.54385959562724       -2.67951487250367        0.51727902736578
H           28.49506606158377       -4.52128898796322        0.15351425654904
H           32.18091825036459       -5.50827851956084        0.65565517391354
H           32.12637039025105       -7.89340459659774        0.08790196408413
H           29.67597659499565       -7.00449466442977       -3.34860777701147
H           29.74311046995204       -4.62218089043388       -2.77278295202512
H           33.69763963018860       -4.29162665418646       -1.41060801739060
H           35.40625758098703       -2.36653216721734       -1.03884079534763
C           23.27936613880753        0.00098464320178        0.00687801821746
C           22.04910838844265       -0.01064704299701        0.00003833197927
C           20.65193100667608        0.00038537861403       -0.00887486475587
C           19.42532517553259        0.02265494214592        0.00129685766714
C           24.67464971170748       -0.01021034929501        0.01090154185494
C           25.90209410311425       -0.01784744908482       -0.00658586483329
126
 energy: -250.572339701692 gnorm: 0.133222713552 xtb: 6.5.1 (b24c23e)
Cu          14.47435400026055        0.01601288641690       -0.01001483823755
C           11.11713304358905       -0.05573604408309       -0.07165268550150
C           11.78655976457979       -1.25444752813670       -0.21746791785731
C           11.12483484803810       -2.53198838415629       -0.34257721929793
C           12.08774323255074       -3.46332482004826       -0.50152923851411
C           13.36252306014036       -2.77287204922102       -0.48885321998849
N           13.14139090148139       -1.43209698767970       -0.30532866589525
C           14.60041402598416       -3.38526973902607       -0.65573427453708
C           14.62421848144720       -4.85909772575234       -0.88915063268527
C           15.12773732096294       -5.72416420266023        0.08930020385868
C           15.17916994064125       -7.09421929161106       -0.12462830331286
C           14.72597884203496       -7.64106764585577       -1.33688006500315
N           14.77539360653688       -9.08161221347359       -1.58110294356199
O           14.38340561846675       -9.49066072763322       -2.61245356857840
O           15.20777581003595       -9.77435976500531       -0.70407514095311
C           14.21967550043103       -6.78055428821395       -2.31398987113458
C           14.16505587471396       -5.41394521805253       -2.08895860245461
C           15.83955380088046       -2.70747274150068       -0.62875693234896
C           17.10864242123575       -3.28978180994725       -0.99746864933520
C           18.05979254037195       -2.33653727456715       -0.82865362722940
N           16.02670843441160       -1.42138689279101       -0.26539452720423
C           17.38283939107162       -1.16022278131971       -0.36148714792346
C           17.99049322166275        0.03396804164424        0.02058154617836
C           17.21314094330555        1.16763176696307        0.45125056588358
C           17.76176587580585        2.25074349121130        1.16290446969077
C           16.77339994238433        3.18426073009405        1.33724458239299
C           15.60057241246261        2.68665338911126        0.73294635202189
N           15.86987613714186        1.42488153151388        0.22255023193953
C           14.37528814666813        3.42145074640052        0.66623766438508
C           14.37431467266808        4.90455978812413        0.89435214899038
C           13.69235030648497        5.49233761391034        1.97098209597195
C           13.72136065670698        6.86353557964662        2.18544648237113
C           14.42005130946028        7.70482599197828        1.31626753782461
N           14.44709517372508        9.14917726186559        1.55059794500672
O           13.91436216741885        9.57283978763648        2.50976475317940
O           15.02031840780966        9.82685879037727        0.74632816108091
C           15.08969747781394        7.13218182837818        0.22220575254815
C           15.06240418466016        5.75811179535963        0.02100532658686
C           13.16420377764617        2.81424462926347        0.39833744450382
C           11.87452040721521        3.44518507748030        0.26332075977065
C           10.97417818746465        2.45081013349617        0.06542896374852
C           11.69813517454107        1.20464820072755        0.06945251817666
N           13.01070937506980        1.44261638899345        0.25829568497658
H           10.03254078501954       -0.10711224807797       -0.07404916106549
H           10.06159257429131       -2.71683771548230       -0.31165707250559
H           11.91220576322444       -4.52194723173577       -0.61352230213682
H           15.47689504738727       -5.30955677990818        1.03265885362379
H           15.57874632224003       -7.73297328025981        0.65651511656689
H           13.87048591358311       -7.18341878278176       -3.25768382964313
H           13.77568066787634       -4.76014217721487       -2.86448003748279
H           17.28731795417409       -4.28777582446756       -1.35389147735235
H           19.11815514921379       -2.45603804408913       -1.01891022837144
H           18.78604782300979        2.29813589316450        1.48955256453794
H           16.84097687348829        4.13380624031439        1.84047724357888
H           13.14974346692306        4.86121274422509        2.66935156828241
H           13.20238976964630        7.28700971748899        3.03873420444639
H           15.64625806408967        7.75476489366607       -0.47186651069514
H           15.58373765536871        5.32896217087530       -0.83151336718280
H           11.64737971369245        4.50166468277223        0.30264692949946
H            9.91561926573548        2.57375103191631       -0.07634037773589
Cu          30.85360162785955       -0.01145671757502       -0.01536223162855
C           34.21082414268521        0.07817836717716       -0.04559527708740
C           33.54140056420346        1.24411119761043        0.26869506965430
C           34.20313262866622        2.47535188878995        0.63173895174185
C           33.24023095193578        3.39834348633971        0.83360220066326
C           31.96546200330586        2.75352263483134        0.58646098224725
N           32.18657047532292        1.44174997187065        0.25385596150534
C           30.72759719022994        3.38385581890428        0.66137712580247
C           30.70376114256798        4.83765002858544        0.99762136921558
C           30.20022545144375        5.27270422819884        2.22904563055997
C           30.14878774128874        6.62301402874295        2.54443731305077
C           30.60197990265840        7.58450778456785        1.62567370954944
N           30.55256583902456        9.01152467712243        1.93941383745457
O           30.94455296560627        9.77744252517316        1.13668433532988
O           30.12018243302166        9.32487969801797        3.01220711908077
C           31.10828364245701        7.15315699678422        0.39719389571738
C           31.16290874888174        5.80188095134536        0.09338494765894
C           29.48851657230401        2.74546580758476        0.43223391971501
C           28.21941782251600        3.42354410978695        0.30876503672105
C           27.26832742953471        2.47649478034448        0.10785247351742
N           29.30151894655896        1.41696463064460        0.28689446968435
C           27.94560815932826        1.21099704788050        0.09997908993562
C           27.33717328459716       -0.03879765856534        0.00774177731123
C           28.11444760731995       -1.25180252913497       -0.01940270386721
C           27.56606181870279       -2.52283249499479        0.23407737627856
C           28.55448929046176       -3.45361840593342        0.04563921717436
C           29.72725548649030       -2.76568767228098       -0.32799046006709
N           29.45781193395567       -1.40452650302230       -0.32809524507443
C           30.95260629387310       -3.42192950905079       -0.66532856703115
C           30.95360552801949       -4.88239828822624       -1.00995714845617
C           31.63559505478620       -5.83099804324758       -0.23228777235333
C           31.60659718273754       -7.18257568667214       -0.54761475847085
C           30.90790704475958       -7.63659100461374       -1.66882593106874
N           30.88086277694999       -9.06343114814132       -1.99316276902460
O           31.41359642643206       -9.81583231303897       -1.26283209557565
O           30.30764152323428       -9.39010297810855       -2.99285747785149
C           30.23826371923324       -6.69549592174112       -2.46834778981126
C           30.26554727464304       -5.34623202753530       -2.13964549220767
C           32.16372832421371       -2.75863819594093       -0.68601187018764
C           33.45342298517860       -3.29292511661701       -1.04775791007259
C           34.35376958966633       -2.29689995548975       -0.85836639870422
C           33.62981612462794       -1.14316163342500       -0.38737697732091
N           32.31724574812898       -1.43457327459549       -0.30153661951080
H           35.29541673589922        0.12670465327889       -0.02855267392545
H           35.26637313565605        2.63512001363418        0.72971387418286
H           33.41576275209442        4.42172301074282        1.12671533969090
H           29.85106614254327        4.53461940471200        2.94811230661427
H           29.74921083467391        6.92226595798881        3.50809552931268
H           31.45747293932840        7.88047235787371       -0.32659282666687
H           31.55227926136339        5.48655830973704       -0.87070431618182
H           28.04064524804648        4.48233926586238        0.35255069096162
H           26.20988222834572        2.65845685453294       -0.02371027002307
H           26.54182432917085       -2.68938322883294        0.51914222805559
H           28.48695433390705       -4.52259372891716        0.15612221665412
H           32.17821061863172       -5.50779355123734        0.65177673203376
H           32.12556770860461       -7.89510565834934        0.08463329822843
H           29.68170276345537       -7.01241118734444       -3.34522428977766
H           29.74421501189838       -4.62874095934387       -2.76906040161597
H           33.68057291802694       -4.28706782948456       -1.40744038948090
H           35.41233015843430       -2.35771075364897       -1.03589163531705
C           23.28430412666683       -0.00092374505008        0.00531118095403
C           22.04153313911672       -0.00847477441455       -0.00227829826320
C           20.66738704250861        0.00630274416690       -0.00293125287244
C           19.43062179209554        0.04136875677613        0.01245809027773
C           24.65957452702661       -0.01732741676648        0.00993326062953
C           25.89655962614640       -0.03943268853191       -0.00313894356600
126
 energy: -250.588922743360 gnorm: 0.048573603822 xtb: 6.5.1 (b24c23e)
Cu          14.49069193568839        0.01417909423335       -0.02292319071723
C           11.11874410218411       -0.05486381535568       -0.07351804709953