      -----------------------------------------------------------      
     |                   =====================                   |     
     |                           x T B                           |     
     |                   =====================                   |     
     |                         S. Grimme                         |     
     |          Mulliken Center for Theoretical Chemistry        |     
     |                    University of Bonn                     |     
      -----------------------------------------------------------      

   * xtb version 6.5.1 (b24c23e) compiled by 'conda@728c89f4b128' on 2022-07-12

   xtb is free software: you can redistribute it and/or modify it under
   the terms of the GNU Lesser General Public License as published by
   the Free Software Foundation, either version 3 of the License, or
   (at your option) any later version.
   
   xtb is distributed in the hope that it will be useful,
   but WITHOUT ANY WARRANTY; without even the implied warranty of
   MERCHANTABILITY or FITNESS FOR A PARTICULAR PURPOSE.  See the
   GNU Lesser General Public License for more details.
   
   Cite this work as:
   * C. Bannwarth, E. Caldeweyher, S. Ehlert, A. Hansen, P. Pracht,
     J. Seibert, S. Spicher, S. Grimme, WIREs Comput. Mol. Sci., 2020, 11,
     e01493. DOI: 10.1002/wcms.1493
   
   for GFN2-xTB:
   * C. Bannwarth, S. Ehlert and S. Grimme., J. Chem. Theory Comput., 2019,
     15, 1652-1671. DOI: 10.1021/acs.jctc.8b01176
   for GFN1-xTB:
   * S. Grimme, C. Bannwarth, P. Shushkov, J. Chem. Theory Comput., 2017,
     13, 1989-2009. DOI: 10.1021/acs.jctc.7b00118
   for GFN0-xTB:
   * P. Pracht, E. Caldeweyher, S. Ehlert, S. Grimme, ChemRxiv, 2019, preprint.
     DOI: 10.26434/chemrxiv.8326202.v1
   for GFN-FF:
   * S. Spicher and S. Grimme, Angew. Chem. Int. Ed., 2020, 59, 15665-15673.
     DOI: 10.1002/anie.202004239
   
   for ALPB and GBSA implicit solvation:
   * S. Ehlert, M. Stahn, S. Spicher, S. Grimme, J. Chem. Theory Comput.,
     2021, 17, 4250-4261. DOI: 10.1021/acs.jctc.1c00471
   
   for DFT-D4:
   * E. Caldeweyher, C. Bannwarth and S. Grimme, J. Chem. Phys., 2017,
     147, 034112. DOI: 10.1063/1.4993215
   * E. Caldeweyher, S. Ehlert, A. Hansen, H. Neugebauer, S. Spicher,
     C. Bannwarth and S. Grimme, J. Chem. Phys., 2019, 150, 154122.
     DOI: 10.1063/1.5090222
   * E. Caldeweyher, J.-M. Mewes, S. Ehlert and S. Grimme, Phys. Chem. Chem. Phys.
     2020, 22, 8499-8512. DOI: 10.1039/D0CP00502A
   
   for sTDA-xTB:
   * S. Grimme and C. Bannwarth, J. Chem. Phys., 2016, 145, 054103.
     DOI: 10.1063/1.4959605
   
   in the mass-spec context:
   * V. Asgeirsson, C. Bauer and S. Grimme, Chem. Sci., 2017, 8, 4879.
     DOI: 10.1039/c7sc00601b
   * J. Koopman and S. Grimme, ACS Omega 2019, 4, 12, 15120-15133.
     DOI: 10.1021/acsomega.9b02011
   
   for metadynamics refer to:
   * S. Grimme, J. Chem. Theory Comput., 2019, 155, 2847-2862
     DOI: 10.1021/acs.jctc.9b00143
   
   for SPH calculations refer to:
   * S. Spicher and S. Grimme, J. Chem. Theory Comput., 2021, 17, 1701-1714
     DOI: 10.1021/acs.jctc.0c01306
   
   with help from (in alphabetical order)
   P. Atkinson, C. Bannwarth, F. Bohle, G. Brandenburg, E. Caldeweyher
   M. Checinski, S. Dohm, S. Ehlert, S. Ehrlich, I. Gerasimov, C. Hölzer
   A. Katbashev, J. Koopman, C. Lavigne, S. Lehtola, F. März, M. Müller,
   F. Musil, H. Neugebauer, J. Pisarek, C. Plett, P. Pracht, F. Pultar,
   J. Seibert, P. Shushkov, S. Spicher, M. Stahn, M. Steiner, T. Strunk,
   J. Stückrath, T. Rose, and J. Unsleber
   
 * started run on 2022/07/30 at 06:21:47.547     

           -------------------------------------------------
          |                Calculation Setup                |
           -------------------------------------------------

          program call               : xtb xtbopt.xyz --gfn 1 --vipea
          hostname                   : cx3-15-15.cx3.hpc.ic.ac.uk
          coordinate file            : xtbopt.xyz
          omp threads                :                     1

   ID    Z sym.   atoms
    1   28 Ni     1, 63
    2    6 C      2-6, 8-11, 13, 15, 17-20, 22-27, 29-32, 34, 36, 38-42,
                  64-68, 70-73, 75, 77, 79-82, 84-89, 91-94, 96, 98, 100-104,
                  125, 126
    3    7 N      7, 21, 28, 43, 69, 83, 90, 105
    4    8 O      12, 14, 16, 33, 35, 37, 74, 76, 78, 95, 97, 99
    5    1 H      44-62, 106-124

           -------------------------------------------------
          |                 I P E A - x T B                 |
           -------------------------------------------------

        Reference                      10.1039/c7sc00601b
      * Hamiltonian:
        H0-scaling (s, p, d)           2.150000    2.300000    2.000000
        zeta-weighting                 0.000000
      * Dispersion:
        s8                             2.400000
        a1                             0.630000
        a2                             5.000000
        s9                             0.000000
      * Repulsion:
        kExp                           1.500000
        rExp                           1.000000
      * Coulomb:
        alpha                          1.000000
        third order                    atomic
        anisotropic                    false
      * Halogen bond correction:
        rad-scale                      1.300000
        damping                        0.440000


          ...................................................
          :                      SETUP                      :
          :.................................................:
          :  # basis functions                 526          :
          :  # atomic orbitals                 524          :
          :  # shells                          340          :
          :  # electrons                       434          :
          :  # halogen bonds                     0          :
          :  max. iterations                   250          :
          :  Hamiltonian                  GFN1-xTB          :
          :  restarted?                      false          :
          :  GBSA solvation                  false          :
          :  PC potential                    false          :
          :  electronic temp.          300.0000000     K    :
          :  accuracy                    1.0000000          :
          :  -> integral cutoff          0.2500000E+02      :
          :  -> integral neglect         0.1000000E-07      :
          :  -> SCF convergence          0.1000000E-05 Eh   :
          :  -> wf. convergence          0.2000000E-04 e    :
          :  Broyden damping             0.4000000          :
          ...................................................

 iter      E             dE          RMSdq      gap      omega  full diag
   1   -278.2613235 -0.278261E+03  0.101E+01    0.55       0.0  T
   2   -279.0673434 -0.806020E+00  0.618E+00    1.11       1.0  T
   3   -276.3693392  0.269800E+01  0.427E+00    1.17       1.0  T
   4   -279.5222621 -0.315292E+01  0.125E+00    1.70       1.0  T
   5   -279.9846676 -0.462406E+00  0.219E-01    1.57       1.0  T
   6   -279.9973808 -0.127131E-01  0.907E-02    1.61       1.0  T
   7   -279.9994210 -0.204026E-02  0.395E-02    1.59       1.0  T
   8   -279.9998352 -0.414198E-03  0.169E-02    1.59       1.0  T
   9   -279.9998671 -0.318229E-04  0.613E-03    1.59       1.5  T
  10   -279.9998722 -0.515087E-05  0.267E-03    1.59       3.3  T
  11   -279.9998733 -0.106108E-05  0.883E-04    1.59      10.1  T
  12   -279.9998734 -0.153895E-06  0.474E-04    1.59      18.8  T
  13   -279.9998735 -0.475553E-07  0.150E-04    1.59      59.4  T
  14   -279.9998735 -0.584794E-08  0.514E-05    1.59     173.3  T

   *** convergence criteria satisfied after 14 iterations ***

         #    Occupation            Energy/Eh            Energy/eV
      -------------------------------------------------------------
         1        2.0000           -1.0426391             -28.3717
       ...           ...                  ...                  ...
       211        2.0000           -0.3784612             -10.2985
       212        2.0000           -0.3782952             -10.2939
       213        2.0000           -0.3779900             -10.2856
       214        2.0000           -0.3779780             -10.2853
       215        2.0000           -0.3779522             -10.2846
       216        2.0000           -0.3779452             -10.2844
       217        2.0000           -0.3729530             -10.1486 (HOMO)
       218                         -0.3143641              -8.5543 (LUMO)
       219                         -0.3004074              -8.1745
       220                         -0.3003920              -8.1741
       221                         -0.2934069              -7.9840
       222                         -0.2597279              -7.0676
       ...                                ...                  ...
       524                        537.0541675           14613.9877
      -------------------------------------------------------------
                  HL-Gap            0.0585889 Eh            1.5943 eV
             Fermi-level           -0.3436586 Eh           -9.3514 eV

 SCC (total)                   0 d,  0 h,  0 min,  1.985 sec
 SCC setup                      ...        0 min,  0.002 sec (  0.113%)
 Dispersion                     ...        0 min,  0.003 sec (  0.171%)
 classical contributions        ...        0 min,  0.001 sec (  0.074%)
 integral evaluation            ...        0 min,  0.302 sec ( 15.209%)
 iterations                     ...        0 min,  0.960 sec ( 48.361%)
 molecular gradient             ...        0 min,  0.701 sec ( 35.319%)
 printout                       ...        0 min,  0.015 sec (  0.753%)

         :::::::::::::::::::::::::::::::::::::::::::::::::::::
         ::                     SUMMARY                     ::
         :::::::::::::::::::::::::::::::::::::::::::::::::::::
         :: total energy            -275.537741416802 Eh    ::
         :: gradient norm              0.069928058240 Eh/a0 ::
         :: HOMO-LUMO gap              1.594285595817 eV    ::
         ::.................................................::
         :: SCC energy              -279.999873470722 Eh    ::
         :: -> electrostatic           0.282369372751 Eh    ::
         :: repulsion energy           4.576070221180 Eh    ::
         :: dispersion energy         -0.113938167261 Eh    ::
         :: halogen bond corr.         0.000000000000 Eh    ::
         :: add. restraining           0.000000000000 Eh    ::
         :: total charge               0.000000000000 e     ::
         :::::::::::::::::::::::::::::::::::::::::::::::::::::

           ------------------------------------------------- 
          |        vertical delta SCC IP calculation        |
           ------------------------------------------------- 
   1   -279.5809623 -0.279581E+03  0.162E-01    1.59       0.0  T
   2   -279.5775920  0.337036E-02  0.185E-01    1.55       1.0  T
   3   -279.5898302 -0.122382E-01  0.828E-02    1.58       1.0  T
   4   -279.5915968 -0.176662E-02  0.458E-02    1.58       1.0  T
   5   -279.5915612  0.356301E-04  0.297E-02    1.57       1.0  T
   6   -279.5915194  0.418125E-04  0.306E-02    1.58       1.0  T
   7   -279.5917045 -0.185135E-03  0.968E-03    1.58       1.0  T
   8   -279.5917476 -0.430570E-04  0.622E-03    1.58       1.4  T
   9   -279.5917546 -0.708213E-05  0.366E-03    1.58       2.4  T
  10   -279.5917546  0.962086E-08  0.261E-03    1.58       3.4  T
  11   -279.5917582 -0.354108E-05  0.112E-03    1.58       7.9  T
  12   -279.5917585 -0.367414E-06  0.458E-04    1.58      19.4  T
  13   -279.5917586 -0.619542E-07  0.309E-04    1.58      28.8  T
  14   -279.5917586 -0.249067E-07  0.150E-04    1.58      59.4  T
  15   -279.5917586 -0.768239E-08  0.397E-05    1.58     224.2  T
     SCC iter.                  ...        0 min,  1.014 sec
     gradient                   ...        0 min,  0.702 sec
------------------------------------------------------------------------
empirical IP shift (eV):    4.8455
delta SCC IP (eV):    6.2599
------------------------------------------------------------------------
           ------------------------------------------------- 
          |        vertical delta SCC EA calculation        |
           ------------------------------------------------- 
   1   -280.2452784 -0.280245E+03  0.263E-01    0.41       0.0  T
   2   -280.2666860 -0.214076E-01  0.196E-01    0.24       1.0  T
   3   -280.2742147 -0.752875E-02  0.120E-01    0.31       1.0  T
   4   -280.2752477 -0.103294E-02  0.769E-02    0.27       1.0  T
   5   -280.2754833 -0.235632E-03  0.420E-02    0.29       1.0  T
   6   -280.2756899 -0.206614E-03  0.194E-02    0.28       1.0  T
   7   -280.2757884 -0.984350E-04  0.692E-03    0.28       1.3  T
   8   -280.2757963 -0.797530E-05  0.369E-03    0.28       2.4  T
   9   -280.2757987 -0.238126E-05  0.135E-03    0.28       6.6  T
  10   -280.2757990 -0.248427E-06  0.643E-04    0.28      13.9  T
  11   -280.2757990 -0.576758E-07  0.314E-04    0.28      28.4  T
  12   -280.2757991 -0.276067E-07  0.880E-05    0.28     101.3  T
  13   -280.2757991 -0.106672E-08  0.393E-05    0.28     226.9  T
     SCC iter.                  ...        0 min,  0.883 sec
     gradient                   ...        0 min,  0.700 sec
------------------------------------------------------------------------
empirical EA shift (eV):    4.8455
delta SCC EA (eV):    2.6628
------------------------------------------------------------------------
           -------------------------------------------------
          |                Property Printout                |
           -------------------------------------------------

    * Orbital Energies and Occupations

         #    Occupation            Energy/Eh            Energy/eV
      -------------------------------------------------------------
         1        2.0000           -0.9880244             -26.8855
       ...           ...                  ...                  ...
       206        2.0000           -0.3167252              -8.6185
       207        2.0000           -0.3134333              -8.5290
       208        2.0000           -0.3134163              -8.5285
       209        2.0000           -0.3053586              -8.3092
       210        2.0000           -0.3052928              -8.3074
       211        2.0000           -0.3032838              -8.2528
       212        2.0000           -0.3031208              -8.2483
       213        2.0000           -0.3029092              -8.2426
       214        2.0000           -0.3028627              -8.2413
       215        2.0000           -0.3028498              -8.2410
       216        2.0000           -0.3028416              -8.2407
       217        2.0000           -0.2979052              -8.1064
       218        0.9937           -0.2374878              -6.4624 (HOMO)
       219        0.0032           -0.2272192              -6.1829 (LUMO)
       220        0.0031           -0.2272044              -6.1825
       221                         -0.2171228              -5.9082
       222                         -0.2054304              -5.5900
       223                         -0.2043418              -5.5604
       224                         -0.2012235              -5.4756
       225                         -0.2008601              -5.4657
       226                         -0.1882992              -5.1239
       227                         -0.1882565              -5.1227
       228                         -0.1867192              -5.0809
       229                         -0.1864829              -5.0745
       ...                                ...                  ...
       524                        537.1336422           14616.1504
      -------------------------------------------------------------
                  HL-Gap            0.0102686 Eh            0.2794 eV
             Fermi-level           -0.2501885 Eh           -6.8080 eV

  Mulliken/CM5 charges         n(s)   n(p)   n(d)
     1Ni    0.25021  0.62282   0.577  0.798  8.375
     2C    -0.03653 -0.07785   1.073  2.964  0.000
     3C     0.05506  0.11569   1.111  2.834  0.000
     4C    -0.04595 -0.09244   1.083  2.963  0.000
     5C    -0.04075 -0.08671   1.078  2.963  0.000
     6C     0.05292  0.11690   1.099  2.848  0.000
     7N    -0.21617 -0.46821   1.314  3.902  0.000
     8C     0.00657  0.01191   1.083  2.911  0.000
     9C    -0.00097 -0.00930   1.080  2.921  0.000
    10C    -0.04056 -0.08864   1.064  2.976  0.000
    11C     0.07984  0.09696   1.115  2.805  0.000
    12O    -0.29665 -0.49181   1.630  4.667  0.000
    13C     0.06408  0.08384   1.090  2.846  0.000
    14O    -0.30622 -0.50612   1.622  4.684  0.000
    15C     0.07152  0.08661   1.104  2.825  0.000
    16O    -0.30552 -0.50907   1.623  4.682  0.000
    17C    -0.04677 -0.09627   1.051  2.995  0.000
    18C     0.05188  0.11515   1.097  2.851  0.000
    19C    -0.04172 -0.08775   1.071  2.970  0.000
    20C    -0.04023 -0.08622   1.076  2.964  0.000
    21N    -0.21130 -0.46314   1.317  3.894  0.000
    22C     0.05941  0.12429   1.115  2.826  0.000
    23C     0.00618  0.01302   1.072  2.922  0.000
    24C     0.05986  0.12486   1.115  2.825  0.000
    25C    -0.03988 -0.08583   1.077  2.963  0.000
    26C    -0.04124 -0.08702   1.073  2.968  0.000
    27C     0.05215  0.11560   1.097  2.851  0.000
    28N    -0.21136 -0.46313   1.317  3.895  0.000
    29C     0.00637  0.01171   1.082  2.911  0.000
    30C    -0.00049 -0.00892   1.081  2.919  0.000
    31C    -0.04043 -0.08811   1.064  2.977  0.000
    32C     0.08018  0.09734   1.116  2.804  0.000
    33O    -0.29605 -0.49115   1.630  4.666  0.000
    34C     0.06378  0.08350   1.090  2.847  0.000
    35O    -0.30668 -0.50660   1.622  4.685  0.000
    36C     0.07117  0.08629   1.105  2.824  0.000
    37O    -0.30599 -0.50950   1.624  4.682  0.000
    38C    -0.04759 -0.09662   1.051  2.997  0.000
    39C     0.05254  0.11666   1.099  2.849  0.000
    40C    -0.04145 -0.08720   1.079  2.962  0.000
    41C    -0.04620 -0.09265   1.084  2.962  0.000
    42C     0.05505  0.11576   1.111  2.834  0.000
    43N    -0.21633 -0.46824   1.314  3.902  0.000
    44H     0.01105  0.07003   0.989  0.000  0.000
    45H     0.01830  0.07493   0.982  0.000  0.000
    46H     0.01571  0.07469   0.984  0.000  0.000
    47H     0.02496  0.08553   0.975  0.000  0.000
    48H     0.22879  0.40823   0.771  0.000  0.000
    49H     0.23398  0.41335   0.766  0.000  0.000
    50H     0.22907  0.40154   0.771  0.000  0.000
    51H     0.02487  0.08484   0.975  0.000  0.000
    52H     0.01629  0.07539   0.984  0.000  0.000
    53H     0.01303  0.07175   0.987  0.000  0.000
    54H     0.01285  0.07146   0.987  0.000  0.000
    55H     0.01660  0.07515   0.983  0.000  0.000
    56H     0.02596  0.08619   0.974  0.000  0.000
    57H     0.22896  0.40843   0.771  0.000  0.000
    58H     0.23371  0.41311   0.766  0.000  0.000
    59H     0.22855  0.40105   0.771  0.000  0.000
    60H     0.02498  0.08459   0.975  0.000  0.000
    61H     0.01521  0.07369   0.985  0.000  0.000
    62H     0.01805  0.07466   0.982  0.000  0.000
    63Ni    0.25021  0.62282   0.577  0.798  8.375
    64C    -0.03653 -0.07785   1.073  2.964  0.000
    65C     0.05506  0.11570   1.111  2.834  0.000
    66C    -0.04595 -0.09245   1.083  2.963  0.000
    67C    -0.04075 -0.08671   1.078  2.963  0.000
    68C     0.05292  0.11690   1.099  2.848  0.000
    69N    -0.21617 -0.46821   1.314  3.902  0.000
    70C     0.00657  0.01191   1.083  2.911  0.000
    71C    -0.00097 -0.00930   1.080  2.921  0.000
    72C    -0.04056 -0.08864   1.064  2.976  0.000
    73C     0.07984  0.09696   1.115  2.805  0.000
    74O    -0.29665 -0.49181   1.630  4.667  0.000
    75C     0.06408  0.08384   1.090  2.846  0.000
    76O    -0.30622 -0.50612   1.622  4.684  0.000
    77C     0.07152  0.08661   1.104  2.825  0.000
    78O    -0.30552 -0.50907   1.623  4.682  0.000
    79C    -0.04677 -0.09627   1.051  2.995  0.000
    80C     0.05188  0.11515   1.097  2.851  0.000
    81C    -0.04172 -0.08775   1.071  2.970  0.000
    82C    -0.04023 -0.08622   1.076  2.964  0.000
    83N    -0.21130 -0.46314   1.317  3.894  0.000
    84C     0.05941  0.12429   1.115  2.826  0.000
    85C     0.00618  0.01301   1.072  2.922  0.000
    86C     0.05986  0.12486   1.115  2.825  0.000
    87C    -0.03988 -0.08583   1.077  2.963  0.000
    88C    -0.04124 -0.08702   1.073  2.968  0.000
    89C     0.05215  0.11560   1.097  2.851  0.000
    90N    -0.21136 -0.46313   1.317  3.895  0.000
    91C     0.00637  0.01171   1.082  2.911  0.000
    92C    -0.00049 -0.00892   1.081  2.919  0.000
    93C    -0.04043 -0.08811   1.064  2.977  0.000
    94C     0.08018  0.09734   1.116  2.804  0.000
    95O    -0.29605 -0.49115   1.630  4.666  0.000
    96C     0.06378  0.08350   1.090  2.847  0.000
    97O    -0.30668 -0.50660   1.622  4.685  0.000
    98C     0.07117  0.08629   1.105  2.824  0.000
    99O    -0.30599 -0.50950   1.624  4.682  0.000
   100C    -0.04759 -0.09662   1.051  2.997  0.000
   101C     0.05254  0.11666   1.099  2.849  0.000
   102C    -0.04145 -0.08720   1.079  2.962  0.000
   103C    -0.04620 -0.09265   1.084  2.962  0.000
   104C     0.05505  0.11576   1.111  2.834  0.000
   105N    -0.21633 -0.46824   1.314  3.902  0.000
   106H     0.01105  0.07003   0.989  0.000  0.000
   107H     0.01830  0.07493   0.982  0.000  0.000
   108H     0.01571  0.07469   0.984  0.000  0.000
   109H     0.02496  0.08553   0.975  0.000  0.000
   110H     0.22879  0.40823   0.771  0.000  0.000
   111H     0.23398  0.41335   0.766  0.000  0.000
   112H     0.22907  0.40154   0.771  0.000  0.000
   113H     0.02487  0.08484   0.975  0.000  0.000
   114H     0.01629  0.07539   0.984  0.000  0.000
   115H     0.01303  0.07175   0.987  0.000  0.000
   116H     0.01285  0.07146   0.987  0.000  0.000
   117H     0.01660  0.07515   0.983  0.000  0.000
   118H     0.02596  0.08619   0.974  0.000  0.000
   119H     0.22896  0.40843   0.771  0.000  0.000
   120H     0.23371  0.41311   0.766  0.000  0.000
   121H     0.22855  0.40105   0.771  0.000  0.000
   122H     0.02498  0.08459   0.975  0.000  0.000
   123H     0.01521  0.07369   0.985  0.000  0.000
   124H     0.01805  0.07466   0.982  0.000  0.000
   125C    -0.03667 -0.03904   1.068  2.969  0.000
   126C    -0.03667 -0.03904   1.068  2.969  0.000

Wiberg/Mayer (AO) data.
largest (>0.10) Wiberg bond orders for each atom

 ---------------------------------------------------------------------------
     #   Z sym  total        # sym  WBO       # sym  WBO       # sym  WBO
 ---------------------------------------------------------------------------
     1  28 Ni   3.332 --    21 N    0.720    28 N    0.718     7 N    0.718
                            43 N    0.717
     2   6 C    3.773 --     3 C    1.384    42 C    1.383    44 H    0.998
     3   6 C    3.944 --     2 C    1.384     7 N    1.258     4 C    1.204
     4   6 C    3.834 --     5 C    1.633     3 C    1.204    45 H    0.995
     5   6 C    3.827 --     4 C    1.633     6 C    1.213    46 H    1.001
     6   6 C    3.906 --     8 C    1.378     7 N    1.235     5 C    1.213
     7   7 N    2.995 --     3 C    1.258     6 C    1.235     1 Ni   0.718
     8   6 C    3.823 --     6 C    1.378    18 C    1.363     9 C    1.041
     9   6 C    3.895 --    10 C    1.419    17 C    1.412     8 C    1.041
    10   6 C    3.852 --     9 C    1.419    11 C    1.392    47 H    0.994
    11   6 C    3.977 --    10 C    1.392    13 C    1.361    12 O    1.121
    12   8 O    2.155 --    11 C    1.121    48 H    0.966
    13   6 C    3.911 --    15 C    1.371    11 C    1.361    14 O    1.084
    14   8 O    2.096 --    13 C    1.084    49 H    0.964
    15   6 C    3.938 --    17 C    1.399    13 C    1.371    16 O    1.091
    16   8 O    2.109 --    15 C    1.091    50 H    0.964
    17   6 C    3.822 --     9 C    1.412    15 C    1.399    51 H    0.992
    18   6 C    3.891 --     8 C    1.363    21 N    1.232    19 C    1.229
    19   6 C    3.807 --    20 C    1.604    18 C    1.229    52 H    1.000
    20   6 C    3.804 --    19 C    1.604    22 C    1.239    53 H    0.998
    21   7 N    3.016 --    22 C    1.283    18 C    1.232     1 Ni   0.720
    22   6 C    3.915 --    23 C    1.284    21 N    1.283    20 C    1.239
    23   6 C    3.791 --    24 C    1.285    22 C    1.284   125 C    1.227
    24   6 C    3.915 --    23 C    1.285    28 N    1.284    25 C    1.237
    25   6 C    3.807 --    26 C    1.607    24 C    1.237    54 H    0.999
    26   6 C    3.808 --    25 C    1.607    27 C    1.227    55 H    1.001
    27   6 C    3.893 --    29 C    1.370    28 N    1.230    26 C    1.227
    28   7 N    3.013 --    24 C    1.284    27 C    1.230     1 Ni   0.718
    29   6 C    3.822 --    39 C    1.383    27 C    1.370    30 C    1.023
    30   6 C    3.896 --    31 C    1.427    38 C    1.420    29 C    1.023
    31   6 C    3.854 --    30 C    1.427    32 C    1.389    56 H    0.992
    32   6 C    3.979 --    31 C    1.389    34 C    1.362    33 O    1.122
    33   8 O    2.157 --    32 C    1.122    57 H    0.966
    34   6 C    3.913 --    36 C    1.373    32 C    1.362    35 O    1.082
    35   8 O    2.095 --    34 C    1.082    58 H    0.964
    36   6 C    3.939 --    38 C    1.396    34 C    1.373    37 O    1.090
    37   8 O    2.109 --    36 C    1.090    59 H    0.964
    38   6 C    3.824 --    30 C    1.420    36 C    1.396    60 H    0.991
    39   6 C    3.907 --    29 C    1.383    43 N    1.234    40 C    1.213
    40   6 C    3.828 --    41 C    1.633    39 C    1.213    61 H    1.002
    41   6 C    3.835 --    40 C    1.633    42 C    1.203    62 H    0.995
    42   6 C    3.946 --     2 C    1.383    43 N    1.258    41 C    1.203
    43   7 N    2.992 --    42 C    1.258    39 C    1.234     1 Ni   0.717
    44   1 H    1.044 --     2 C    0.998
    45   1 H    1.030 --     4 C    0.995
    46   1 H    1.038 --     5 C    1.001
    47   1 H    1.042 --    10 C    0.994
    48   1 H    1.000 --    12 O    0.966
    49   1 H    0.995 --    14 O    0.964
    50   1 H    1.000 --    16 O    0.964
    51   1 H    1.031 --    17 C    0.992
    52   1 H    1.036 --    19 C    1.000
    53   1 H    1.049 --    20 C    0.998
    54   1 H    1.045 --    25 C    0.999
    55   1 H    1.035 --    26 C    1.001
    56   1 H    1.042 --    31 C    0.992
    57   1 H    0.999 --    33 O    0.966
    58   1 H    0.995 --    35 O    0.964
    59   1 H    0.997 --    37 O    0.964
    60   1 H    1.031 --    38 C    0.991
    61   1 H    1.037 --    40 C    1.002
    62   1 H    1.027 --    41 C    0.995
    63  28 Ni   3.332 --    83 N    0.720    90 N    0.718    69 N    0.718
                           105 N    0.717
    64   6 C    3.773 --    65 C    1.384   104 C    1.383   106 H    0.998
    65   6 C    3.944 --    64 C    1.384    69 N    1.258    66 C    1.204
    66   6 C    3.834 --    67 C    1.633    65 C    1.204   107 H    0.995
    67   6 C    3.827 --    66 C    1.633    68 C    1.213   108 H    1.001
    68   6 C    3.906 --    70 C    1.378    69 N    1.235    67 C    1.213
    69   7 N    2.995 --    65 C    1.258    68 C    1.235    63 Ni   0.718
    70   6 C    3.823 --    68 C    1.378    80 C    1.363    71 C    1.041
    71   6 C    3.895 --    72 C    1.419    79 C    1.412    70 C    1.041
    72   6 C    3.852 --    71 C    1.419    73 C    1.392   109 H    0.994
    73   6 C    3.977 --    72 C    1.392    75 C    1.361    74 O    1.121
    74   8 O    2.155 --    73 C    1.121   110 H    0.966
    75   6 C    3.911 --    77 C    1.371    73 C    1.361    76 O    1.084
    76   8 O    2.096 --    75 C    1.084   111 H    0.964
    77   6 C    3.938 --    79 C    1.399    75 C    1.371    78 O    1.091
    78   8 O    2.109 --    77 C    1.091   112 H    0.964
    79   6 C    3.822 --    71 C    1.412    77 C    1.399   113 H    0.992
    80   6 C    3.891 --    70 C    1.363    83 N    1.232    81 C    1.229
    81   6 C    3.807 --    82 C    1.604    80 C    1.229   114 H    1.000
    82   6 C    3.804 --    81 C    1.604    84 C    1.239   115 H    0.998
    83   7 N    3.016 --    84 C    1.283    80 C    1.232    63 Ni   0.720
    84   6 C    3.915 --    85 C    1.284    83 N    1.283    82 C    1.239
    85   6 C    3.791 --    86 C    1.285    84 C    1.284   126 C    1.227
    86   6 C    3.915 --    85 C    1.285    90 N    1.284    87 C    1.237
    87   6 C    3.807 --    88 C    1.607    86 C    1.237   116 H    0.999
    88   6 C    3.808 --    87 C    1.607    89 C    1.227   117 H    1.001
    89   6 C    3.893 --    91 C    1.370    90 N    1.230    88 C    1.227
    90   7 N    3.013 --    86 C    1.284    89 C    1.230    63 Ni   0.718
    91   6 C    3.822 --   101 C    1.383    89 C    1.370    92 C    1.023
    92   6 C    3.896 --    93 C    1.427   100 C    1.420    91 C    1.023
    93   6 C    3.854 --    92 C    1.427    94 C    1.389   118 H    0.992
    94   6 C    3.979 --    93 C    1.389    96 C    1.362    95 O    1.122
    95   8 O    2.157 --    94 C    1.122   119 H    0.966
    96   6 C    3.913 --    98 C    1.373    94 C    1.362    97 O    1.082
    97   8 O    2.095 --    96 C    1.082   120 H    0.964
    98   6 C    3.939 --   100 C    1.396    96 C    1.373    99 O    1.090
    99   8 O    2.109 --    98 C    1.090   121 H    0.964
   100   6 C    3.824 --    92 C    1.420    98 C    1.396   122 H    0.991
   101   6 C    3.907 --    91 C    1.383   105 N    1.234   102 C    1.213
   102   6 C    3.828 --   103 C    1.633   101 C    1.213   123 H    1.002
   103   6 C    3.835 --   102 C    1.633   104 C    1.203   124 H    0.995
   104   6 C    3.946 --    64 C    1.383   105 N    1.258   103 C    1.203
   105   7 N    2.992 --   104 C    1.258   101 C    1.234    63 Ni   0.717
   106   1 H    1.044 --    64 C    0.998
   107   1 H    1.030 --    66 C    0.995
   108   1 H    1.038 --    67 C    1.001
   109   1 H    1.042 --    72 C    0.994
   110   1 H    1.000 --    74 O    0.966
   111   1 H    0.995 --    76 O    0.964
   112   1 H    1.000 --    78 O    0.964
   113   1 H    1.031 --    79 C    0.992
   114   1 H    1.036 --    81 C    1.000
   115   1 H    1.049 --    82 C    0.998
   116   1 H    1.045 --    87 C    0.999
   117   1 H    1.035 --    88 C    1.001
   118   1 H    1.042 --    93 C    0.992
   119   1 H    0.999 --    95 O    0.966
   120   1 H    0.995 --    97 O    0.964
   121   1 H    0.997 --    99 O    0.964
   122   1 H    1.031 --   100 C    0.991
   123   1 H    1.037 --   102 C    1.002
   124   1 H    1.027 --   103 C    0.995
   125   6 C    3.758 --   126 C    2.595    23 C    1.227
   126   6 C    3.758 --   125 C    2.595    85 C    1.227
 ---------------------------------------------------------------------------

Topologies differ in total number of bonds
Writing topology from bond orders to xtbtopo.mol

 dipole moment from electron density (au)
     X       Y       Z   
 -42.9209   0.0044  -0.0776  total (Debye):  109.094


           -------------------------------------------------
          | TOTAL ENERGY             -275.813667006479 Eh   |
          | GRADIENT NORM               0.083730693881 Eh/α |
          | HOMO-LUMO GAP               0.279424057756 eV   |
           -------------------------------------------------
########################################################################
[WARNING] Runtime exception occurred
-1- restart_readRestart: Dimension missmatch in restart file.
########################################################################

------------------------------------------------------------------------
 * finished run on 2022/07/30 at 06:21:53.787     
------------------------------------------------------------------------
 total:
 * wall-time:     0 d,  0 h,  0 min,  6.241 sec
 *  cpu-time:     0 d,  0 h,  0 min,  6.212 sec
 * ratio c/w:     0.995 speedup
 SCF:
 * wall-time:     0 d,  0 h,  0 min,  5.930 sec
 *  cpu-time:     0 d,  0 h,  0 min,  5.905 sec
 * ratio c/w:     0.996 speedup

