126
 energy: -249.955390284575 gnorm: 0.642544499492 xtb: 6.5.1 (b24c23e)
Ni          17.33174100000000       -0.02912900000000        0.00110600000000
C           13.99860200000000        0.12188300000000        0.10751500000000
C           14.66541400000000        1.27882900000000        0.08611600000000
C           14.01704300000000        2.58444700000000        0.08491100000000
C           14.96068300000000        3.50651700000000        0.07695000000000
C           16.26583000000000        2.83146700000000        0.07488200000000
N           16.08584800000000        1.41524200000000        0.07991800000000
C           17.45978000000000        3.45635900000000        0.10479900000000
C           17.49730400000000        4.93506200000000        0.11231400000000
C           17.28796500000000        5.65033700000000       -1.07466000000000
C           17.30961900000000        7.04867600000000       -1.07172200000000
O           17.09534200000000        7.72985400000000       -2.27011000000000
C           17.54268300000000        7.74433500000000        0.12842900000000
O           17.55831200000000        9.13986800000000        0.12436400000000
C           17.75645900000000        7.02832100000000        1.32052100000000
O           17.98930400000000        7.71101900000000        2.51316200000000
C           17.73398200000000        5.62709100000000        1.30712800000000
C           18.75798800000000        2.73225400000000        0.14315500000000
C           20.05726100000000        3.40178000000000        0.27457900000000
C           20.99158700000000        2.47461000000000        0.25992400000000
N           18.89261100000000        1.44447900000000        0.04257000000000
C           20.29848200000000        1.20070800000000        0.10839600000000
C           20.89369100000000        0.00000000000000        0.00000000000000
C           20.14073200000000       -1.26553100000000       -0.18015100000000
C           20.70602100000000       -2.42747300000000       -0.48527900000000
C           19.65852500000000       -3.42653300000000       -0.51547600000000
C           18.51683600000000       -2.81236500000000       -0.22942000000000
N           18.73058600000000       -1.41564800000000       -0.00313100000000
C           17.20772500000000       -3.50607900000000       -0.11095100000000
C           17.18890900000000       -4.98486100000000       -0.12955700000000
C           17.33553900000000       -5.70286300000000        1.06385100000000
C           17.31425500000000       -7.10132500000000        1.05499400000000
O           17.45598400000000       -7.78660900000000        2.26172500000000
C           17.15092800000000       -7.79329100000000       -0.15899100000000
O           17.13409700000000       -9.18872500000000       -0.16000700000000
C           17.00902400000000       -7.07351000000000       -1.35953500000000
O           16.85158400000000       -7.75291400000000       -2.56674500000000
C           17.02719700000000       -5.67219800000000       -1.33952100000000
C           16.04505100000000       -2.84090400000000        0.01114300000000
C           14.72112100000000       -3.44907500000000        0.12985900000000
C           13.86211000000000       -2.45043200000000        0.18159400000000
C           14.62822100000000       -1.20780100000000        0.10160000000000
N           15.90295400000000       -1.42255300000000        0.00115600000000
H           12.91571800000000        0.15466700000000        0.13213500000000
H           12.95241600000000        2.78020700000000        0.09402500000000
H           14.77700300000000        4.57316700000000        0.08350800000000
H           17.10423300000000        5.12001500000000       -2.00135100000000
H           17.10031600000000        8.74129300000000       -2.32308500000000
H           17.70868500000000        9.68012300000000        0.96737000000000
H           18.14561700000000        7.21869400000000        3.38508300000000
H           17.89670800000000        5.07649200000000        2.22578800000000
H           20.24082700000000        4.46434000000000        0.36449200000000
H           22.05537500000000        2.65778600000000        0.33468000000000
H           21.75567300000000       -2.61238100000000       -0.66725200000000
H           19.79341900000000       -4.48129800000000       -0.71842000000000
H           17.46271400000000       -5.17510800000000        2.00130000000000
H           17.43766700000000       -8.79767600000000        2.31209300000000
H           17.02020400000000       -9.72684300000000       -1.01043400000000
H           16.75174600000000       -7.25861400000000       -3.44616200000000
H           16.91685700000000       -5.11871500000000       -2.26456600000000
H           14.46922900000000       -4.50123400000000        0.16435200000000
H           12.78711200000000       -2.54823500000000        0.26503900000000
Ni          28.09378200000000        0.02881600000000        0.00440000000000
C           31.42692100000000       -0.13328400000000        0.09300700000000
C           30.76010900000000       -1.28034800000000       -0.05938900000000
C           31.40848000000000       -2.57741600000000       -0.20857200000000
C           30.46484000000000       -3.49264200000000       -0.32099400000000
C           29.15969300000000       -2.82170800000000       -0.24653500000000
N           29.33967500000000       -1.41518000000000       -0.08100900000000
C           27.96574300000000       -3.44596300000000       -0.28763900000000
C           27.92821900000000       -4.91598900000000       -0.44777700000000
C           28.13755799999999       -5.49211600000000       -1.70817500000000
C           28.11590400000000       -6.88177700000000       -1.86375200000000
O           28.33018100000000       -7.42273300000000       -3.13162500000000
C           27.88284000000000       -7.70898400000000       -0.75018400000000
O           27.86721100000000       -9.09506300000000       -0.91240100000000
C           27.66906500000000       -7.13270300000000        0.51538200000000
O           27.43621900000000       -7.94618300000000        1.62295700000000
C           27.69154100000000       -5.73898500000000        0.66089900000000
C           26.66753500000000       -2.73087200000000       -0.16745700000000
C           25.36826200000000       -3.41098000000000       -0.11276700000000
C           24.43393600000000       -2.48812400000000       -0.02223700000000
N           26.53291200000000       -1.43999600000000       -0.12143000000000
C           25.12704100000000       -1.20525700000000       -0.02839700000000
C           24.53183200000000        0.00000000000000        0.00000000000000
C           25.28479100000000        1.27779500000000       -0.03554800000000
C           24.71950200000000        2.46683300000000       -0.20700800000000
C           25.76699800000000        3.46287800000000       -0.12377200000000
C           26.90868800000000        2.82024500000000        0.09082800000000
N           26.69493700000000        1.40687900000000        0.15734700000000
C           28.21779800000000        3.49606100000000        0.28716300000000
C           28.23661400000000        4.96742100000000        0.43629000000000
C           28.08998400000000        5.54552900000000        1.70339000000000
C           28.11126800000000        6.93598200000000        1.85309900000000
O           27.96953999999999        7.48007300000000        3.12972700000000
C           28.27459500000000        7.76108900000000        0.72536900000000
O           28.29142600000000        9.14764600000000        0.88252500000000
C           28.41649900000000        7.18202300000000       -0.54902300000000
O           28.57393900000000        7.99388000000000       -1.67144500000000
C           28.39832699999999        5.78747300000000       -0.68797100000000
C           29.38047200000000        2.82133300000000        0.33307500000000
C           30.70440200000000        3.41212900000000        0.51995900000000
C           31.56341300000000        2.41405800000000        0.45816900000000
C           30.79730199999999        1.18850100000000        0.23784500000000
N           29.52256900000000        1.41325500000000        0.16238900000000
H           32.50980500000000       -0.16864800000000        0.11375300000000
H           32.47310700000000       -2.77294700000000       -0.22170500000000
H           30.64852000000000       -4.55316100000000       -0.43537800000000
H           28.32129000000000       -4.86017500000000       -2.56878500000000
H           28.32520700000000       -8.42165000000000       -3.29890100000000
H           27.71683800000000       -9.72738800000000       -0.13606300000000
H           27.27990600000000       -7.55585900000000        2.54506200000000
H           27.52881500000000       -5.29606000000000        1.63604600000000
H           25.18469600000000       -4.47688300000000       -0.14387000000000
H           23.37014800000000       -2.67859300000000        0.03127400000000
H           23.66985000000000        2.67117600000000       -0.36685000000000
H           25.63210500000000        4.53384900000000       -0.20585500000000
H           27.96280900000000        4.91491900000000        2.57497900000000
H           27.98785600000000        8.47891500000000        3.29437000000000
H           28.40531900000000        9.77868700000000        0.09857200000000
H           28.67377700000000        7.60244400000000       -2.60122200000000
H           28.50866600000000        5.34240700000000       -1.66978800000000
H           30.95629400000000        4.45359800000000        0.67348800000000
H           32.63841100000000        2.50177200000000        0.55216200000000
C           22.10180300000000        0.00000000000000        0.00000000000000
C           23.32372000000000        0.00000000000000        0.00000000000000
126
 energy: -250.122576418688 gnorm: 0.284649662309 xtb: 6.5.1 (b24c23e)
Ni          17.34209729630645       -0.01861712511886        0.00813970941356
C           13.99827012880205        0.10240733868039        0.10779551593021
C           14.67271018582013        1.27733728240824        0.08513227462560
C           14.01869081731751        2.57507578251070        0.08496405828507
C           14.97403500493837        3.50650139986131        0.07659360137859
C           16.26629244905599        2.82254009798995        0.07265172334718
N           16.06972508746630        1.42659899618426        0.08013799679678
C           17.47426216300320        3.45812643311542        0.10366538218832
C           17.50177738769409        4.94469064064649        0.11098757618936
C           17.28781898977576        5.66261883665358       -1.07118901230563
C           17.31044772682979        7.06376614974317       -1.06631726700695
O           17.09654389486948        7.72414948864267       -2.26210647662776
C           17.54512747930691        7.75443243319302        0.14104317953927
O           17.55705257108076        9.14043797938059        0.11804939746758
C           17.75822338049106        7.02768353378770        1.32827645308039
O           17.98785793307293        7.71813574351811        2.50727814218448
C           17.73572197484652        5.63117888841593        1.30562450803269
C           18.73897077445099        2.75966706072530        0.14379818851748
C           20.03308195914209        3.41786815176021        0.27323291867240
C           20.97175125603413        2.46271408876624        0.25919037896474
N           18.87454763063747        1.44859415216884        0.04800322239157
C           20.24826109543116        1.21420276728544        0.11101461513061
C           20.80981811957665       -0.02001764946001       -0.00241435435532
C           20.09570665987151       -1.26722046001185       -0.17673516825124
C           20.69729090864863       -2.45231055288796       -0.48767163804343
C           19.67821292045128       -3.43289773429976       -0.51618062937101
C           18.49996312836605       -2.80404157441514       -0.22332282716380
N           18.71211132865347       -1.42387131138340       -0.01347178778306
C           17.22418775221688       -3.49729285554357       -0.10964297302625
C           17.19882969834400       -4.98922723792784       -0.12954871805777
C           17.33617450238078       -5.71353941785737        1.06022938109554
C           17.31278940808096       -7.11545155401494        1.04934058540522
O           17.45455601386693       -7.78026657962333        2.25342161910923
C           17.14950814092911       -7.80269469004451       -0.17178921948231
O           17.13451019006105       -9.18876686896437       -0.15362866022178
C           17.00814605160847       -7.07141123439301       -1.36695665525482
O           16.85167007229145       -7.75901779072866       -2.56005563434253
C           17.02861051000423       -5.67389631930653       -1.33765938128120
C           16.04796507214441       -2.83435230769049        0.01225796107726
C           14.73228111291107       -3.44332622716205        0.12885618107994
C           13.85294646839170       -2.43413997874737        0.18113229632769
C           14.60950208059372       -1.19546238187763        0.10165861117693
N           15.90813764012131       -1.42350977543761        0.00388546082954
H           12.91581865713480        0.14520749864695        0.13271839801753
H           12.95397475838148        2.76728367576685        0.09393623620811
H           14.79367438333188        4.57294395097164        0.08285255511204
H           17.10537723841891        5.12760944693639       -1.99827459305068
H           17.10560501320238        8.71280353704884       -2.29362942832434
H           17.70683025355464        9.64248271829263        0.95638942220255
H           18.13858651405554        7.21658227954449        3.34656913424787
H           17.89659595766431        5.07799681306976        2.22423432738419
H           20.22729311494576        4.47324085975200        0.36433043500802
H           22.03967085359499        2.63717443612292        0.33564250059482
H           21.74793716536247       -2.61685535684165       -0.67080003469949
H           19.80230799284887       -4.48365128969934       -0.72016134007806
H           17.46257926479370       -5.18252605830457        1.99851968322261
H           17.43471370370088       -8.76881423945362        2.28230253909672
H           17.02211297803241       -9.68888414733346       -0.99918097402151
H           16.75662737794291       -7.25637379654317       -3.40699442764179
H           16.91727983343177       -5.11953024467419       -2.26281060784255
H           14.48536655645175       -4.49713627179579        0.16329005768119
H           12.78249999628788       -2.53614845040663        0.26535653903950
Ni          28.08342569170292        0.01757426538388        0.01019703509426
C           31.42725280790937       -0.11396556641148        0.09549329050810
C           30.75281245749273       -1.27875473769474       -0.06019730241616
C           31.40683209542865       -2.56811125490090       -0.20745711156427
C           30.45148802864862       -3.49258585493451       -0.32134630453002
C           29.15923054861198       -2.81258542017246       -0.24773906450450
N           29.35579783174603       -1.42648885227489       -0.08207771520262
C           27.95126060311122       -3.44759064360799       -0.28896578405572
C           27.92374558084533       -4.92540507423394       -0.45018625424492
C           28.13770400117951       -5.50471208387063       -1.70611848405040
C           28.11507531332579       -6.89738226369436       -1.86009229752129
O           28.32897908911653       -7.41797255369233       -3.12302655659796
C           27.88039560941026       -7.72044618563704       -0.73879582504247
O           27.86847044236757       -9.09491378732966       -0.91873948553446
C           27.66730034172134       -7.13294862969576        0.52315989996449
O           27.43766514643026       -7.95258675548256        1.61630428773292
C           27.68980111602239       -5.74287604943757        0.65894170832290
C           26.68655238242876       -2.75818118904359       -0.16992492031167
C           25.39244082025732       -3.42681180033936       -0.11592800537039
C           24.45377169278512       -2.47622179707411       -0.02161757828092
N           26.55097539438945       -1.44470010126396       -0.11649811480117
C           25.17726198672471       -1.21896128437725       -0.02732507393000
C           24.61570520754314        0.02016199684566       -0.00012994497511
C           25.32981649296895        1.27908620708459       -0.03196256006525
C           24.72823211110236        2.49178199353021       -0.20657014870656
C           25.74731019655786        3.46928158715139       -0.12375051684263
C           26.92556039814097        2.81128403962087        0.09594237948614
N           26.71341167229368        1.41622164445707        0.14800472289373
C           28.20133528488462        3.48718291020638        0.28746660890087
C           28.22669335539596        4.97175842945485        0.43679314473585
C           28.08934851853281        5.55654698250361        1.70100165130122
C           28.11273367384863        6.95065856642141        1.84908319522390
O           27.97096790793181        7.47471254209681        3.12075835363711
C           28.27601488739007        7.77188268437406        0.71371895128782
O           28.29101277679528        9.14696433606476        0.88886710933379
C           28.41737699505119        7.18077892646423       -0.55663447666412
O           28.57385295019019        7.99918639871858       -1.66410709145390
C           28.39691320496679        5.78894940510242       -0.68592823524711
C           29.37755800020908        2.81469713763676        0.33344020036619
C           30.69324194613357        3.40653099877064        0.51831117069473
C           31.57257660019330        2.39792315983436        0.45586379897721
C           30.81602101207807        1.17623551338804        0.23650442665585
N           29.51738536961093        1.41389602244772        0.16520936750410
H           32.50970430178774       -0.15931543406634        0.11540481323826
H           32.47154825510307       -2.76009697366431       -0.22032841770349
H           30.63184868700122       -4.55286517201040       -0.43600393779120
H           28.32014570849548       -4.86806937655606       -2.56658897317617
H           28.31991797656365       -8.39668263094575       -3.26640604197997
H           27.71869275423377       -9.68874558374591       -0.14270651752212
H           27.28693654175006       -7.54939547658851        2.50703555298884
H           27.52892702617342       -5.29737897968188        1.63433197151887
H           25.19822976896066       -4.48570852464661       -0.14503944508497
H           23.38585206975224       -2.65822344615082        0.03456666076740
H           23.67758587664127        2.67602373993763       -0.36986805925459
H           25.62321598993277        4.53638429937484       -0.20731836794489
H           27.96294374951757        4.92260440675843        2.57305722597659
H           27.99080930171353        8.45361598395924        3.26150024186803
H           28.40341004338320        9.73969749758370        0.10544990087929
H           28.66889561012064        7.59577877963718       -2.56256069939269
H           28.50824326293139        5.34301777438535       -1.66795181239035
H           30.94015644220497        4.44964700994550        0.67196833409968
H           32.64302306497774        2.48972738765046        0.55110753319743
C           22.11616904860130       -0.00829849266217       -0.00124999324893
C           23.30935439765511        0.00838636945586       -0.00030137757176
126
 energy: -250.201578031113 gnorm: 0.106188969630 xtb: 6.5.1 (b24c23e)
Ni          17.35666505947085       -0.00749380741045        0.02001494868936
C           14.00196635842840        0.08255770650709        0.10815941099537
C           14.68215354032330        1.27728424218027        0.08383141196852
C           14.02357490758704        2.56356492689491        0.08459624649244
C           14.98875698249670        3.50269837701179        0.07527930298080
C           16.26388734132313        2.81268101539903        0.06976985667880
N           16.05299150604602        1.43983165269502        0.07937975375725
C           17.48665636397953        3.45934747211466        0.10254699947478
C           17.50253619348696        4.95383248976975        0.11093712898549
C           17.28753106842693        5.67390418664259       -1.06548334214096
C           17.31127747024296        7.07456904520796       -1.05927891517891
O           17.09820856674773        7.71348926960142       -2.24983434948752
C           17.54651626340112        7.76214958381299        0.14954046005104
O           17.55463505067778        9.13799097798985        0.10635870561006
C           17.75934488213362        7.02967371957440        1.33199624594199
O           17.98483688053723        7.73216300326840        2.49408624812052
C           17.73756310878208        5.63669236941543        1.30497807089591
C           18.71589732083428        2.78748336891561        0.14494980198364
C           20.00499717470895        3.42806579171111        0.27012889189514
C           20.94158312215556        2.45020516308140        0.25920750785896
N           18.85826041066454        1.44769977962662        0.05782335302350
C           20.20551246075252        1.22013148997365        0.11497023260439
C           20.74689802630498       -0.04031300058793       -0.00840278042192
C           20.05730933535142       -1.26027608474198       -0.17342758237422
C           20.68357572497472       -2.47648496836816       -0.48557883948164
C           19.69892910909490       -3.43348142554514       -0.51156805414427
C           18.48238530020364       -2.79570166344114       -0.21734016424090
N           18.69808143997778       -1.43269161779765       -0.03513270749349
C           17.24613018733822       -3.48487443227223       -0.10826355599403
C           17.21193466094535       -4.99005879317805       -0.13104906584105
C           17.33891502975911       -5.72129940887004        1.05337696148853
C           17.31152454442420       -7.12354012724654        1.04168325277097
O           17.45248359874822       -7.76777974766437        2.24054752359085
C           17.14861161202932       -7.80837119277059       -0.18039347208451
O           17.13578781875206       -9.18464610092260       -0.14186513978560
C           17.00795923270883       -7.06986727407014       -1.36984619467111
O           16.85210797962345       -7.77050315858144       -2.54521048024445
C           17.03234713185673       -5.67499319634987       -1.33645639573543
C           16.05037226647104       -2.82030270071357        0.01572003939296
C           14.74620776563703       -3.42937549899006        0.12790740186911
C           13.84955174929538       -2.41705301766828        0.17917784288333
C           14.59161793731893       -1.18210042243138        0.10203271745269
N           15.91586261025740       -1.42459117798365        0.00822514366447
H           12.91886562750265        0.13587886964473        0.13435699913578
H           12.95839293485526        2.74817306437244        0.09382228684566
H           14.81725476664000        4.56969017609055        0.08157070252188
H           17.10674875707011        5.13919324590452       -1.99347020310303
H           17.11355952057683        8.68322934817858       -2.24837317274078
H           17.70567538619701        9.59341994816231        0.94946977230667
H           18.12968776754208        7.21129109269069        3.29901806745794
H           17.89711862699165        5.08159173459160        2.22332148185886
H           20.20750544007368        4.48094745332395        0.36274511473534
H           22.01064051431650        2.61122817562168        0.33774642585992
H           21.73498673236644       -2.61936914330687       -0.67449775600629
H           19.80921389618511       -4.48420522242905       -0.72002984659633
H           17.46343688557826       -5.19324744303324        1.99399059180035
H           17.42967963879023       -8.73775765702765        2.23613524947351
H           17.02384890306911       -9.63886346248552       -0.99182876897584
H           16.76271185780746       -7.25043800163953       -3.35849488870406
H           16.91873994501675       -5.12141758358128       -2.26218246535222
H           14.50922067947930       -4.48578930849631        0.16176719089194
H           12.78041595436853       -2.52127329841442        0.26481731450680
Ni          28.06885784281484        0.00517685187509        0.02073509101932
C           31.42355666324378       -0.09428508545120        0.09810459749977
C           30.74336928210615       -1.27855473541758       -0.06148395861906
C           31.40194804380953       -2.55663269714872       -0.20651902026503
C           30.43676611316852       -3.48865826547795       -0.32222130180044
C           29.16163572201793       -2.80246326289474       -0.24948488357912
N           29.37253141704684       -1.43955020297889       -0.08433082153880
C           27.93886666155853       -3.44867748273030       -0.29021550546202
C           27.92298681899872       -4.93448254451206       -0.45127261030746
C           28.13799192711763       -5.51657163628380       -1.70172882453173
C           28.11424560156546       -6.90891332463427       -1.85432351085278
O           28.32731440824995       -7.40877212615364       -3.10962518485256
C           27.87900688837706       -7.72907695628932       -0.73122811338971
O           27.87088796817600       -9.09115744069920       -0.93007735030475
C           27.66617856496686       -7.13534776907478        0.52663048615462
O           27.44068628456815       -7.96502809775783        1.60160732495144
C           27.68796022402432       -5.74828087448972        0.65767484907378
C           26.70962574075404       -2.78594924476489       -0.17193336752502
C           25.42052581028848       -3.43659204687461       -0.12016795111295
C           24.48393983486698       -2.46379527968304       -0.02018269675871
N           26.56726250957604       -1.44492446342291       -0.10663965841904
C           25.22001043926745       -1.22529992438853       -0.02406636288837
C           24.67862496237842        0.04100560749587       -0.00377903615677
C           25.36821379827822        1.27181163712771       -0.02946316244315
C           24.74194740832068        2.51556366536868       -0.20175089558744
C           25.72659407614475        3.46933859479528       -0.11910133777279
C           26.94313791606881        2.80231964702277        0.10094130997692
N           26.72744161501193        1.42744074592868        0.12748327629291
C           28.17939292201015        3.47468791376526        0.28742953793919
C           28.21358846423252        4.97275481138455        0.43539673412958
C           28.08660801122888        5.56503351856033        1.69507277232996
C           28.11399861681741        6.95956311656551        1.84239205455093
O           27.97304018918506        7.46376531337441        3.10655205050610
C           28.27691144597475        7.77849782085667        0.70581344269732
O           28.28973511946905        9.14153653907314        0.90008793327594
C           28.41756385361329        7.17957232737801       -0.55968016298380
O           28.57341507817637        8.00891529326031       -1.64805595878627
C           28.39317629040538        5.78990278684756       -0.68460818551410
C           29.37515082217998        2.80034578460922        0.33528764572446
C           30.67931529723004        3.39277768629356        0.51578745959205
C           31.57597129607325        2.38116769722469        0.45198536512875
C           30.83390515476091        1.16291754851433        0.23536137722859
N           29.50966045990891        1.41447846694357        0.16964352521370
H           32.50665734272908       -0.15023255956615        0.11809014519158
H           32.46713007632737       -2.74109649883692       -0.21827578702871
H           30.60826833570525       -4.54948714215350       -0.43690869204970
H           28.31877415650286       -4.88012326984452       -2.56312830056695
H           28.31196348110457       -8.37242842428105       -3.21808921290421
H           27.71984764108124       -9.63921449217247       -0.14402057578219
H           27.29583532806172       -7.53874859680063        2.46039049832348
H           27.52840436164614       -5.30084727115449        1.63301797352063
H           25.21801759052734       -4.49318612284459       -0.14748808365551
H           23.41488242900060       -2.63268268425288        0.03959804614402
H           23.69053642226313        2.67894039759176       -0.37325700144416
H           25.61630992568182        4.53691946218174       -0.20712490238978
H           27.96208613321170        4.93377011626122        2.56977242922583
H           27.99584336189999        8.42799251267170        3.21211046584252
H           28.40167414440375        9.68916602277389        0.10708501686720
H           28.66281115606030        7.58438405138353       -2.51504643369071
H           28.50678325964773        5.34482158092149       -1.66711395116092
H           30.91630231938792        4.43854568902544        0.66916910156056
H           32.64510710901984        2.47500923719244        0.54888581167314
C           22.10926792595815       -0.02303131388429       -0.00516696350404
C           23.31625500704057        0.02346859069515       -0.00252307372254
126
 energy: -250.230239681936 gnorm: 0.046860123881 xtb: 6.5.1 (b24c23e)
Ni          17.36270196537425       -0.00037192341772        0.02791394957020
C           14.00220468806953        0.07691547905118        0.10940017657266