      -----------------------------------------------------------      
     |                   =====================                   |     
     |                           x T B                           |     
     |                   =====================                   |     
     |                         S. Grimme                         |     
     |          Mulliken Center for Theoretical Chemistry        |     
     |                    University of Bonn                     |     
      -----------------------------------------------------------      

   * xtb version 6.5.1 (b24c23e) compiled by 'conda@728c89f4b128' on 2022-07-12

   xtb is free software: you can redistribute it and/or modify it under
   the terms of the GNU Lesser General Public License as published by
   the Free Software Foundation, either version 3 of the License, or
   (at your option) any later version.
   
   xtb is distributed in the hope that it will be useful,
   but WITHOUT ANY WARRANTY; without even the implied warranty of
   MERCHANTABILITY or FITNESS FOR A PARTICULAR PURPOSE.  See the
   GNU Lesser General Public License for more details.
   
   Cite this work as:
   * C. Bannwarth, E. Caldeweyher, S. Ehlert, A. Hansen, P. Pracht,
     J. Seibert, S. Spicher, S. Grimme, WIREs Comput. Mol. Sci., 2020, 11,
     e01493. DOI: 10.1002/wcms.1493
   
   for GFN2-xTB:
   * C. Bannwarth, S. Ehlert and S. Grimme., J. Chem. Theory Comput., 2019,
     15, 1652-1671. DOI: 10.1021/acs.jctc.8b01176
   for GFN1-xTB:
   * S. Grimme, C. Bannwarth, P. Shushkov, J. Chem. Theory Comput., 2017,
     13, 1989-2009. DOI: 10.1021/acs.jctc.7b00118
   for GFN0-xTB:
   * P. Pracht, E. Caldeweyher, S. Ehlert, S. Grimme, ChemRxiv, 2019, preprint.
     DOI: 10.26434/chemrxiv.8326202.v1
   for GFN-FF:
   * S. Spicher and S. Grimme, Angew. Chem. Int. Ed., 2020, 59, 15665-15673.
     DOI: 10.1002/anie.202004239
   
   for ALPB and GBSA implicit solvation:
   * S. Ehlert, M. Stahn, S. Spicher, S. Grimme, J. Chem. Theory Comput.,
     2021, 17, 4250-4261. DOI: 10.1021/acs.jctc.1c00471
   
   for DFT-D4:
   * E. Caldeweyher, C. Bannwarth and S. Grimme, J. Chem. Phys., 2017,
     147, 034112. DOI: 10.1063/1.4993215
   * E. Caldeweyher, S. Ehlert, A. Hansen, H. Neugebauer, S. Spicher,
     C. Bannwarth and S. Grimme, J. Chem. Phys., 2019, 150, 154122.
     DOI: 10.1063/1.5090222
   * E. Caldeweyher, J.-M. Mewes, S. Ehlert and S. Grimme, Phys. Chem. Chem. Phys.
     2020, 22, 8499-8512. DOI: 10.1039/D0CP00502A
   
   for sTDA-xTB:
   * S. Grimme and C. Bannwarth, J. Chem. Phys., 2016, 145, 054103.
     DOI: 10.1063/1.4959605
   
   in the mass-spec context:
   * V. Asgeirsson, C. Bauer and S. Grimme, Chem. Sci., 2017, 8, 4879.
     DOI: 10.1039/c7sc00601b
   * J. Koopman and S. Grimme, ACS Omega 2019, 4, 12, 15120-15133.
     DOI: 10.1021/acsomega.9b02011
   
   for metadynamics refer to:
   * S. Grimme, J. Chem. Theory Comput., 2019, 155, 2847-2862
     DOI: 10.1021/acs.jctc.9b00143
   
   for SPH calculations refer to:
   * S. Spicher and S. Grimme, J. Chem. Theory Comput., 2021, 17, 1701-1714
     DOI: 10.1021/acs.jctc.0c01306
   
   with help from (in alphabetical order)
   P. Atkinson, C. Bannwarth, F. Bohle, G. Brandenburg, E. Caldeweyher
   M. Checinski, S. Dohm, S. Ehlert, S. Ehrlich, I. Gerasimov, C. Hölzer
   A. Katbashev, J. Koopman, C. Lavigne, S. Lehtola, F. März, M. Müller,
   F. Musil, H. Neugebauer, J. Pisarek, C. Plett, P. Pracht, F. Pultar,
   J. Seibert, P. Shushkov, S. Spicher, M. Stahn, M. Steiner, T. Strunk,
   J. Stückrath, T. Rose, and J. Unsleber
   
 * started run on 2022/07/30 at 08:36:53.033     

           -------------------------------------------------
          |                Calculation Setup                |
           -------------------------------------------------

          program call               : xtb Cu_Ph_C2_4.xyz --gfn 1 --opt -T 48
          hostname                   : cx3-14-28.cx3.hpc.ic.ac.uk
          coordinate file            : Cu_Ph_C2_4.xyz
          omp threads                :                     1

   ID    Z sym.   atoms
    1   29 Cu     1, 57, 119, 174
    2    6 C      2-6, 8-11, 13-29, 32-37, 58-62, 64-67, 69-85, 88-93,
                  113-118, 120-124, 126-129, 131-147, 150-155, 175-179,
                  181-184, 186-202, 205-210
    3    7 N      7, 12, 30, 31, 63, 68, 86, 87, 125, 130, 148, 149, 180,
                  185, 203, 204
    4    1 H      38-56, 94-112, 156-173, 211-228

molecular fragmentation (1/2 indicates fragments):
111111111111111111111111111111111111111111111111111111112222222222222222
222222222222222222222222222222222222222222222222222222222222222222222222
222222222222222222222222222222222222222222222222222222222222222222222222
222222222222
# atoms in fragment 1/2:    56   172
 fragment masses (1/2) :      523.07     1639.25
CMA distance (Bohr)    :  42.298
constraining FC (au)   :  0.0500
########################################################################
[WARNING] Please study the warnings concerning your input carefully
-1- prog_main_parseArguments: Unknown option '-T' provided
########################################################################

           -------------------------------------------------
          |                 G F N 1 - x T B                 |
           -------------------------------------------------

        Reference                      10.1021/acs.jctc.7b00118
      * Hamiltonian:
        H0-scaling (s, p, d)           1.850000    2.250000    2.000000
        zeta-weighting                 0.000000
      * Dispersion:
        s8                             2.400000
        a1                             0.630000
        a2                             5.000000
        s9                             0.000000
      * Repulsion:
        kExp                           1.500000
        rExp                           1.000000
      * Coulomb:
        alpha                          2.000000
        third order                    atomic
        anisotropic                    false
      * Halogen bond correction:
        rad-scale                      1.300000
        damping                        0.440000


          ...................................................
          :                      SETUP                      :
          :.................................................:
          :  # basis functions                 788          :
          :  # atomic orbitals                 784          :
          :  # shells                          460          :
          :  # electrons                       734          :
          :  # halogen bonds                     0          :
          :  max. iterations                   250          :
          :  Hamiltonian                  GFN1-xTB          :
          :  restarted?                      false          :
          :  GBSA solvation                  false          :
          :  PC potential                    false          :
          :  electronic temp.          300.0000000     K    :
          :  accuracy                    1.0000000          :
          :  -> integral cutoff          0.2500000E+02      :
          :  -> integral neglect         0.1000000E-07      :
          :  -> SCF convergence          0.1000000E-05 Eh   :
          :  -> wf. convergence          0.2000000E-04 e    :
          :  Broyden damping             0.4000000          :
          ...................................................

 iter      E             dE          RMSdq      gap      omega  full diag
   1   -397.4633996 -0.397463E+03  0.106E+01    0.03       0.0  T
   2   -397.2741109  0.189289E+00  0.645E+00    0.42       1.0  T
   3   -210.0134828  0.187261E+03  0.112E+01    0.04       1.0  T
   4   -385.0767305 -0.175063E+03  0.230E+00    0.01       1.0  T
   5   -390.4159806 -0.533925E+01  0.188E+00    0.05       1.0  T
   6   -397.3512766 -0.693530E+01  0.853E-01    0.37       1.0  T
   7   -397.6211693 -0.269893E+00  0.598E-01    0.01       1.0  T
   8   -397.4524184  0.168751E+00  0.897E-01    0.18       1.0  T
   9   -397.7927170 -0.340299E+00  0.432E-01    0.01       1.0  T
  10   -397.4071476  0.385569E+00  0.830E-01    0.16       1.0  T
  11   -397.6846424 -0.277495E+00  0.583E-01    0.03       1.0  T
  12   -397.7382164 -0.535739E-01  0.437E-01    0.01       1.0  T
  13   -397.7416543 -0.343790E-02  0.453E-01    0.01       1.0  T
  14   -397.7799640 -0.383097E-01  0.352E-01    0.01       1.0  T
  15   -397.7199856  0.599783E-01  0.446E-01    0.03       1.0  T
  16   -397.7130096  0.697603E-02  0.445E-01    0.02       1.0  T
  17   -397.7919786 -0.789691E-01  0.255E-01    0.00       1.0  T
  18   -397.8068926 -0.149140E-01  0.238E-01    0.01       1.0  T
  19   -397.8287307 -0.218381E-01  0.960E-02    0.00       1.0  T
  20   -397.8326715 -0.394076E-02  0.525E-02    0.01       1.0  T
  21   -397.8327896 -0.118074E-03  0.652E-02    0.00       1.0  T
  22   -397.8325800  0.209552E-03  0.605E-02    0.00       1.0  T
  23   -397.8341585 -0.157845E-02  0.225E-02    0.00       1.0  T
  24   -397.8340025  0.156004E-03  0.286E-02    0.00       1.0  T
  25   -397.8342419 -0.239430E-03  0.160E-02    0.00       1.0  T
  26   -397.8343610 -0.119112E-03  0.435E-03    0.00       1.5  T
  27   -397.8343684 -0.739966E-05  0.145E-03    0.00       4.6  T
  28   -397.8343688 -0.443677E-06  0.109E-03    0.00       6.1  T
  29   -397.8343693 -0.432844E-06  0.383E-04    0.00      17.3  T
  30   -397.8343694 -0.739773E-07  0.143E-04    0.00      46.4  T
  31   -397.8343694 -0.958244E-08  0.649E-05    0.00     102.1  T

   *** convergence criteria satisfied after 31 iterations ***

         #    Occupation            Energy/Eh            Energy/eV
      -------------------------------------------------------------
         1        2.0000           -0.7693688             -20.9356
       ...           ...                  ...                  ...
       361        2.0000           -0.3926172             -10.6837
       362        2.0000           -0.3865296             -10.5180
       363        2.0000           -0.3844935             -10.4626
       364        2.0000           -0.3838859             -10.4461
       365        2.0000           -0.3725559             -10.1378
       366        1.0541           -0.3477543              -9.4629
       367        1.0365           -0.3477208              -9.4620 (HOMO)
       368        1.0100           -0.3476705              -9.4606 (LUMO)
       369        0.8993           -0.3474594              -9.4549
       370        0.0001           -0.3383696              -9.2075
       371                         -0.3290396              -8.9536
       372                         -0.3281515              -8.9295
       ...                                ...                  ...
       784                          1.5445374              42.0290
      -------------------------------------------------------------
                  HL-Gap            0.0000503 Eh            0.0014 eV
             Fermi-level           -0.3476514 Eh           -9.4601 eV

 SCC (total)                   0 d,  0 h,  0 min, 10.789 sec
 SCC setup                      ...        0 min,  0.021 sec (  0.197%)
 Dispersion                     ...        0 min,  0.016 sec (  0.146%)
 classical contributions        ...        0 min,  0.005 sec (  0.047%)
 integral evaluation            ...        0 min,  0.455 sec (  4.218%)
 iterations                     ...        0 min,  9.126 sec ( 84.592%)
 molecular gradient             ...        0 min,  1.104 sec ( 10.229%)
 printout                       ...        0 min,  0.061 sec (  0.570%)

         :::::::::::::::::::::::::::::::::::::::::::::::::::::
         ::                     SUMMARY                     ::
         :::::::::::::::::::::::::::::::::::::::::::::::::::::
         :: total energy            -391.556241553493 Eh    ::
         :: gradient norm              0.666959977627 Eh/a0 ::
         :: HOMO-LUMO gap              0.001368307194 eV    ::
         ::.................................................::
         :: SCC energy              -397.834369360474 Eh    ::
         :: -> electrostatic           0.235319651131 Eh    ::
         :: repulsion energy           6.491557486565 Eh    ::
         :: dispersion energy         -0.213429679584 Eh    ::
         :: halogen bond corr.         0.000000000000 Eh    ::
         :: add. restraining           0.000000000000 Eh    ::
         :: total charge              -0.000000000000 e     ::
         :::::::::::::::::::::::::::::::::::::::::::::::::::::

      ----------------------------------------------------------- 
     |                   =====================                   |
     |                        A N C O P T                        |
     |                   =====================                   |
     |               Approximate Normal Coordinate               |
     |                Rational Function Optimizer                |
      ----------------------------------------------------------- 

          ...................................................
          :                      SETUP                      :
          :.................................................:
          :   optimization level            normal          :
          :   max. optcycles                   684          :
          :   ANC micro-cycles                  20          :
          :   degrees of freedom               678          :
          :.................................................:
          :   RF solver                   davidson          :
          :   write xtbopt.log                true          :
          :   linear?                        false          :
          :   energy convergence         0.5000000E-05 Eh   :
          :   grad. convergence          0.1000000E-02 Eh/α :
          :   maximium RF displ.         1.0000000          :
          :   Hlow (freq-cutoff)         0.1000000E-01      :
          :   Hmax (freq-cutoff)         5.0000000          :
          :   S6 in model hess.         20.0000000          :
          ...................................................

generating ANC from model Hessian ...
Using Lindh-Hessian (1995)
 Shifting diagonal of input Hessian by    1.0021417338714483E-002
 Lowest  eigenvalues of input Hessian
    0.010000    0.010008    0.010009    0.010012    0.010013    0.010015
    0.010017    0.010021    0.000000    0.000000    0.000000    0.000000
    0.000000    0.000000    0.010026    0.010035    0.010082    0.010150
 Highest eigenvalues
    2.127822    2.180357    2.235945    2.568576    2.762399    2.985908


........................................................................
.............................. CYCLE    1 ..............................
........................................................................
   1   -397.8343694 -0.397834E+03  0.304E-05    0.00       0.0  T
   2   -397.8343688  0.590112E-06  0.100E-03    0.00       6.6  T
   3   -397.8343693 -0.570616E-06  0.177E-04    0.00      37.5  T
   4   -397.8343694 -0.115672E-07  0.125E-04    0.00      52.9  T
     SCC iter.                  ...        0 min,  1.166 sec
     gradient                   ...        0 min,  1.132 sec
 * total energy  :  -391.5562415 Eh     change        0.6493053E-08 Eh
   gradient norm :     0.6669599 Eh/α   predicted     0.0000000E+00 (-100.00%)
   displ. norm   :     0.5185162 α      lambda       -0.2717969E+00
   maximum displ.:     0.1036542 α      in ANC's #278, #526, #218, ...

........................................................................
.............................. CYCLE    2 ..............................
........................................................................
   1   -397.8741729 -0.397874E+03  0.158E-01    0.00       0.0  T
   2   -397.6523676  0.221805E+00  0.625E-01    0.00       1.0  T
   3   -397.6765136 -0.241460E-01  0.560E-01    0.05       1.0  T
   4   -397.6821451 -0.563144E-02  0.601E-01    0.05       1.0  T
   5   -397.6500668  0.320783E-01  0.674E-01    0.10       1.0  T
   6   -397.8078094 -0.157743E+00  0.382E-01    0.01       1.0  T
   7   -397.8477050 -0.398956E-01  0.261E-01    0.01       1.0  T
   8   -397.8730298 -0.253248E-01  0.130E-01    0.01       1.0  T
   9   -397.8625356  0.104942E-01  0.189E-01    0.01       1.0  T
  10   -397.8809486 -0.184130E-01  0.758E-02    0.01       1.0  T
  11   -397.8831439 -0.219530E-02  0.302E-02    0.00       1.0  T
  12   -397.8835942 -0.450305E-03  0.156E-02    0.00       1.0  T
  13   -397.8837172 -0.123012E-03  0.228E-03    0.00       2.9  T
  14   -397.8837186 -0.138547E-05  0.167E-03    0.00       4.0  T
  15   -397.8837194 -0.862857E-06  0.978E-04    0.00       6.8  T
  16   -397.8837198 -0.335964E-06  0.564E-04    0.00      11.8  T
  17   -397.8837199 -0.167245E-06  0.786E-05    0.00      84.2  T
  18   -397.8837199 -0.194666E-08  0.570E-05    0.00     116.2  T
     SCC iter.                  ...        0 min,  5.331 sec
     gradient                   ...        0 min,  1.129 sec
 * total energy  :  -391.7704609 Eh     change       -0.2142194E+00 Eh
   gradient norm :     0.3751901 Eh/α   predicted    -0.1725074E+00 ( -19.47%)
   displ. norm   :     0.6251816 α      lambda       -0.1877123E+00
   maximum displ.:     0.1285759 α      in ANC's #162, #54, #218, ...

........................................................................
.............................. CYCLE    3 ..............................
........................................................................
   1   -397.9309542 -0.397931E+03  0.215E-01    0.01       0.0  T
   2   -397.5081138  0.422840E+00  0.881E-01    0.50       1.0  T
   3   -397.7400211 -0.231907E+00  0.610E-01    0.06       1.0  T
   4   -397.5533010  0.186720E+00  0.776E-01    0.19       1.0  T
   5   -397.8137142 -0.260413E+00  0.464E-01    0.01       1.0  T
   6   -397.8348612 -0.211470E-01  0.474E-01    0.01       1.0  T
   7   -397.9405902 -0.105729E+00  0.119E-01    0.01       1.0  T
   8   -397.9003140  0.402762E-01  0.297E-01    0.02       1.0  T
   9   -397.9398408 -0.395269E-01  0.127E-01    0.00       1.0  T
  10   -397.9453965 -0.555571E-02  0.758E-02    0.00       1.0  T
  11   -397.9485943 -0.319772E-02  0.127E-02    0.00       1.0  T
  12   -397.9486527 -0.584152E-04  0.766E-03    0.00       1.0  T
  13   -397.9486675 -0.148532E-04  0.547E-03    0.00       1.2  T
  14   -397.9486787 -0.111406E-04  0.314E-03    0.00       2.1  T
  15   -397.9486823 -0.363118E-05  0.154E-03    0.00       4.3  T
  16   -397.9486833 -0.102846E-05  0.784E-04    0.00       8.4  T
  17   -397.9486836 -0.287874E-06  0.229E-04    0.00      28.9  T
  18   -397.9486837 -0.304113E-07  0.734E-05    0.00      90.3  T
  19   -397.9486837 -0.235559E-08  0.381E-05    0.00     173.8  T
     SCC iter.                  ...        0 min,  5.536 sec
     gradient                   ...        0 min,  1.116 sec
 * total energy  :  -391.9092164 Eh     change       -0.1387555E+00 Eh
   gradient norm :     0.1570855 Eh/α   predicted    -0.1305400E+00 (  -5.92%)
   displ. norm   :     0.7262063 α      lambda       -0.9087878E-01
   maximum displ.:     0.2261233 α      in ANC's #54, #162, #64, ...

........................................................................
.............................. CYCLE    4 ..............................
........................................................................
   1   -397.9812234 -0.397981E+03  0.124E-01    0.01       0.0  T
   2   -397.5907528  0.390471E+00  0.833E-01    0.25       1.0  T
   3   -397.8927612 -0.302008E+00  0.416E-01    0.02       1.0  T
   4   -397.7560009  0.136760E+00  0.619E-01    0.06       1.0  T
   5   -397.7859817 -0.299808E-01  0.598E-01    0.05       1.0  T
   6   -397.9744849 -0.188503E+00  0.136E-01    0.01       1.0  T
   7   -397.9816956 -0.721071E-02  0.885E-02    0.00       1.0  T
   8   -397.9858821 -0.418647E-02  0.303E-02    0.00       1.0  T
   9   -397.9862054 -0.323307E-03  0.184E-02    0.00       1.0  T
  10   -397.9863869 -0.181503E-03  0.592E-03    0.00       1.1  T
  11   -397.9864007 -0.137918E-04  0.404E-03    0.00       1.6  T
  12   -397.9864091 -0.839346E-05  0.678E-04    0.00       9.8  T
  13   -397.9864088  0.307965E-06  0.112E-03    0.00       5.9  T
  14   -397.9864093 -0.524730E-06  0.369E-04    0.00      17.9  T
  15   -397.9864093 -0.289003E-07  0.318E-04    0.00      20.8  T
  16   -397.9864094 -0.303369E-07  0.185E-04    0.00      35.9  T
  17   -397.9864094 -0.130251E-07  0.930E-05    0.00      71.2  T
     SCC iter.                  ...        0 min,  4.961 sec
     gradient                   ...        0 min,  1.133 sec
 * total energy  :  -391.9790221 Eh     change       -0.6980566E-01 Eh
   gradient norm :     0.0818987 Eh/α   predicted    -0.6940309E-01 (  -0.58%)
   displ. norm   :     0.7632715 α      lambda       -0.4860754E-01
   maximum displ.:     0.3416463 α      in ANC's #54, #64, #162, ...

........................................................................
.............................. CYCLE    5 ..............................
........................................................................
   1   -398.0022723 -0.398002E+03  0.595E-02    0.00       0.0  T
   2   -397.8600020  0.142270E+00  0.510E-01    0.02       1.0  T
   3   -397.9814812 -0.121479E+00  0.206E-01    0.01       1.0  T
   4   -397.9283857  0.530955E-01  0.384E-01    0.02       1.0  T
   5   -397.9966989 -0.683132E-01  0.112E-01    0.01       1.0  T
   6   -397.8971983  0.995006E-01  0.394E-01    0.03       1.0  T
   7   -398.0008651 -0.103667E+00  0.698E-02    0.01       1.0  T
   8   -398.0025473 -0.168224E-02  0.428E-02    0.00       1.0  T
   9   -398.0034142 -0.866831E-03  0.108E-02    0.00       1.0  T
  10   -398.0034576 -0.433933E-04  0.834E-03    0.00       1.0  T
  11   -398.0034847 -0.271026E-04  0.362E-03    0.00       1.8  T
  12   -398.0034849 -0.236158E-06  0.353E-03    0.00       1.9  T
  13   -398.0034904 -0.554580E-05  0.149E-03    0.00       4.4  T
  14   -398.0034916 -0.119552E-05  0.155E-04    0.00      42.7  T
  15   -398.0034916 -0.129868E-07  0.639E-05    0.00     103.6  T
  16   -398.0034916  0.414980E-08  0.103E-04    0.00      64.6  T
     SCC iter.                  ...        0 min,  4.738 sec
     gradient                   ...        0 min,  1.115 sec
 * total energy  :  -392.0137297 Eh     change       -0.3470764E-01 Eh
   gradient norm :     0.0665448 Eh/α   predicted    -0.3846274E-01 (  10.82%)
   displ. norm   :     0.7083552 α      lambda       -0.2732884E-01
   maximum displ.:     0.3844500 α      in ANC's #54, #64, #76, ...

........................................................................
.............................. CYCLE    6 ..............................
........................................................................
   1   -398.0390356 -0.398039E+03  0.394E-02    0.00       0.0  T
   2   -397.7420129  0.297023E+00  0.730E-01    0.11       1.0  T
   3   -397.9894166 -0.247404E+00  0.301E-01    0.02       1.0  T
   4   -398.0251191 -0.357025E-01  0.162E-01    0.01       1.0  T
   5   -397.9927968  0.323223E-01  0.282E-01    0.02       1.0  T
   6   -398.0385298 -0.457330E-01  0.511E-02    0.00       1.0  T
   7   -398.0393287 -0.798938E-03  0.358E-02    0.00       1.0  T
   8   -398.0397189 -0.390242E-03  0.220E-02    0.00       1.0  T
   9   -398.0395612  0.157690E-03  0.275E-02    0.00       1.0  T
  10   -398.0398869 -0.325618E-03  0.127E-02    0.00       1.0  T
  11   -398.0399612 -0.742884E-04  0.544E-03    0.00       1.2  T
  12   -398.0399742 -0.130073E-04  0.231E-03    0.00       2.9  T
  13   -398.0399767 -0.255418E-05  0.729E-04    0.00       9.1  T
  14   -398.0399769 -0.232070E-06  0.320E-04    0.00      20.7  T
  15   -398.0399770 -0.411073E-07  0.149E-04    0.00      44.5  T
  16   -398.0399770 -0.103373E-07  0.513E-05    0.00     129.1  T
     SCC iter.                  ...        0 min,  4.677 sec
     gradient                   ...        0 min,  1.138 sec
 * total energy  :  -392.0369910 Eh     change       -0.2326126E-01 Eh
   gradient norm :     0.0416976 Eh/α   predicted    -0.2052078E-01 ( -11.78%)
   displ. norm   :     0.8130418 α      lambda       -0.2268997E-01
   maximum displ.:     0.4640442 α      in ANC's #54, #64, #66, ...

........................................................................
.............................. CYCLE    7 ..............................
........................................................................
   1   -398.0805577 -0.398081E+03  0.739E-02    0.01       0.0  T
   2   -397.6834705  0.397087E+00  0.843E-01    0.29       1.0  T
   3   -398.0078649 -0.324394E+00  0.342E-01    0.01       1.0  T
   4   -398.0755527 -0.676878E-01  0.122E-01    0.01       1.0  T
   5   -398.0588523  0.167004E-01  0.221E-01    0.00       1.0  T
   6   -398.0835077 -0.246554E-01  0.144E-02    0.00       1.0  T
   7   -398.0824953  0.101245E-02  0.457E-02    0.00       1.0  T
   8   -398.0836094 -0.111415E-02  0.713E-03    0.00       1.0  T
   9   -398.0825364  0.107305E-02  0.448E-02    0.00       1.0  T
  10   -398.0835997 -0.106331E-02  0.851E-03    0.00       1.0  T
  11   -398.0836063 -0.657543E-05  0.779E-03    0.00       1.0  T
  12   -398.0836394 -0.331381E-04  0.347E-04    0.00      19.1  T
  13   -398.0836394  0.516413E-07  0.479E-04    0.00      13.8  T
  14   -398.0836394 -0.623143E-07  0.338E-04    0.00      19.6  T
  15   -398.0836395 -0.584392E-07  0.705E-05    0.00      93.9  T
  16   -398.0836395 -0.166273E-08  0.436E-05    0.00     151.7  T
     SCC iter.                  ...        0 min,  4.791 sec
     gradient                   ...        0 min,  1.128 sec
 * total energy  :  -392.0563641 Eh     change       -0.1937314E-01 Eh
   gradient norm :     0.0335148 Eh/α   predicted    -0.1884445E-01 (  -2.73%)
   displ. norm   :     0.8339092 α      lambda       -0.1723181E-01
   maximum displ.:     0.4938417 α      in ANC's #54, #64, #66, ...

........................................................................
.............................. CYCLE    8 ..............................
........................................................................
   1   -398.1176126 -0.398118E+03  0.115E-01    0.01       0.0  T
   2   -397.6864033  0.431209E+00  0.874E-01    0.41       1.0  T
   3   -397.9430103 -0.256607E+00  0.536E-01    0.07       1.0  T
   4   -398.1143494 -0.171339E+00  0.142E-01    0.00       1.0  T
   5   -398.1087356  0.561377E-02  0.171E-01    0.01       1.0  T
   6   -398.1245590 -0.158234E-01  0.128E-02    0.00       1.0  T
   7   -398.1220967  0.246228E-02  0.679E-02    0.01       1.0  T
   8   -398.1238238 -0.172711E-02  0.380E-02    0.00       1.0  T
   9   -398.1241289 -0.305064E-03  0.299E-02    0.00       1.0  T
  10   -398.1246198 -0.490909E-03  0.834E-04    0.00       7.9  T
  11   -398.1246201 -0.332617E-06  0.443E-04    0.00      14.9  T
  12   -398.1246199  0.215794E-06  0.772E-04    0.00       8.6  T
  13   -398.1246202 -0.307093E-06  0.150E-04    0.00      44.3  T
  14   -398.1246202  0.167502E-07  0.231E-04    0.00      28.7  T
  15   -398.1246202 -0.277154E-07  0.459E-05    0.00     144.4  T
     SCC iter.                  ...        0 min,  4.328 sec
     gradient                   ...        0 min,  1.124 sec
 * total energy  :  -392.0711060 Eh     change       -0.1474187E-01 Eh
   gradient norm :     0.0242186 Eh/α   predicted    -0.1460745E-01 (  -0.91%)
   displ. norm   :     0.8343442 α      lambda       -0.1347706E-01
   maximum displ.:     0.5022323 α      in ANC's #54, #64, #32, ...

........................................................................
.............................. CYCLE    9 ..............................
........................................................................
   1   -398.1562794 -0.398156E+03  0.139E-01    0.02       0.0  T
   2   -397.7015833  0.454696E+00  0.895E-01    0.57       1.0  T
   3   -398.1328504 -0.431267E+00  0.240E-01    0.01       1.0  T
   4   -398.1532317 -0.203813E-01  0.150E-01    0.00       1.0  T
   5   -398.1233181  0.299136E-01  0.279E-01    0.02       1.0  T
   6   -398.1658717 -0.425537E-01  0.253E-02    0.00       1.0  T
   7   -398.1615550  0.431672E-02  0.932E-02    0.01       1.0  T
   8   -398.1659100 -0.435494E-02  0.249E-02    0.00       1.0  T
   9   -398.1658367  0.732733E-04  0.274E-02    0.00       1.0  T
  10   -398.1662390 -0.402346E-03  0.251E-03    0.00       2.6  T
  11   -398.1662397 -0.661261E-06  0.233E-03    0.00       2.8  T
  12   -398.1662426 -0.286539E-05  0.166E-04    0.00      39.8  T
  13   -398.1662424  0.149238E-06  0.560E-04    0.00      11.8  T
  14   -398.1662426 -0.157333E-06  0.123E-04    0.00      53.8  T
  15   -398.1662426 -0.752203E-08  0.296E-05    0.00     223.7  T
     SCC iter.                  ...        0 min,  4.387 sec
     gradient                   ...        0 min,  1.147 sec
 * total energy  :  -392.0818094 Eh     change       -0.1070335E-01 Eh
   gradient norm :     0.0197032 Eh/α   predicted    -0.1142944E-01 (   6.78%)
   displ. norm   :     0.8073821 α      lambda       -0.1030373E-01
   maximum displ.:     0.4747582 α      in ANC's #54, #64, #32, ...

........................................................................
.............................. CYCLE   10 ..............................
........................................................................
   1   -398.1890370 -0.398189E+03  0.159E-01    0.02       0.0  T
   2   -397.7141301  0.474907E+00  0.912E-01    0.57       1.0  T
   3   -398.0221189 -0.307989E+00  0.546E-01    0.05       1.0  T
   4   -398.1784920 -0.156373E+00  0.208E-01    0.01       1.0  T
   5   -398.1804647 -0.197272E-02  0.198E-01    0.01       1.0  T
   6   -398.2010911 -0.206264E-01  0.370E-02    0.00       1.0  T
   7   -398.1958725  0.521867E-02  0.105E-01    0.01       1.0  T
   8   -398.2015806 -0.570817E-02  0.230E-02    0.00       1.0  T
   9   -398.2016065 -0.258254E-04  0.220E-02    0.00       1.0  T
  10   -398.2018667 -0.260206E-03  0.111E-03    0.00       6.0  T
  11   -398.2018636  0.306494E-05  0.272E-03    0.00       2.4  T
  12   -398.2018675 -0.385810E-05  0.297E-04    0.00      22.3  T
  13   -398.2018672  0.243589E-06  0.740E-04    0.00       9.0  T
  14   -398.2018675 -0.285799E-06  0.743E-05    0.00      89.2  T
  15   -398.2018675 -0.250344E-08  0.260E-05    0.00     254.2  T
     SCC iter.                  ...        0 min,  4.423 sec
     gradient                   ...        0 min,  1.092 sec
 * total energy  :  -392.0894723 Eh     change       -0.7662956E-02 Eh
   gradient norm :     0.0180038 Eh/α   predicted    -0.8510208E-02 (  11.06%)
   displ. norm   :     0.7349402 α      lambda       -0.6365407E-02
   maximum displ.:     0.4267766 α      in ANC's #54, #64, #32, ...

........................................................................
.............................. CYCLE   11 ..............................
........................................................................
   1   -398.2219171 -0.398222E+03  0.113E-01    0.01       0.0  T
   2   -397.7784607  0.443456E+00  0.886E-01    0.41       1.0  T
   3   -398.0970794 -0.318619E+00  0.457E-01    0.06       1.0  T
   4   -398.2254145 -0.128335E+00  0.773E-02    0.01       1.0  T
   5   -398.2162530  0.916148E-02  0.151E-01    0.01       1.0  T
   6   -398.2274162 -0.111632E-01  0.424E-02    0.00       1.0  T
   7   -398.2241414  0.327480E-02  0.898E-02    0.01       1.0  T
   8   -398.2279392 -0.379780E-02  0.307E-02    0.00       1.0  T
   9   -398.2277908  0.148454E-03  0.349E-02    0.00       1.0  T
  10   -398.2284422 -0.651494E-03  0.291E-03    0.00       2.3  T
  11   -398.2284467 -0.445985E-05  0.666E-04    0.00       9.9  T
  12   -398.2284463  0.449145E-06  0.114E-03    0.00       5.8  T
  13   -398.2284468 -0.557062E-06  0.495E-04    0.00      13.4  T
  14   -398.2284469 -0.107010E-06  0.212E-04    0.00      31.2  T
  15   -398.2284469 -0.234011E-07  0.227E-05    0.00     291.4  T
  16   -398.2284469 -0.254147E-09  0.506E-06    0.00    1309.5  T
     SCC iter.                  ...        0 min,  4.680 sec
     gradient                   ...        0 min,  1.145 sec
 * total energy  :  -392.0945140 Eh     change       -0.5041726E-02 Eh
   gradient norm :     0.0175104 Eh/α   predicted    -0.4901816E-02 (  -2.78%)
   displ. norm   :     0.7225646 α      lambda       -0.4491226E-02
   maximum displ.:     0.3658412 α      in ANC's #54, #32, #17, ...

........................................................................
.............................. CYCLE   12 ..............................
........................................................................
   1   -398.2487508 -0.398249E+03  0.852E-02    0.01       0.0  T
   2   -397.8269395  0.421811E+00  0.869E-01    0.33       1.0  T
   3   -398.2017740 -0.374834E+00  0.306E-01    0.01       1.0  T
   4   -398.2494720 -0.476980E-01  0.673E-02    0.00       1.0  T
   5   -398.2368020  0.126700E-01  0.160E-01    0.00       1.0  T
   6   -398.2510695 -0.142675E-01  0.500E-02    0.00       1.0  T
   7   -398.2514585 -0.388968E-03  0.434E-02    0.01       1.0  T
   8   -398.2517804 -0.321881E-03  0.347E-02    0.01       1.0  T
   9   -398.2523716 -0.591264E-03  0.972E-03    0.00       1.0  T
  10   -398.2523059  0.657658E-04  0.150E-02    0.00       1.0  T
  11   -398.2524244 -0.118555E-03  0.641E-04    0.00      10.3  T
  12   -398.2524246 -0.160653E-06  0.332E-04    0.00      19.9  T
  13   -398.2524245  0.474808E-07  0.448E-04    0.00      14.8  T
  14   -398.2524246 -0.248834E-07  0.392E-04    0.00      16.9  T
  15   -398.2524246 -0.763380E-07  0.933E-05    0.00      71.0  T
  16   -398.2524247 -0.443919E-08  0.153E-05    0.00     433.2  T
     SCC iter.                  ...        0 min,  4.782 sec
     gradient                   ...        0 min,  1.132 sec
 * total energy  :  -392.0979653 Eh     change       -0.3451256E-02 Eh
   gradient norm :     0.0140478 Eh/α   predicted    -0.3418062E-02 (  -0.96%)
   displ. norm   :     0.7090345 α      lambda       -0.3352152E-02
   maximum displ.:     0.3032686 α      in ANC's #17, #32, #54, ...

........................................................................
.............................. CYCLE   13 ..............................
........................................................................
   1   -398.2666249 -0.398267E+03  0.582E-02    0.00       0.0  T
   2   -397.9294545  0.337170E+00  0.727E-01    0.09       1.0  T
   3   -398.1020724 -0.172618E+00  0.550E-01    0.04       1.0  T
   4   -398.2625720 -0.160500E+00  0.110E-01    0.00       1.0  T
   5   -398.2666213 -0.404928E-02  0.593E-02    0.01       1.0  T
   6   -398.2684673 -0.184603E-02  0.885E-03    0.00       1.0  T
   7   -398.2684161  0.511904E-04  0.130E-02    0.00       1.0  T
   8   -398.2684907 -0.745646E-04  0.612E-03    0.00       1.1  T
   9   -398.2684785  0.121807E-04  0.764E-03    0.00       1.0  T
  10   -398.2685073 -0.287862E-04  0.271E-03    0.00       2.4  T
  11   -398.2685102 -0.289608E-05  0.134E-03    0.00       4.9  T
  12   -398.2685113 -0.107252E-05  0.450E-05    0.00     147.2  T
  13   -398.2685112  0.491066E-07  0.303E-04    0.00      21.8  T
  14   -398.2685112 -0.477319E-07  0.747E-05    0.00      88.6  T
  15   -398.2685113 -0.273690E-08  0.154E-05    0.00     430.1  T
     SCC iter.                  ...        0 min,  4.317 sec
     gradient                   ...        0 min,  1.130 sec
 * total energy  :  -392.1004230 Eh     change       -0.2457679E-02 Eh
   gradient norm :     0.0138519 Eh/α   predicted    -0.2518692E-02 (   2.48%)
   displ. norm   :     0.6728947 α      lambda       -0.2658869E-02
   maximum displ.:     0.3152938 α      in ANC's #17, #32, #26, ...

........................................................................
.............................. CYCLE   14 ..............................
........................................................................
   1   -398.2792678 -0.398279E+03  0.184E-02    0.00       0.0  T
   2   -398.1903822  0.888855E-01  0.409E-01    0.02       1.0  T
   3   -398.2770218 -0.866396E-01  0.656E-02    0.00       1.0  T
   4   -398.2748528  0.216906E-02  0.952E-02    0.00       1.0  T
   5   -398.2736180  0.123476E-02  0.956E-02    0.00       1.0  T
   6   -398.2792206 -0.560262E-02  0.169E-02    0.00       1.0  T
   7   -398.2793913 -0.170721E-03  0.506E-03    0.00       1.3  T
   8   -398.2793990 -0.767472E-05  0.372E-03    0.00       1.8  T
   9   -398.2793978  0.121456E-05  0.374E-03    0.00       1.8  T
  10   -398.2794052 -0.736763E-05  0.786E-04    0.00       8.4  T
  11   -398.2794055 -0.305442E-06  0.351E-04    0.00      18.9  T
  12   -398.2794055 -0.761858E-07  0.103E-04    0.00      64.5  T
  13   -398.2794055 -0.461336E-08  0.370E-05    0.00     179.0  T
     SCC iter.                  ...        0 min,  3.798 sec
     gradient                   ...        0 min,  1.149 sec
 * total energy  :  -392.1022649 Eh     change       -0.1841914E-02 Eh
   gradient norm :     0.0177579 Eh/α   predicted    -0.1931388E-02 (   4.86%)
   displ. norm   :     0.6478141 α      lambda       -0.2327475E-02
   maximum displ.:     0.3167976 α      in ANC's #17, #32, #26, ...

........................................................................
.............................. CYCLE   15 ..............................
........................................................................
   1   -398.2858348 -0.398286E+03  0.539E-02    0.00       0.0  T
   2   -398.0578361  0.227999E+00  0.638E-01    0.06       1.0  T
   3   -398.1957379 -0.137902E+00  0.412E-01    0.01       1.0  T
   4   -398.2828467 -0.871088E-01  0.856E-02    0.00       1.0  T
   5   -398.2837389 -0.892223E-03  0.776E-02    0.00       1.0  T
   6   -398.2869496 -0.321065E-02  0.273E-02    0.00       1.0  T
   7   -398.2872057 -0.256183E-03  0.167E-02    0.00       1.0  T
   8   -398.2872449 -0.391163E-04  0.150E-02    0.00       1.0  T
   9   -398.2873305 -0.856513E-04  0.811E-03    0.00       1.0  T
  10   -398.2873302  0.279098E-06  0.838E-03    0.00       1.0  T
  11   -398.2873696 -0.394137E-04  0.579E-04    0.00      11.4  T
  12   -398.2873698 -0.147762E-06  0.203E-04    0.00      32.6  T
  13   -398.2873698 -0.693740E-08  0.193E-04    0.00      34.3  T
  14   -398.2873698 -0.145707E-07  0.107E-04    0.00      61.9  T
     SCC iter.                  ...        0 min,  4.111 sec
     gradient                   ...        0 min,  1.131 sec
 * total energy  :  -392.1040881 Eh     change       -0.1823249E-02 Eh
   gradient norm :     0.0124904 Eh/α   predicted    -0.1652127E-02 (  -9.39%)
   displ. norm   :     0.7111576 α      lambda       -0.2257931E-02
   maximum displ.:     0.3533660 α      in ANC's #17, #32, #26, ...

........................................................................
.............................. CYCLE   16 ..............................
........................................................................
   1   -398.2880844 -0.398288E+03  0.835E-02    0.01       0.0  T
   2   -397.9049870  0.383097E+00  0.834E-01    0.35       1.0  T
   3   -398.2679307 -0.362944E+00  0.194E-01    0.01       1.0  T
   4   -398.2903215 -0.223908E-01  0.485E-02    0.00       1.0  T
   5   -398.2746184  0.157031E-01  0.186E-01    0.01       1.0  T
   6   -398.2912826 -0.166642E-01  0.269E-02    0.00       1.0  T
   7   -398.2909509  0.331661E-03  0.375E-02    0.00       1.0  T
   8   -398.2915161 -0.565182E-03  0.184E-02    0.00       1.0  T
   9   -398.2915297 -0.136460E-04  0.179E-02    0.00       1.0  T
  10   -398.2916947 -0.165002E-03  0.212E-03    0.00       3.1  T
  11   -398.2916937  0.997841E-06  0.256E-03    0.00       2.6  T
  12   -398.2916965 -0.271603E-05  0.121E-03    0.00       5.5  T
  13   -398.2916971 -0.657749E-06  0.467E-04    0.00      14.2  T
  14   -398.2916972 -0.103994E-06  0.139E-04    0.00      47.7  T
  15   -398.2916972 -0.573863E-08  0.908E-05    0.00      72.9  T
     SCC iter.                  ...        0 min,  4.371 sec
     gradient                   ...        0 min,  1.148 sec
 * total energy  :  -392.1058255 Eh     change       -0.1737374E-02 Eh
   gradient norm :     0.0156422 Eh/α   predicted    -0.1699935E-02 (  -2.15%)
   displ. norm   :     0.7270611 α      lambda       -0.2074575E-02
   maximum displ.:     0.3656940 α      in ANC's #17, #26, #30, ...

........................................................................
.............................. CYCLE   17 ..............................
........................................................................
   1   -398.2887322 -0.398289E+03  0.853E-02    0.01       0.0  T
   2   -397.9016523  0.387080E+00  0.838E-01    0.36       1.0  T
   3   -398.2779090 -0.376257E+00  0.154E-01    0.02       1.0  T
   4   -398.2904944 -0.125854E-01  0.558E-02    0.00       1.0  T
   5   -398.2705122  0.199822E-01  0.206E-01    0.02       1.0  T
   6   -398.2916289 -0.211167E-01  0.388E-02    0.00       1.0  T
   7   -398.2911933  0.435517E-03  0.491E-02    0.00       1.0  T
   8   -398.2922910 -0.109764E-02  0.176E-02    0.00       1.0  T
   9   -398.2923483 -0.573253E-04  0.142E-02    0.00       1.0  T
  10   -398.2924434 -0.951237E-04  0.459E-03    0.00       1.4  T
  11   -398.2924529 -0.941818E-05  0.187E-03    0.00       3.6  T
  12   -398.2924547 -0.184098E-05  0.910E-05    0.00      72.8  T
  13   -398.2924546  0.909688E-07  0.430E-04    0.00      15.4  T
  14   -398.2924547 -0.770395E-07  0.191E-04    0.00      34.7  T
  15   -398.2924547 -0.143858E-07  0.955E-05    0.00      69.4  T
     SCC iter.                  ...        0 min,  4.490 sec
     gradient                   ...        0 min,  1.138 sec
 * total energy  :  -392.1074859 Eh     change       -0.1660406E-02 Eh
   gradient norm :     0.0095566 Eh/α   predicted    -0.1585619E-02 (  -4.50%)
   displ. norm   :     0.7281922 α      lambda       -0.1497260E-02
   maximum displ.:     0.3804420 α      in ANC's #17, #30, #26, ...

........................................................................
.............................. CYCLE   18 ..............................
........................................................................
   1   -398.2923177 -0.398292E+03  0.676E-02    0.00       0.0  T
   2   -397.9317625  0.360555E+00  0.811E-01    0.20       1.0  T
   3   -398.1424358 -0.210673E+00  0.505E-01    0.05       1.0  T
   4   -398.2843621 -0.141926E+00  0.136E-01    0.01       1.0  T
   5   -398.2922938 -0.793172E-02  0.651E-02    0.00       1.0  T
   6   -398.2939853 -0.169143E-02  0.356E-02    0.00       1.0  T
   7   -398.2945764 -0.591162E-03  0.142E-02    0.00       1.0  T
   8   -398.2945998 -0.233458E-04  0.124E-02    0.00       1.0  T
   9   -398.2946569 -0.570869E-04  0.656E-03    0.00       1.0  T
  10   -398.2946682 -0.113541E-04  0.486E-03    0.00       1.4  T
  11   -398.2946810 -0.128080E-04  0.308E-04    0.00      21.5  T
  12   -398.2946811 -0.461458E-07  0.957E-05    0.00      69.2  T
  13   -398.2946811  0.329169E-08  0.123E-04    0.00      54.0  T
     SCC iter.                  ...        0 min,  3.753 sec
     gradient                   ...        0 min,  1.130 sec
 * total energy  :  -392.1087502 Eh     change       -0.1264258E-02 Eh
   gradient norm :     0.0079632 Eh/α   predicted    -0.1145602E-02 (  -9.39%)
   displ. norm   :     0.7318063 α      lambda       -0.1303335E-02
   maximum displ.:     0.3880718 α      in ANC's #17, #30, #26, ...

........................................................................
.............................. CYCLE   19 ..............................
........................................................................
   1   -398.2991535 -0.398299E+03  0.546E-02    0.00       0.0  T
   2   -397.9719407  0.327213E+00  0.774E-01    0.14       1.0  T
   3   -398.1750680 -0.203127E+00  0.460E-01    0.04       1.0  T
   4   -398.2931594 -0.118091E+00  0.114E-01    0.01       1.0  T
   5   -398.2985374 -0.537808E-02  0.641E-02    0.01       1.0  T
   6   -398.3005098 -0.197235E-02  0.196E-02    0.00       1.0  T
   7   -398.3006949 -0.185142E-03  0.671E-03    0.00       1.0  T
   8   -398.3006836  0.113191E-04  0.816E-03    0.00       1.0  T
   9   -398.3007089 -0.252710E-04  0.439E-03    0.00       1.5  T
  10   -398.3007074  0.150609E-05  0.472E-03    0.00       1.4  T
  11   -398.3007189 -0.114941E-04  0.112E-03    0.00       5.9  T
  12   -398.3007195 -0.650669E-06  0.261E-04    0.00      25.3  T
  13   -398.3007196 -0.354939E-07  0.871E-05    0.00      76.1  T
  14   -398.3007196  0.163755E-08  0.103E-04    0.00      64.4  T
     SCC iter.                  ...        0 min,  4.067 sec
     gradient                   ...        0 min,  1.150 sec
 * total energy  :  -392.1097693 Eh     change       -0.1019072E-02 Eh
   gradient norm :     0.0076289 Eh/α   predicted    -0.1000667E-02 (  -1.81%)
   displ. norm   :     0.6987316 α      lambda       -0.1124861E-02
   maximum displ.:     0.3853075 α      in ANC's #17, #30, #26, ...

........................................................................
.............................. CYCLE   20 ..............................
........................................................................
   1   -398.3091047 -0.398309E+03  0.366E-02    0.00       0.0  T
   2   -398.0273942  0.281710E+00  0.720E-01    0.13       1.0  T
   3   -398.2858150 -0.258421E+00  0.219E-01    0.00       1.0  T
   4   -398.3083483 -0.225333E-01  0.485E-02    0.00       1.0  T
   5   -398.2954021  0.129461E-01  0.153E-01    0.00       1.0  T
   6   -398.3097480 -0.143459E-01  0.845E-03    0.00       1.0  T
   7   -398.3097841 -0.360989E-04  0.223E-03    0.00       3.0  T
   8   -398.3097784  0.564628E-05  0.416E-03    0.00       1.6  T
   9   -398.3097851 -0.670055E-05  0.202E-03    0.00       3.3  T
  10   -398.3097864 -0.123826E-05  0.134E-03    0.00       4.9  T
  11   -398.3097864  0.211331E-07  0.134E-03    0.00       5.0  T
  12   -398.3097871 -0.761808E-06  0.569E-04    0.00      11.6  T
  13   -398.3097873 -0.168142E-06  0.256E-05    0.00     259.0  T
  14   -398.3097873  0.791317E-09  0.483E-05    0.00     137.0  T
     SCC iter.                  ...        0 min,  4.202 sec
     gradient                   ...        0 min,  1.096 sec
 * total energy  :  -392.1106311 Eh     change       -0.8618534E-03 Eh
   gradient norm :     0.0073894 Eh/α   predicted    -0.8370245E-03 (  -2.88%)
   displ. norm   :     0.6501367 α      lambda       -0.7520608E-03
   maximum displ.:     0.3646303 α      in ANC's #17, #30, #18, ...
 * RMSD in coord.:     0.6825057 α      energy gain  -0.5543896E+00 Eh

generating ANC from model Hessian ...
Using Lindh-Hessian (1995)
 Shifting diagonal of input Hessian by    1.0130574172133035E-002
 Lowest  eigenvalues of input Hessian
    0.010000    0.010065    0.010106    0.010109    0.010116    0.010122
    0.010123    0.010126    0.000000    0.000000    0.000000    0.000000
    0.000000    0.000000    0.010161    0.010203    0.010266    0.010300
 Highest eigenvalues
    2.096434    2.136291    2.136494    2.607338    2.610772    2.611851


........................................................................
.............................. CYCLE   21 ..............................
........................................................................
   1   -398.3163565 -0.398316E+03  0.262E-02    0.00       0.0  T
   2   -398.0863417  0.230015E+00  0.652E-01    0.10       1.0  T
   3   -398.3139641 -0.227622E+00  0.685E-02    0.01       1.0  T
   4   -398.3154069 -0.144276E-02  0.454E-02    0.00       1.0  T
   5   -398.3037943  0.116126E-01  0.155E-01    0.01       1.0  T
   6   -398.3167170 -0.129228E-01  0.249E-03    0.00       2.7  T
   7   -398.3167104  0.663834E-05  0.395E-03    0.00       1.7  T
   8   -398.3167193 -0.894073E-05  0.128E-03    0.00       5.2  T
   9   -398.3167196 -0.274080E-06  0.954E-04    0.00       6.9  T
  10   -398.3167201 -0.552089E-06  0.235E-04    0.00      28.1  T
  11   -398.3167202 -0.678398E-08  0.205E-04    0.00      32.3  T
  12   -398.3167202 -0.193971E-07  0.780E-05    0.00      85.0  T
  13   -398.3167202 -0.254300E-08  0.355E-05    0.00     186.4  T
     SCC iter.                  ...        0 min,  3.789 sec
     gradient                   ...        0 min,  1.151 sec
 * total energy  :  -392.1112499 Eh     change       -0.6187580E-03 Eh
   gradient norm :     0.0062100 Eh/α   predicted     0.0000000E+00 (-100.00%)
   displ. norm   :     0.1087264 α      lambda       -0.1780283E-03
   maximum displ.:     0.0670175 α      in ANC's #15, #24, #32, ...

........................................................................
.............................. CYCLE   22 ..............................
........................................................................
   1   -398.3186837 -0.398319E+03  0.740E-03    0.00       0.0  T
   2   -398.2800633  0.386204E-01  0.256E-01    0.02       1.0  T
   3   -398.3174716 -0.374083E-01  0.456E-02    0.00       1.0  T
   4   -398.3185639 -0.109233E-02  0.174E-02    0.00       1.0  T
   5   -398.3178429  0.721059E-03  0.404E-02    0.00       1.0  T
   6   -398.3187102 -0.867271E-03  0.185E-03    0.00       3.6  T
   7   -398.3187098  0.313708E-06  0.205E-03    0.00       3.2  T
   8   -398.3187113 -0.144658E-05  0.128E-03    0.00       5.2  T
   9   -398.3187120 -0.676087E-06  0.502E-04    0.00      13.2  T
  10   -398.3187121 -0.129009E-06  0.384E-05    0.00     172.4  T
  11   -398.3187121 -0.103097E-08  0.153E-05    0.00     431.5  T
     SCC iter.                  ...        0 min,  3.254 sec
     gradient                   ...        0 min,  1.149 sec
 * total energy  :  -392.1114094 Eh     change       -0.1595309E-03 Eh
   gradient norm :     0.0034286 Eh/α   predicted    -0.9006687E-04 ( -43.54%)
   displ. norm   :     0.4025974 α      lambda       -0.5149962E-03
   maximum displ.:     0.2266134 α      in ANC's #15, #24, #32, ...

........................................................................
.............................. CYCLE   23 ..............................
........................................................................
   1   -398.3216164 -0.398322E+03  0.213E-02    0.00       0.0  T
   2   -398.1542503  0.167366E+00  0.532E-01    0.04       1.0  T
   3   -398.2997826 -0.145532E+00  0.194E-01    0.01       1.0  T
   4   -398.3214063 -0.216237E-01  0.300E-02    0.00       1.0  T
   5   -398.3162164  0.518986E-02  0.103E-01    0.01       1.0  T
   6   -398.3218414 -0.562498E-02  0.161E-03    0.00       4.1  T
   7   -398.3218381  0.327995E-05  0.323E-03    0.00       2.0  T
   8   -398.3218419 -0.375227E-05  0.216E-03    0.00       3.1  T
   9   -398.3218429 -0.107782E-05  0.158E-03    0.00       4.2  T
  10   -398.3218442 -0.125072E-05  0.268E-04    0.00      24.7  T
  11   -398.3218442  0.930766E-08  0.300E-04    0.00      22.0  T
  12   -398.3218442 -0.280311E-07  0.196E-04    0.00      33.9  T
  13   -398.3218442 -0.177474E-07  0.539E-05    0.00     122.8  T
     SCC iter.                  ...        0 min,  3.865 sec
     gradient                   ...        0 min,  1.103 sec
 * total energy  :  -392.1118107 Eh     change       -0.4013318E-03 Eh
   gradient norm :     0.0052136 Eh/α   predicted    -0.2992608E-03 ( -25.43%)
   displ. norm   :     0.4645597 α      lambda       -0.4071321E-03
   maximum displ.:     0.2620664 α      in ANC's #15, #24, #32, ...

........................................................................
.............................. CYCLE   24 ..............................
........................................................................
   1   -398.3220141 -0.398322E+03  0.131E-02    0.00       0.0  T
   2   -398.2484122  0.736019E-01  0.369E-01    0.01       1.0  T
   3   -398.3176929 -0.692807E-01  0.833E-02    0.00       1.0  T
   4   -398.3217880 -0.409517E-02  0.248E-02    0.00       1.0  T
   5   -398.3203702  0.141780E-02  0.569E-02    0.00       1.0  T
   6   -398.3220888 -0.171851E-02  0.334E-03    0.00       2.0  T
   7   -398.3220932 -0.448615E-05  0.203E-03    0.00       3.3  T
   8   -398.3220937 -0.491454E-06  0.182E-03    0.00       3.6  T
   9   -398.3220950 -0.122267E-05  0.921E-04    0.00       7.2  T
  10   -398.3220954 -0.413503E-06  0.151E-04    0.00      43.8  T
  11   -398.3220954 -0.107759E-07  0.495E-05    0.00     133.7  T
     SCC iter.                  ...        0 min,  3.189 sec
     gradient                   ...        0 min,  1.137 sec
 * total energy  :  -392.1121451 Eh     change       -0.3343272E-03 Eh
   gradient norm :     0.0091999 Eh/α   predicted    -0.2475480E-03 ( -25.96%)
   displ. norm   :     0.4946575 α      lambda       -0.3944281E-03
   maximum displ.:     0.2791872 α      in ANC's #15, #24, #32, ...

........................................................................
.............................. CYCLE   25 ..............................
........................................................................
   1   -398.3213385 -0.398321E+03  0.364E-03    0.00       0.0  T
   2   -398.3138536  0.748490E-02  0.117E-01    0.01       1.0  T
   3   -398.3211048 -0.725121E-02  0.196E-02    0.00       1.0  T
   4   -398.3212984 -0.193589E-03  0.912E-03    0.00       1.0  T
   5   -398.3213191 -0.206642E-04  0.693E-03    0.00       1.0  T
   6   -398.3213442 -0.251551E-04  0.923E-04    0.00       7.2  T
   7   -398.3213438  0.395647E-06  0.137E-03    0.00       4.8  T
   8   -398.3213441 -0.311106E-06  0.108E-03    0.00       6.1  T
   9   -398.3213448 -0.616588E-06  0.145E-04    0.00      45.7  T
  10   -398.3213448 -0.107470E-07  0.367E-05    0.00     180.3  T
     SCC iter.                  ...        0 min,  2.930 sec
     gradient                   ...        0 min,  1.150 sec
 * total energy  :  -392.1124881 Eh     change       -0.3430117E-03 Eh
   gradient norm :     0.0094448 Eh/α   predicted    -0.2454701E-03 ( -28.44%)
   displ. norm   :     0.5599477 α      lambda       -0.4613745E-03
   maximum displ.:     0.3196381 α      in ANC's #15, #24, #39, ...

........................................................................
.............................. CYCLE   26 ..............................
........................................................................
   1   -398.3204714 -0.398320E+03  0.112E-02    0.00       0.0  T
   2   -398.2297685  0.907030E-01  0.384E-01    0.04       1.0  T
   3   -398.3180987 -0.883302E-01  0.656E-02    0.00       1.0  T
   4   -398.3203500 -0.225136E-02  0.194E-02    0.00       1.0  T
   5   -398.3176115  0.273859E-02  0.752E-02    0.00       1.0  T
   6   -398.3205356 -0.292413E-02  0.333E-03    0.00       2.0  T
   7   -398.3205321  0.351603E-05  0.412E-03    0.00       1.6  T
   8   -398.3205389 -0.681820E-05  0.216E-03    0.00       3.1  T
   9   -398.3205411 -0.222336E-05  0.538E-04    0.00      12.3  T
  10   -398.3205413 -0.161016E-06  0.937E-05    0.00      70.7  T
  11   -398.3205413 -0.496010E-08  0.355E-05    0.00     186.7  T
     SCC iter.                  ...        0 min,  3.278 sec
     gradient                   ...        0 min,  1.098 sec
 * total energy  :  -392.1128819 Eh     change       -0.3938404E-03 Eh
   gradient norm :     0.0061864 Eh/α   predicted    -0.3030172E-03 ( -23.06%)
   displ. norm   :     0.5943819 α      lambda       -0.4400441E-03
   maximum displ.:     0.3453388 α      in ANC's #15, #24, #39, ...

........................................................................
.............................. CYCLE   27 ..............................
........................................................................
   1   -398.3204486 -0.398320E+03  0.175E-02    0.00       0.0  T
   2   -398.1960525  0.124396E+00  0.461E-01    0.03       1.0  T
   3   -398.3074314 -0.111379E+00  0.149E-01    0.00       1.0  T
   4   -398.3203777 -0.129463E-01  0.212E-02    0.00       1.0  T
   5   -398.3143840  0.599371E-02  0.109E-01    0.01       1.0  T
   6   -398.3205974 -0.621334E-02  0.428E-03    0.00       1.5  T
   7   -398.3205905  0.690440E-05  0.548E-03    0.00       1.2  T
   8   -398.3206025 -0.120078E-04  0.292E-03    0.00       2.3  T
   9   -398.3206058 -0.335966E-05  0.142E-03    0.00       4.7  T
  10   -398.3206068 -0.988056E-06  0.350E-04    0.00      18.9  T
  11   -398.3206069 -0.536943E-07  0.160E-04    0.00      41.3  T
  12   -398.3206069 -0.198366E-08  0.152E-04    0.00      43.5  T
     SCC iter.                  ...        0 min,  3.491 sec
     gradient                   ...        0 min,  1.145 sec
 * total energy  :  -392.1132408 Eh     change       -0.3588993E-03 Eh
   gradient norm :     0.0034427 Eh/α   predicted    -0.2977607E-03 ( -17.04%)
   displ. norm   :     0.5730573 α      lambda       -0.3349119E-03
   maximum displ.:     0.3367535 α      in ANC's #15, #24, #39, ...

........................................................................
.............................. CYCLE   28 ..............................
........................................................................
   1   -398.3211235 -0.398321E+03  0.149E-02    0.00       0.0  T
   2   -398.2393136  0.818099E-01  0.389E-01    0.00       1.0  T
   3   -398.3172420 -0.779284E-01  0.808E-02    0.00       1.0  T
   4   -398.3208484 -0.360636E-02  0.261E-02    0.00       1.0  T
   5   -398.3159233  0.492507E-02  0.998E-02    0.00       1.0  T
   6   -398.3212308 -0.530751E-02  0.263E-03    0.00       2.5  T
   7   -398.3212275  0.327489E-05  0.358E-03    0.00       1.8  T
   8   -398.3212327 -0.513288E-05  0.193E-03    0.00       3.4  T
   9   -398.3212338 -0.113601E-05  0.118E-03    0.00       5.6  T
  10   -398.3212344 -0.642499E-06  0.352E-04    0.00      18.8  T
  11   -398.3212345 -0.622738E-07  0.807E-05    0.00      82.1  T
  12   -398.3212345  0.143621E-08  0.980E-05    0.00      67.6  T
     SCC iter.                  ...        0 min,  3.549 sec
     gradient                   ...        0 min,  1.140 sec
 * total energy  :  -392.1135133 Eh     change       -0.2725391E-03 Eh
   gradient norm :     0.0051803 Eh/α   predicted    -0.2224476E-03 ( -18.38%)
   displ. norm   :     0.5422017 α      lambda       -0.2780697E-03
   maximum displ.:     0.3199246 α      in ANC's #15, #24, #39, ...

........................................................................
.............................. CYCLE   29 ..............................
........................................................................
   1   -398.3233409 -0.398323E+03  0.124E-02    0.00       0.0  T
   2   -398.2501660  0.731748E-01  0.372E-01    0.03       1.0  T
   3   -398.3226934 -0.725274E-01  0.382E-02    0.00       1.0  T
   4   -398.3230001 -0.306663E-03  0.296E-02    0.00       1.0  T
   5   -398.3232378 -0.237712E-03  0.168E-02    0.00       1.0  T
   6   -398.3234151 -0.177291E-03  0.250E-03    0.00       2.6  T
   7   -398.3234184 -0.329871E-05  0.117E-03    0.00       5.7  T
   8   -398.3234188 -0.386629E-06  0.796E-04    0.00       8.3  T
   9   -398.3234190 -0.198241E-06  0.429E-04    0.00      15.4  T
  10   -398.3234190 -0.777909E-07  0.165E-04    0.00      40.2  T
  11   -398.3234190 -0.142898E-07  0.915E-06    0.00     723.8  T
     SCC iter.                  ...        0 min,  3.286 sec
     gradient                   ...        0 min,  1.134 sec
 * total energy  :  -392.1137447 Eh     change       -0.2313420E-03 Eh
   gradient norm :     0.0062332 Eh/α   predicted    -0.1799091E-03 ( -22.23%)
   displ. norm   :     0.5479681 α      lambda       -0.2754673E-03
   maximum displ.:     0.3209581 α      in ANC's #15, #24, #29, ...

........................................................................
.............................. CYCLE   30 ..............................
........................................................................
   1   -398.3266266 -0.398327E+03  0.139E-02    0.00       0.0  T
   2   -398.2282493  0.983773E-01  0.423E-01    0.04       1.0  T
   3   -398.3266606 -0.984113E-01  0.111E-02    0.00       1.0  T
   4   -398.3229959  0.366470E-02  0.873E-02    0.00       1.0  T
   5   -398.3266359 -0.364000E-02  0.120E-02    0.00       1.0  T
   6   -398.3266973 -0.613877E-04  0.693E-03    0.00       1.0  T
   7   -398.3267261 -0.287954E-04  0.145E-03    0.00       4.6  T
   8   -398.3267271 -0.976374E-06  0.827E-04    0.00       8.0  T
   9   -398.3267274 -0.299215E-06  0.356E-04    0.00      18.6  T
  10   -398.3267274 -0.651333E-07  0.121E-04    0.00      54.7  T
  11   -398.3267274 -0.716102E-08  0.539E-05    0.00     122.8  T
     SCC iter.                  ...        0 min,  3.182 sec
     gradient                   ...        0 min,  1.140 sec
 * total energy  :  -392.1139735 Eh     change       -0.2287830E-03 Eh
   gradient norm :     0.0054780 Eh/α   predicted    -0.1790913E-03 ( -21.72%)
   displ. norm   :     0.5741091 α      lambda       -0.2690032E-03
   maximum displ.:     0.3278630 α      in ANC's #15, #24, #29, ...

........................................................................
.............................. CYCLE   31 ..............................
........................................................................
   1   -398.3293062 -0.398329E+03  0.167E-02    0.00       0.0  T
   2   -398.2179371  0.111369E+00  0.447E-01    0.02       1.0  T
   3   -398.3271945 -0.109257E+00  0.641E-02    0.01       1.0  T
   4   -398.3288078 -0.161330E-02  0.347E-02    0.00       1.0  T
   5   -398.3212978  0.751005E-02  0.118E-01    0.01       1.0  T
   6   -398.3294477 -0.814992E-02  0.159E-03    0.00       4.2  T
   7   -398.3294475  0.210181E-06  0.170E-03    0.00       3.9  T
   8   -398.3294489 -0.143328E-05  0.856E-04    0.00       7.7  T
   9   -398.3294487  0.188795E-06  0.103E-03    0.00       6.4  T
  10   -398.3294493 -0.555989E-06  0.246E-04    0.00      26.9  T
  11   -398.3294493 -0.251537E-07  0.107E-04    0.00      62.0  T
  12   -398.3294493  0.143285E-08  0.125E-04    0.00      52.9  T
     SCC iter.                  ...        0 min,  3.513 sec
     gradient                   ...        0 min,  1.159 sec
 * total energy  :  -392.1141890 Eh     change       -0.2155592E-03 Eh
   gradient norm :     0.0037135 Eh/α   predicted    -0.1788371E-03 ( -17.04%)
   displ. norm   :     0.5202106 α      lambda       -0.2168543E-03
   maximum displ.:     0.2804269 α      in ANC's #15, #24, #29, ...

........................................................................
.............................. CYCLE   32 ..............................
........................................................................
   1   -398.3324869 -0.398332E+03  0.154E-02    0.00       0.0  T
   2   -398.2435171  0.889698E-01  0.405E-01    0.01       1.0  T
   3   -398.3297300 -0.862129E-01  0.714E-02    0.00       1.0  T
   4   -398.3321234 -0.239342E-02  0.298E-02    0.00       1.0  T
   5   -398.3261017  0.602168E-02  0.106E-01    0.00       1.0  T
   6   -398.3326033 -0.650156E-02  0.171E-03    0.00       3.9  T
   7   -398.3326040 -0.651351E-06  0.134E-03    0.00       5.0  T
   8   -398.3326046 -0.670556E-06  0.953E-04    0.00       7.0  T
   9   -398.3326046  0.214175E-08  0.948E-04    0.00       7.0  T
  10   -398.3326050 -0.401005E-06  0.362E-04    0.00      18.3  T
  11   -398.3326051 -0.684628E-07  0.418E-05    0.00     158.4  T
  12   -398.3326051  0.529207E-08  0.112E-04    0.00      58.9  T
     SCC iter.                  ...        0 min,  3.570 sec
     gradient                   ...        0 min,  1.100 sec
 * total energy  :  -392.1143571 Eh     change       -0.1680334E-03 Eh
   gradient norm :     0.0034065 Eh/α   predicted    -0.1377700E-03 ( -18.01%)
   displ. norm   :     0.4634792 α      lambda       -0.1656866E-03
   maximum displ.:     0.2280984 α      in ANC's #15, #29, #24, ...

........................................................................
.............................. CYCLE   33 ..............................
........................................................................
   1   -398.3335077 -0.398334E+03  0.107E-02    0.00       0.0  T
   2   -398.2835081  0.499996E-01  0.312E-01    0.01       1.0  T
   3   -398.3330188 -0.495107E-01  0.318E-02    0.00       1.0  T
   4   -398.3331014 -0.825178E-04  0.298E-02    0.00       1.0  T
   5   -398.3295147  0.358664E-02  0.806E-02    0.01       1.0  T
   6   -398.3335607 -0.404596E-02  0.236E-03    0.00       2.8  T
   7   -398.3335627 -0.200730E-05  0.138E-03    0.00       4.8  T
   8   -398.3335630 -0.292196E-06  0.119E-03    0.00       5.6  T
   9   -398.3335635 -0.501370E-06  0.629E-04    0.00      10.5  T
  10   -398.3335637 -0.181519E-06  0.901E-05    0.00      73.5  T
  11   -398.3335637 -0.432834E-08  0.139E-05    0.00     475.0  T
     SCC iter.                  ...        0 min,  3.198 sec
     gradient                   ...        0 min,  1.152 sec
 * total energy  :  -392.1144879 Eh     change       -0.1308397E-03 Eh
   gradient norm :     0.0041413 Eh/α   predicted    -0.1006429E-03 ( -23.08%)
   displ. norm   :     0.3952761 α      lambda       -0.1632227E-03
   maximum displ.:     0.1550183 α      in ANC's #29, #27, #15, ...

........................................................................
.............................. CYCLE   34 ..............................
........................................................................
   1   -398.3376424 -0.398338E+03  0.733E-03    0.00       0.0  T
   2   -398.3096620  0.279804E-01  0.232E-01    0.00       1.0  T
   3   -398.3373354 -0.276734E-01  0.237E-02    0.00       1.0  T
   4   -398.3373310  0.435204E-05  0.234E-02    0.00       1.0  T
   5   -398.3356913  0.163976E-02  0.598E-02    0.00       1.0  T
   6   -398.3376637 -0.197243E-02  0.328E-03    0.00       2.0  T
   7   -398.3376680 -0.429577E-05  0.160E-03    0.00       4.1  T
   8   -398.3376682 -0.212553E-06  0.148E-03    0.00       4.5  T
   9   -398.3376693 -0.104835E-05  0.445E-04    0.00      14.9  T
  10   -398.3376694 -0.963418E-07  0.477E-05    0.00     138.9  T
  11   -398.3376694 -0.148782E-08  0.140E-05    0.00     472.7  T
     SCC iter.                  ...        0 min,  3.248 sec
     gradient                   ...        0 min,  1.146 sec
 * total energy  :  -392.1146142 Eh     change       -0.1263403E-03 Eh
   gradient norm :     0.0046221 Eh/α   predicted    -0.9436287E-04 ( -25.31%)
   displ. norm   :     0.4990303 α      lambda       -0.1849761E-03
   maximum displ.:     0.2040308 α      in ANC's #29, #24, #27, ...

........................................................................
.............................. CYCLE   35 ..............................
........................................................................
   1   -398.3328419 -0.398333E+03  0.721E-03    0.00       0.0  T
   2   -398.2919397  0.409022E-01  0.260E-01    0.00       1.0  T
   3   -398.3324627 -0.405230E-01  0.268E-02    0.00       1.0  T
   4   -398.3328222 -0.359443E-03  0.884E-03    0.00       1.0  T
   5   -398.3327957  0.264848E-04  0.125E-02    0.00       1.0  T
   6   -398.3328560 -0.603257E-04  0.554E-03    0.00       1.2  T
   7   -398.3328657 -0.972333E-05  0.325E-03    0.00       2.0  T
   8   -398.3328716 -0.584504E-05  0.724E-04    0.00       9.2  T
   9   -398.3328718 -0.286552E-06  0.143E-04    0.00      46.5  T
  10   -398.3328719 -0.121493E-07  0.303E-05    0.00     218.8  T
     SCC iter.                  ...        0 min,  2.997 sec
     gradient                   ...        0 min,  1.145 sec
 * total energy  :  -392.1147444 Eh     change       -0.1301636E-03 Eh
   gradient norm :     0.0047189 Eh/α   predicted    -0.1155295E-03 ( -11.24%)
   displ. norm   :     0.3853246 α      lambda       -0.1941689E-03
   maximum displ.:     0.1929884 α      in ANC's #27, #32, #21, ...

........................................................................
.............................. CYCLE   36 ..............................
........................................................................
   1   -398.3370919 -0.398337E+03  0.863E-03    0.00       0.0  T
   2   -398.2846646  0.524274E-01  0.296E-01    0.03       1.0  T
   3   -398.3354245 -0.507600E-01  0.541E-02    0.00       1.0  T
   4   -398.3370016 -0.157709E-02  0.163E-02    0.00       1.0  T
   5   -398.3359717  0.102992E-02  0.468E-02    0.00       1.0  T
   6   -398.3371150 -0.114328E-02  0.555E-03    0.00       1.2  T
   7   -398.3371145  0.424232E-06  0.544E-03    0.00       1.2  T
   8   -398.3371278 -0.132233E-04  0.240E-03    0.00       2.8  T
   9   -398.3371307 -0.290256E-05  0.407E-04    0.00      16.3  T
  10   -398.3371308 -0.931730E-07  0.682E-05    0.00      97.1  T
  11   -398.3371308 -0.242466E-08  0.341E-05    0.00     194.4  T
     SCC iter.                  ...        0 min,  3.162 sec
     gradient                   ...        0 min,  1.141 sec
 * total energy  :  -392.1148776 Eh     change       -0.1331666E-03 Eh
   gradient norm :     0.0043934 Eh/α   predicted    -0.1115028E-03 ( -16.27%)
   displ. norm   :     0.3725577 α      lambda       -0.1356739E-03
   maximum displ.:     0.1872119 α      in ANC's #27, #24, #29, ...

........................................................................
.............................. CYCLE   37 ..............................
........................................................................
   1   -398.3359031 -0.398336E+03  0.115E-02    0.00       0.0  T
   2   -398.2773621  0.585411E-01  0.334E-01    0.01       1.0  T
   3   -398.3351676 -0.578055E-01  0.387E-02    0.00       1.0  T
   4   -398.3354074 -0.239885E-03  0.317E-02    0.00       1.0  T
   5   -398.3307474  0.466006E-02  0.931E-02    0.00       1.0  T
   6   -398.3359633 -0.521590E-02  0.376E-03    0.00       1.8  T
   7   -398.3359630  0.300382E-06  0.375E-03    0.00       1.8  T
   8   -398.3359684 -0.540234E-05  0.206E-03    0.00       3.2  T
   9   -398.3359702 -0.186773E-05  0.687E-04    0.00       9.6  T
  10   -398.3359705 -0.243212E-06  0.114E-04    0.00      58.3  T
  11   -398.3359705 -0.741869E-08  0.152E-05    0.00     434.4  T
     SCC iter.                  ...        0 min,  3.191 sec
     gradient                   ...        0 min,  1.155 sec
 * total energy  :  -392.1149854 Eh     change       -0.1078512E-03 Eh
   gradient norm :     0.0043419 Eh/α   predicted    -0.7726146E-04 ( -28.36%)
   displ. norm   :     0.3433111 α      lambda       -0.1560260E-03
   maximum displ.:     0.1832394 α      in ANC's #27, #24, #21, ...

........................................................................
.............................. CYCLE   38 ..............................
........................................................................
   1   -398.3362477 -0.398336E+03  0.153E-02    0.00       0.0  T
   2   -398.2447944  0.914533E-01  0.418E-01    0.02       1.0  T
   3   -398.3348665 -0.900721E-01  0.542E-02    0.00       1.0  T
   4   -398.3359373 -0.107082E-02  0.289E-02    0.00       1.0  T
   5   -398.3287642  0.717314E-02  0.109E-01    0.01       1.0  T
   6   -398.3363623 -0.759815E-02  0.218E-03    0.00       3.0  T
   7   -398.3363605  0.178842E-05  0.278E-03    0.00       2.4  T
   8   -398.3363640 -0.346979E-05  0.134E-03    0.00       4.9  T
   9   -398.3363646 -0.619402E-06  0.766E-04    0.00       8.6  T
  10   -398.3363649 -0.261299E-06  0.225E-04    0.00      29.4  T
  11   -398.3363649 -0.260902E-07  0.584E-05    0.00     113.3  T
  12   -398.3363649 -0.113675E-08  0.430E-05    0.00     154.0  T
     SCC iter.                  ...        0 min,  3.552 sec
     gradient                   ...        0 min,  1.079 sec
 * total energy  :  -392.1151090 Eh     change       -0.1236093E-03 Eh
   gradient norm :     0.0040820 Eh/α   predicted    -0.8721124E-04 ( -29.45%)
   displ. norm   :     0.3880325 α      lambda       -0.1582271E-03
   maximum displ.:     0.2078530 α      in ANC's #27, #24, #29, ...

........................................................................
.............................. CYCLE   39 ..............................
........................................................................
   1   -398.3356216 -0.398336E+03  0.174E-02    0.00       0.0  T
   2   -398.2054837  0.130138E+00  0.491E-01    0.05       1.0  T
   3   -398.3343830 -0.128899E+00  0.534E-02    0.01       1.0  T
   4   -398.3352912 -0.908148E-03  0.312E-02    0.00       1.0  T
   5   -398.3260772  0.921397E-02  0.123E-01    0.02       1.0  T
   6   -398.3357750 -0.969774E-02  0.249E-03    0.00       2.7  T
   7   -398.3357738  0.113077E-05  0.272E-03    0.00       2.4  T
   8   -398.3357776 -0.373016E-05  0.125E-03    0.00       5.3  T
   9   -398.3357784 -0.880674E-06  0.403E-04    0.00      16.4  T
  10   -398.3357785 -0.744704E-07  0.195E-04    0.00      33.9  T
  11   -398.3357785 -0.181180E-07  0.854E-05    0.00      77.6  T
     SCC iter.                  ...        0 min,  3.229 sec
     gradient                   ...        0 min,  1.130 sec
 * total energy  :  -392.1152343 Eh     change       -0.1252782E-03 Eh
   gradient norm :     0.0043757 Eh/α   predicted    -0.9102817E-04 ( -27.34%)
   displ. norm   :     0.4017705 α      lambda       -0.1598094E-03
   maximum displ.:     0.2140440 α      in ANC's #27, #24, #29, ...

........................................................................
.............................. CYCLE   40 ..............................
........................................................................
   1   -398.3351895 -0.398335E+03  0.153E-02    0.00       0.0  T
   2   -398.2178381  0.117351E+00  0.465E-01    0.05       1.0  T
   3   -398.3352690 -0.117431E+00  0.861E-03    0.00       1.0  T
   4   -398.3227418  0.125273E-01  0.140E-01    0.01       1.0  T
   5   -398.3352983 -0.125565E-01  0.535E-03    0.00       1.2  T
   6   -398.3351345  0.163765E-03  0.193E-02    0.00       1.0  T
   7   -398.3353067 -0.172150E-03  0.295E-03    0.00       2.2  T
   8   -398.3353114 -0.470732E-05  0.112E-03    0.00       5.9  T
   9   -398.3353119 -0.562569E-06  0.547E-04    0.00      12.1  T
  10   -398.3353121 -0.142711E-06  0.237E-04    0.00      27.9  T
  11   -398.3353121 -0.303555E-07  0.915E-05    0.00      72.4  T
  12   -398.3353121 -0.426451E-08  0.266E-05    0.00     249.0  T
     SCC iter.                  ...        0 min,  3.550 sec
     gradient                   ...        0 min,  1.159 sec
 * total energy  :  -392.1153650 Eh     change       -0.1306748E-03 Eh
   gradient norm :     0.0049538 Eh/α   predicted    -0.9280857E-04 ( -28.98%)
   displ. norm   :     0.4604664 α      lambda       -0.1931555E-03
   maximum displ.:     0.2410944 α      in ANC's #27, #24, #29, ...

........................................................................
.............................. CYCLE   41 ..............................
........................................................................
   1   -398.3340056 -0.398334E+03  0.147E-02    0.00       0.0  T
   2   -398.2336536  0.100352E+00  0.433E-01    0.04       1.0  T
   3   -398.3330318 -0.993782E-01  0.473E-02    0.00       1.0  T
   4   -398.3336159 -0.584070E-03  0.324E-02    0.00       1.0  T
   5   -398.3339636 -0.347783E-03  0.155E-02    0.00       1.0  T
   6   -398.3341069 -0.143262E-03  0.468E-03    0.00       1.4  T
   7   -398.3341126 -0.573359E-05  0.331E-03    0.00       2.0  T
   8   -398.3341179 -0.527881E-05  0.124E-03    0.00       5.3  T
   9   -398.3341184 -0.477290E-06  0.703E-04    0.00       9.4  T
  10   -398.3341186 -0.208970E-06  0.292E-04    0.00      22.6  T
  11   -398.3341186 -0.465266E-07  0.486E-05    0.00     136.4  T
  12   -398.3341186 -0.992770E-09  0.215E-05    0.00     308.7  T
     SCC iter.                  ...        0 min,  3.608 sec
     gradient                   ...        0 min,  1.153 sec
 * total energy  :  -392.1155254 Eh     change       -0.1603788E-03 Eh
   gradient norm :     0.0054285 Eh/α   predicted    -0.1170593E-03 ( -27.01%)
   displ. norm   :     0.4845945 α      lambda       -0.2264793E-03
   maximum displ.:     0.2722635 α      in ANC's #24, #27, #29, ...

........................................................................
.............................. CYCLE   42 ..............................
........................................................................
   1   -398.3329557 -0.398333E+03  0.126E-02    0.00       0.0  T
   2   -398.2709365  0.620192E-01  0.350E-01    0.00       1.0  T
   3   -398.3324390 -0.615025E-01  0.325E-02    0.00       1.0  T
   4   -398.3319678  0.471241E-03  0.428E-02    0.00       1.0  T
   5   -398.3275197  0.444808E-02  0.964E-02    0.00       1.0  T
   6   -398.3330079 -0.548821E-02  0.703E-03    0.00       1.0  T
   7   -398.3330242 -0.163449E-04  0.427E-03    0.00       1.6  T
   8   -398.3330300 -0.574308E-05  0.264E-03    0.00       2.5  T
   9   -398.3330333 -0.333101E-05  0.625E-04    0.00      10.6  T
  10   -398.3330335 -0.202838E-06  0.554E-05    0.00     119.6  T
  11   -398.3330335  0.613966E-09  0.646E-05    0.00     102.5  T
     SCC iter.                  ...        0 min,  3.172 sec
     gradient                   ...        0 min,  1.142 sec
 * total energy  :  -392.1157085 Eh     change       -0.1831524E-03 Eh
   gradient norm :     0.0057771 Eh/α   predicted    -0.1398338E-03 ( -23.65%)
   displ. norm   :     0.4783712 α      lambda       -0.2295749E-03
   maximum displ.:     0.2916021 α      in ANC's #24, #27, #29, ...
 * RMSD in coord.:     0.5163998 α      energy gain  -0.5077411E-02 Eh

generating ANC from model Hessian ...
Using Lindh-Hessian (1995)
 Shifting diagonal of input Hessian by    1.0106697330232051E-002
 Lowest  eigenvalues of input Hessian
    0.010000    0.010042    0.010075    0.010087    0.010096    0.010099
    0.010100    0.010103    0.000000    0.000000    0.000000    0.000000
    0.000000    0.000000    0.010130    0.010174    0.010241    0.010273
 Highest eigenvalues
    2.094792    2.135827    2.135845    2.616437    2.616821    2.630250


........................................................................
.............................. CYCLE   43 ..............................
........................................................................
   1   -398.3309736 -0.398331E+03  0.100E-02    0.00       0.0  T
   2   -398.2865039  0.444697E-01  0.297E-01    0.03       1.0  T
   3   -398.3299832 -0.434793E-01  0.403E-02    0.01       1.0  T
   4   -398.3307849 -0.801681E-03  0.194E-02    0.00       1.0  T
   5   -398.3302580  0.526835E-03  0.379E-02    0.00       1.0  T
   6   -398.3309848 -0.726779E-03  0.833E-03    0.00       1.0  T
   7   -398.3310016 -0.168218E-04  0.604E-03    0.00       1.1  T
   8   -398.3310148 -0.131669E-04  0.338E-03    0.00       2.0  T
   9   -398.3310208 -0.599045E-05  0.256E-04    0.00      25.9  T
  10   -398.3310208 -0.293180E-07  0.118E-04    0.00      56.0  T
  11   -398.3310208 -0.791147E-08  0.288E-05    0.00     229.9  T
     SCC iter.                  ...        0 min,  3.195 sec
     gradient                   ...        0 min,  1.154 sec
 * total energy  :  -392.1158860 Eh     change       -0.1775266E-03 Eh
   gradient norm :     0.0056798 Eh/α   predicted     0.0000000E+00 (-100.00%)
   displ. norm   :     0.0629449 α      lambda       -0.6048839E-04
   maximum displ.:     0.0272764 α      in ANC's #24, #23, #56, ...

........................................................................
.............................. CYCLE   44 ..............................
........................................................................
   1   -398.3333952 -0.398333E+03  0.543E-03    0.00       0.0  T
[...]
 dipole moment from electron density (au)
     X       Y       Z   
  -0.0038   0.0013   0.0133  total (Debye):    0.035

           -------------------------------------------------
          |                Geometry Summary                 |
           -------------------------------------------------

      molecular mass/u    :     2162.3176373
   center of mass at/Å    :       63.4636088       0.0334547       0.0200952
  moments of inertia/u·Å² :        0.3346890E+05   0.3257707E+06   0.3580941E+06
rotational constants/cm⁻¹ :        0.5036806E-03   0.5174692E-04   0.4707599E-04

 * 237 selected distances

     #   Z          #   Z                                           value/Å
     2   6 C        3   6 C                                       1.3869779
     3   6 C        4   6 C                                       1.4349789
     4   6 C        5   6 C                                       1.3562075
     5   6 C        6   6 C                                       1.4377923
     3   6 C        7   7 N                                       1.3656966
     6   6 C        7   7 N                                       1.3650527
     6   6 C        8   6 C                                       1.3968161
     8   6 C        9   6 C                                       1.3964195
     9   6 C       10   6 C                                       1.4349964
    10   6 C       11   6 C                                       1.3570326
     9   6 C       12   7 N                                       1.3701194
    11   6 C       13   6 C                                       1.4315599
    12   7 N       13   6 C                                       1.3616364
    13   6 C       14   6 C                                       1.4070526
    14   6 C       15   6 C                                       1.4069241
    15   6 C       16   6 C                                       1.4316659
    16   6 C       17   6 C                                       1.3568369
    17   6 C       18   6 C                                       1.4350528
    18   6 C       19   6 C                                       1.3958555
    20   6 C       21   6 C                                       1.3952288
    21   6 C       22   6 C                                       1.3868583
    22   6 C       23   6 C                                       1.3882465
    23   6 C       24   6 C                                       1.3882332
    20   6 C       25   6 C                                       1.3950043
    24   6 C       25   6 C                                       1.3870189
    19   6 C       26   6 C                                       1.3964889
    26   6 C       27   6 C                                       1.4378296
    27   6 C       28   6 C                                       1.3561160
     2   6 C       29   6 C                                       1.3868936
    28   6 C       29   6 C                                       1.4351277
    26   6 C       30   7 N                                       1.3649363
    29   6 C       30   7 N                                       1.3656250
    15   6 C       31   7 N                                       1.3615329
    18   6 C       31   7 N                                       1.3703490
    32   6 C       33   6 C                                       1.3954081
    33   6 C       34   6 C                                       1.3869056
    34   6 C       35   6 C                                       1.3882743
    35   6 C       36   6 C                                       1.3883258
    32   6 C       37   6 C                                       1.3956952
    36   6 C       37   6 C                                       1.3866838
     2   6 C       38   1 H                                       1.0851872
     4   6 C       39   1 H                                       1.0787174
     5   6 C       40   1 H                                       1.0781633
    10   6 C       41   1 H                                       1.0779665
    11   6 C       42   1 H                                       1.0773828
    16   6 C       43   1 H                                       1.0772949 (min)
    17   6 C       44   1 H                                       1.0779317
    21   6 C       45   1 H                                       1.0844037
    22   6 C       46   1 H                                       1.0844314
    23   6 C       47   1 H                                       1.0841404
    24   6 C       48   1 H                                       1.0844233
    25   6 C       49   1 H                                       1.0843608
    27   6 C       50   1 H                                       1.0781902
    28   6 C       51   1 H                                       1.0787120
    33   6 C       52   1 H                                       1.0843954
    34   6 C       53   1 H                                       1.0844331
    35   6 C       54   1 H                                       1.0841349
    36   6 C       55   1 H                                       1.0844350
    37   6 C       56   1 H                                       1.0844168
    58   6 C       59   6 C                                       1.3869622
    59   6 C       60   6 C                                       1.4349853
    60   6 C       61   6 C                                       1.3562007
    61   6 C       62   6 C                                       1.4377966
    59   6 C       63   7 N                                       1.3656994
    62   6 C       63   7 N                                       1.3650087
    62   6 C       64   6 C                                       1.3968054
    64   6 C       65   6 C                                       1.3963589
    65   6 C       66   6 C                                       1.4349766
    66   6 C       67   6 C                                       1.3570315
    65   6 C       68   7 N                                       1.3701584
    67   6 C       69   6 C                                       1.4315963
    68   7 N       69   6 C                                       1.3616337
    69   6 C       70   6 C                                       1.4071104
    70   6 C       71   6 C                                       1.4069073
    71   6 C       72   6 C                                       1.4316349
    72   6 C       73   6 C                                       1.3568373
    73   6 C       74   6 C                                       1.4350518
    74   6 C       75   6 C                                       1.3958827
    76   6 C       77   6 C                                       1.3952219
    77   6 C       78   6 C                                       1.3868705
    78   6 C       79   6 C                                       1.3882426
    79   6 C       80   6 C                                       1.3882367
    76   6 C       81   6 C                                       1.3950073
    80   6 C       81   6 C                                       1.3870057
    75   6 C       82   6 C                                       1.3964662
    82   6 C       83   6 C                                       1.4378310 (max)
    83   6 C       84   6 C                                       1.3561165
    58   6 C       85   6 C                                       1.3868923
    84   6 C       85   6 C                                       1.4351275
    82   6 C       86   7 N                                       1.3649267
    85   6 C       86   7 N                                       1.3656305
    71   6 C       87   7 N                                       1.3615888
    74   6 C       87   7 N                                       1.3703448
    88   6 C       89   6 C                                       1.3954047
    89   6 C       90   6 C                                       1.3868987
    90   6 C       91   6 C                                       1.3882724
    91   6 C       92   6 C                                       1.3883172
    88   6 C       93   6 C                                       1.3956457
    92   6 C       93   6 C                                       1.3866958
    58   6 C       94   1 H                                       1.0851851
    60   6 C       95   1 H                                       1.0787178
    61   6 C       96   1 H                                       1.0781620
    66   6 C       97   1 H                                       1.0779784
    67   6 C       98   1 H                                       1.0773683
    72   6 C       99   1 H                                       1.0772985
    73   6 C      100   1 H                                       1.0779284
    77   6 C      101   1 H                                       1.0844056
    78   6 C      102   1 H                                       1.0844349
    79   6 C      103   1 H                                       1.0841389
    80   6 C      104   1 H                                       1.0844195
    81   6 C      105   1 H                                       1.0843586
    83   6 C      106   1 H                                       1.0781937
    84   6 C      107   1 H                                       1.0787123
    89   6 C      108   1 H                                       1.0843936
    90   6 C      109   1 H                                       1.0844346
    91   6 C      110   1 H                                       1.0841359
    92   6 C      111   1 H                                       1.0844291
    93   6 C      112   1 H                                       1.0844122
   113   6 C      114   6 C                                       1.2178674
   115   6 C      116   6 C                                       1.2180608
   117   6 C      118   6 C                                       1.2178883
   120   6 C      121   6 C                                       1.4075012
   121   6 C      122   6 C                                       1.4307256
   122   6 C      123   6 C                                       1.3579123
   123   6 C      124   6 C                                       1.4341631
   121   6 C      125   7 N                                       1.3617663
   124   6 C      125   7 N                                       1.3693349
   124   6 C      126   6 C                                       1.3975153
   126   6 C      127   6 C                                       1.3966858
   127   6 C      128   6 C                                       1.4344293
   128   6 C      129   6 C                                       1.3579614
   127   6 C      130   7 N                                       1.3699338
   129   6 C      131   6 C                                       1.4310739
   130   7 N      131   6 C                                       1.3607115
   131   6 C      132   6 C                                       1.4076269
   132   6 C      133   6 C                                       1.4076987
   133   6 C      134   6 C                                       1.4311194
   134   6 C      135   6 C                                       1.3579519
   135   6 C      136   6 C                                       1.4343870
   136   6 C      137   6 C                                       1.3964981
   138   6 C      139   6 C                                       1.3960556
   139   6 C      140   6 C                                       1.3865339
   140   6 C      141   6 C                                       1.3883706
   141   6 C      142   6 C                                       1.3883461
   138   6 C      143   6 C                                       1.3959012
   142   6 C      143   6 C                                       1.3866442
   137   6 C      144   6 C                                       1.3974037
   144   6 C      145   6 C                                       1.4340855
   145   6 C      146   6 C                                       1.3578730
   120   6 C      147   6 C                                       1.4074588
   146   6 C      147   6 C                                       1.4306830
   144   6 C      148   7 N                                       1.3693297
   147   6 C      148   7 N                                       1.3617579
   133   6 C      149   7 N                                       1.3605683
   136   6 C      149   7 N                                       1.3699793
   150   6 C      151   6 C                                       1.3961272
   151   6 C      152   6 C                                       1.3865114
   152   6 C      153   6 C                                       1.3883833
   153   6 C      154   6 C                                       1.3883585
   150   6 C      155   6 C                                       1.3960122
   154   6 C      155   6 C                                       1.3866334
   122   6 C      156   1 H                                       1.0774427
   123   6 C      157   1 H                                       1.0780058
   128   6 C      158   1 H                                       1.0780070
   129   6 C      159   1 H                                       1.0778253
   134   6 C      160   1 H                                       1.0778010
   135   6 C      161   1 H                                       1.0780115
   139   6 C      162   1 H                                       1.0843974
   140   6 C      163   1 H                                       1.0844176
   141   6 C      164   1 H                                       1.0841244
   142   6 C      165   1 H                                       1.0844119
   143   6 C      166   1 H                                       1.0843726
   145   6 C      167   1 H                                       1.0779927
   146   6 C      168   1 H                                       1.0774085
   151   6 C      169   1 H                                       1.0843991
   152   6 C      170   1 H                                       1.0844081
   153   6 C      171   1 H                                       1.0841282
   154   6 C      172   1 H                                       1.0844267
   155   6 C      173   1 H                                       1.0843851
   175   6 C      176   6 C                                       1.4076344
   176   6 C      177   6 C                                       1.4311180
   177   6 C      178   6 C                                       1.3579232
   178   6 C      179   6 C                                       1.4344469
   176   6 C      180   7 N                                       1.3606266
   179   6 C      180   7 N                                       1.3699417
   179   6 C      181   6 C                                       1.3965703
   181   6 C      182   6 C                                       1.3974840
   182   6 C      183   6 C                                       1.4341387
   183   6 C      184   6 C                                       1.3578265
   182   6 C      185   7 N                                       1.3692945
   184   6 C      186   6 C                                       1.4306897
   185   7 N      186   6 C                                       1.3618585
   186   6 C      187   6 C                                       1.4073873
   187   6 C      188   6 C                                       1.4076092
   188   6 C      189   6 C                                       1.4307249
   189   6 C      190   6 C                                       1.3579428
   190   6 C      191   6 C                                       1.4340855
   191   6 C      192   6 C                                       1.3974346
   193   6 C      194   6 C                                       1.3959482
   194   6 C      195   6 C                                       1.3866176
   195   6 C      196   6 C                                       1.3883429
   196   6 C      197   6 C                                       1.3883666
   193   6 C      198   6 C                                       1.3960356
   197   6 C      198   6 C                                       1.3865571
   192   6 C      199   6 C                                       1.3965571
   199   6 C      200   6 C                                       1.4344097
   200   6 C      201   6 C                                       1.3579465
   175   6 C      202   6 C                                       1.4076496
   201   6 C      202   6 C                                       1.4310739
   199   6 C      203   7 N                                       1.3699791
   202   6 C      203   7 N                                       1.3606367
   188   6 C      204   7 N                                       1.3617350
   191   6 C      204   7 N                                       1.3693703
   205   6 C      206   6 C                                       1.3959843
   206   6 C      207   6 C                                       1.3866559
   207   6 C      208   6 C                                       1.3883802
   208   6 C      209   6 C                                       1.3884128
   205   6 C      210   6 C                                       1.3961290
   209   6 C      210   6 C                                       1.3865216
   177   6 C      211   1 H                                       1.0778114
   178   6 C      212   1 H                                       1.0780000
   183   6 C      213   1 H                                       1.0779875
   184   6 C      214   1 H                                       1.0773789
   189   6 C      215   1 H                                       1.0774584
   190   6 C      216   1 H                                       1.0780142
   194   6 C      217   1 H                                       1.0843757
   195   6 C      218   1 H                                       1.0844116
   196   6 C      219   1 H                                       1.0841270
   197   6 C      220   1 H                                       1.0844120
   198   6 C      221   1 H                                       1.0843942
   200   6 C      222   1 H                                       1.0780075
   201   6 C      223   1 H                                       1.0778073
   206   6 C      224   1 H                                       1.0843906
   207   6 C      225   1 H                                       1.0844367
   208   6 C      226   1 H                                       1.0841305
   209   6 C      227   1 H                                       1.0844207
   210   6 C      228   1 H                                       1.0844160

 * 3 distinct bonds (by element types)

   Z      Z             #   av. dist./Å        max./Å        min./Å
   1 H    6 C          74     1.0815969     1.0851872     1.0772949
   6 C    6 C         131     1.3951447     1.4378310     1.2178674
   6 C    7 N          32     1.3655239     1.3703490     1.3605683


optimized geometry written to: xtbopt.xyz


           -------------------------------------------------
          | TOTAL ENERGY             -392.117416533023 Eh   |
          | GRADIENT NORM               0.000439824904 Eh/α |
          | HOMO-LUMO GAP               0.001061732038 eV   |
           -------------------------------------------------

------------------------------------------------------------------------
 * finished run on 2022/07/30 at 08:43:06.861     
------------------------------------------------------------------------
 total:
 * wall-time:     0 d,  0 h,  6 min, 13.828 sec
 *  cpu-time:     0 d,  0 h,  6 min, 11.600 sec
 * ratio c/w:     0.994 speedup
 SCF:
 * wall-time:     0 d,  0 h,  0 min, 10.791 sec
 *  cpu-time:     0 d,  0 h,  0 min, 10.728 sec
 * ratio c/w:     0.994 speedup
 ANC optimizer:
 * wall-time:     0 d,  0 h,  6 min,  2.581 sec
 *  cpu-time:     0 d,  0 h,  6 min,  0.427 sec
 * ratio c/w:     0.994 speedup

