228
 energy: -391.556241547000 gnorm: 0.666959902476 xtb: 6.5.1 (b24c23e)
Cu          46.45168899999999        0.07351100000000        0.01996700000000
C           43.11512600000000       -0.08255900000000        0.00955500000000
C           43.77923500000000       -1.23476300000000       -0.11827400000000
C           43.12955600000000       -2.53150400000000       -0.26866400000000
C           44.07138500000000       -3.45521700000000       -0.31605600000000
C           45.37621500000000       -2.79079600000000       -0.19658800000000
N           45.19792800000000       -1.37921700000000       -0.07615200000000
C           46.56641800000000       -3.42252200000000       -0.15140800000000
C           47.86005100000000       -2.70648500000000       -0.00094000000000
C           49.15059400000000       -3.38128300000000        0.18397100000000
C           50.08531000000000       -2.45480700000000        0.24176500000000
N           48.00066900000000       -1.41743000000000       -0.06090800000000
C           49.40017400000000       -1.17739400000000        0.08636400000000
C           49.99474800000000        0.02503500000000        0.01567500000000
C           49.23373400000000        1.28261800000000       -0.16323500000000
C           49.77070200000000        2.42768900000000       -0.56543900000000
C           48.72696600000000        3.43244000000000       -0.52338100000000
C           47.62094900000000        2.83599400000000       -0.09408800000000
C           46.33584000000000        3.53800800000000        0.15711500000000
C           46.35495999999999        5.01280900000000        0.31507600000000
C           45.69569700000000        5.83876100000000       -0.61117200000000
C           45.73439900000000        7.22887400000000       -0.46607500000000
C           46.43595500000000        7.80283400000000        0.59790100000000
C           47.10199800000000        6.98760000000000        1.51739900000000
C           47.06520299999999        5.59694700000000        1.37647600000000
C           45.17079300000000        2.86800500000000        0.24581800000000
C           43.85843300000000        3.44894200000000        0.52460100000000
C           42.99684100000000        2.45187000000000        0.47211700000000
C           43.74982300000000        1.23492100000000        0.17383400000000
N           45.01797300000000        1.46502900000000        0.04040100000000
N           47.85070800000000        1.44736800000000        0.15293600000000
C           46.60519899999999       -4.89743200000000       -0.24331600000000
C           46.50420999999999       -5.52958300000000       -1.49221100000000
C           46.54230300000000       -6.92483200000000       -1.57680400000000
C           46.68221900000000       -7.69336500000000       -0.41720400000000
C           46.78406699999999       -7.06778300000000        0.82904700000000
C           46.74568600000000       -5.67283200000000        0.91789900000000
H           42.03172400000000       -0.11115900000000        0.00656600000000
H           42.06523000000000       -2.72122100000000       -0.32318800000000
H           43.88595200000000       -4.51708300000000       -0.41384100000000
H           49.32801300000000       -4.44613300000000        0.25607600000000
H           51.14398000000000       -2.63929100000000        0.36661700000000
H           50.80004099999999        2.59537100000000       -0.85260000000000
H           48.83981700000000        4.47908200000000       -0.77480000000000
H           45.15683800000000        5.40545000000000       -1.44485300000000
H           45.22312700000000        7.86131300000000       -1.18022800000000
H           46.46585499999999        8.87910300000000        0.70819500000000
H           47.64779900000000        7.43336100000000        2.33887100000000
H           47.58629300000000        4.97505400000000        2.09409500000000
H           43.61358900000000        4.48115100000000        0.73753900000000
H           41.92956500000000        2.53333800000000        0.63099200000000
H           46.39613599999999       -4.94203400000000       -2.39567100000000
H           46.46373899999999       -7.41029500000000       -2.54092600000000
H           46.71185699999999       -8.77318400000000       -0.48434200000000
H           46.89266400000000       -7.66379200000000        1.72590400000000
H           46.82532300000000       -5.19654700000000        1.88740900000000
Cu          80.48595299999998       -0.02358300000000        0.01785800000000
C           83.82251599999998        0.13279200000000        0.01423200000000
C           83.15840699999998        1.28946000000000       -0.06344500000000
C           83.80808500000001        2.59150800000000       -0.15738600000000
C           82.86625599999999        3.51640800000000       -0.16462400000000
C           81.56142699999999        2.84742600000000       -0.07411900000000
N           81.73971299999998        1.43194900000000       -0.01509000000000
C           80.37122400000000        3.47659500000000       -0.00155100000000
C           79.07759100000000        2.75469900000000        0.11768300000000
C           77.78704799999998        3.42083100000000        0.33172100000000
C           76.85233199999999        2.49272000000000        0.34923100000000
N           78.93697299999999        1.46946400000000        0.00179800000000
C           77.53746800000000        1.22325900000000        0.13850900000000
C           76.94289400000000        0.02503500000000        0.01567500000000
C           77.70390800000000       -1.22359400000000       -0.21767300000000
C           77.16694000000000       -2.35012100000000       -0.66921900000000
C           78.21067499999998       -3.35575000000000       -0.67082900000000
C           79.31669300000000       -2.77850800000000       -0.21604100000000
C           80.60180099999999       -3.49076700000000        0.00444200000000
C           80.58268099999998       -4.97103600000000        0.09821500000000
C           81.24194400000000       -5.75599000000000       -0.86302400000000
C           81.20324200000000       -7.15109200000000       -0.77842400000000
C           80.50168700000000       -7.77071000000000        0.25962500000000
C           79.83564400000000       -6.99617100000000        1.21365500000000
C           79.87243799999999       -5.60071100000000        1.13324900000000
C           81.76684899999999       -2.82524800000000        0.12215400000000
C           83.07920799999999       -3.41774200000000        0.37544900000000
C           83.94080099999999       -2.41933100000000        0.36630900000000
C           83.18781900000000       -1.19057800000000        0.12114900000000
N           81.91966800000000       -1.41467500000000       -0.02214900000000
N           79.08693400000000       -1.40191800000000        0.09104600000000
C           80.33244299999998        4.95410400000000       -0.02932900000000
C           80.43343100000000        5.63988900000000       -1.24959700000000
C           80.39533900000001        7.03749500000000       -1.27352500000000
C           80.25542299999999        7.75495100000000       -0.08164800000000
C           80.15357500000000        7.07584400000000        1.13626300000000
C           80.19195600000000        5.67835100000000        1.16446000000000
H           84.90591700000000        0.16149500000000        0.01248800000000
H           84.87241099999999        2.78341400000000       -0.20362000000000
H           83.05168900000000        4.58151900000000       -0.21620800000000
H           77.60962800000000        4.48154700000000        0.44999600000000
H           75.79366199999998        2.67160900000000        0.48197600000000
H           76.13759999999999       -2.50517600000000       -0.96339000000000
H           78.09782500000000       -4.39048800000000       -0.96745700000000
H           81.78080399999999       -5.28688700000000       -1.67710300000000
H           81.71451399999999       -7.75192500000000       -1.51936600000000
H           80.47178700000001       -8.85075300000000        0.32308200000000
H           79.28984199999999       -7.47718200000000        2.01499600000000
H           79.35134900000000       -5.01056400000000        1.87719500000000
H           83.32405299999999       -4.45822400000000        0.54336500000000
H           85.00807700000000       -2.50762100000000        0.52149700000000
H           80.54150600000000        5.09212400000000       -2.17771700000000
H           80.47390300000001        7.56436400000000       -2.21565900000000
H           80.22578500000000        8.83666600000000       -0.10183500000000
H           80.04497700000000        7.63234800000000        2.05815400000000
H           80.11231900000000        5.16041700000000        2.11237400000000
C           52.09998100000000        0.02503500000000        0.01567500000000
C           53.32189899999999        0.02503500000000        0.01567500000000
C           62.85786199999999        0.02503500000000        0.01567500000000
C           64.07978000000000        0.02503500000000        0.01567500000000
C           73.61574299999999        0.02503500000000        0.01567500000000
C           74.83766000000000        0.02503500000000        0.01567500000000
Cu          58.02189199999999        0.07010300000000        0.02474100000000
C           54.64768400000000       -0.02685500000000       -0.01681500000000
C           55.30650499999999       -1.19992700000000       -0.02162400000000
C           54.66105700000000       -2.51461600000000       -0.00970200000000
C           55.60080300000000       -3.43729900000000       -0.01798200000000
C           56.90446700000000       -2.76738100000000       -0.03937100000000
N           56.72853099999999       -1.34886000000000       -0.03845100000000
C           58.09099799999999       -3.40662900000000       -0.05781500000000
C           59.40011999999999       -2.71053800000000       -0.08349400000000
C           60.68508199999999       -3.41413000000000       -0.18152300000000
C           61.63972800000000       -2.50993500000000       -0.17581800000000
N           59.56103800000000       -1.42379000000000       -0.01952800000000
C           60.97358900000000       -1.21656600000000       -0.07202800000000
C           61.59565500000000       -0.02685500000000       -0.01681500000000
C           60.87132699999999        1.26150100000000        0.09731700000000
C           61.47207299999999        2.43391700000000        0.25172900000000
C           60.44150400000000        3.44674500000000        0.29132400000000
C           59.27209999999999        2.83315900000000        0.15155100000000
C           57.96528900000000        3.54256200000000        0.11548800000000
C           57.97445200000000        5.02473100000000        0.13813600000000
C           57.60681800000000        5.71723200000000        1.30319200000000
C           57.63086799999999        7.11503800000000        1.32665000000000
C           58.02758400000000        7.82714400000000        0.19054400000000
C           58.39798600000000        7.14278300000000       -0.97101500000000
C           58.37378499999999        5.74467500000000       -0.99900300000000
C           56.78318900000000        2.89750400000000        0.06289000000000
C           55.47452999999999        3.54121200000000       -0.00240900000000
C           54.58884200000000        2.56984400000000       -0.04364200000000
C           55.31713900000000        1.29697700000000       -0.00665500000000
N           56.60190399999999        1.48001300000000        0.05429400000000
N           59.45109800000000        1.42020000000000        0.02711300000000
C           58.11277900000000       -4.88527400000000       -0.06392200000000
C           57.97211500000000       -5.58879500000000       -1.27031700000000
C           58.00977500000000       -6.98648600000000       -1.27464400000000
C           58.18893199999999       -7.68614600000000       -0.07752800000000
C           58.32933899999999       -6.98891900000000        1.12646900000000
C           58.29390200000000       -5.59131700000000        1.13475100000000
H           53.60077999999999       -2.72864900000000        0.00664700000000
H           55.41449600000000       -4.50362000000000       -0.00720500000000
H           60.84158700000000       -4.48211800000000       -0.25185600000000
H           62.69887099999999       -2.72010000000000       -0.23860900000000
H           62.53483200000000        2.61782800000000        0.32936900000000
H           60.60726000000000        4.50877500000000        0.40552200000000
H           57.30648800000000        5.17445000000000        2.19047000000000
H           57.34524700000000        7.64682200000000        2.22585900000000
H           58.04806700000000        8.90879900000000        0.21206900000000
H           58.70741599999999        7.69514300000000       -1.84889000000000
H           58.66746400000000        5.22327500000000       -1.90184700000000
H           55.24728300000000        4.59977000000000       -0.02041000000000
H           53.51870499999999        2.71518000000000       -0.09834200000000
H           57.83684999999999       -5.05472900000000       -2.20251000000000
H           57.90258599999999       -7.52752700000000       -2.20585200000000
H           58.21972200000000       -8.76761800000000       -0.08240200000000
H           58.46807900000000       -7.53239100000000        2.05237900000000
H           58.40732999999999       -5.05873200000000        2.07070200000000
Cu          68.77977199999998        0.07010300000000        0.02474100000000
C           65.40556500000000       -0.02685500000000       -0.01681500000000
C           66.06438600000000       -1.19992700000000       -0.02162400000000
C           65.41893800000000       -2.51461600000000       -0.00970200000000
C           66.35868400000000       -3.43729900000000       -0.01798200000000
C           67.66234700000000       -2.76738100000000       -0.03937100000000
N           67.48641200000000       -1.34886000000000       -0.03845100000000
C           68.84887799999998       -3.40662900000000       -0.05781500000000
C           70.15800100000000       -2.71053800000000       -0.08349400000000
C           71.44296299999999       -3.41413000000000       -0.18152300000000
C           72.39760900000000       -2.50993500000000       -0.17581800000000
N           70.31891800000000       -1.42379000000000       -0.01952800000000
C           71.73147000000000       -1.21656600000000       -0.07202800000000
C           72.35353600000001       -0.02685500000000       -0.01681500000000
C           71.62920699999999        1.26150100000000        0.09731700000000
C           72.22995400000001        2.43391700000000        0.25172900000000
C           71.19938499999999        3.44674500000000        0.29132400000000
C           70.02998100000001        2.83315900000000        0.15155100000000
C           68.72317000000000        3.54256200000000        0.11548800000000
C           68.73233300000000        5.02473100000000        0.13813600000000
C           68.36469900000000        5.71723200000000        1.30319200000000
C           68.38874799999999        7.11503800000000        1.32665000000000
C           68.78546400000000        7.82714400000000        0.19054400000000
C           69.15586699999999        7.14278300000000       -0.97101500000000
C           69.13166600000000        5.74467500000000       -0.99900300000000
C           67.54107000000000        2.89750400000000        0.06289000000000
C           66.23241100000000        3.54121200000000       -0.00240900000000
C           65.34672300000000        2.56984400000000       -0.04364200000000
C           66.07501999999999        1.29697700000000       -0.00665500000000
N           67.35978500000000        1.48001300000000        0.05429400000000
N           70.20897800000000        1.42020000000000        0.02711300000000
C           68.87065900000000       -4.88527400000000       -0.06392200000000
C           68.72999500000000       -5.58879500000000       -1.27031700000000
C           68.76765500000000       -6.98648600000000       -1.27464400000000
C           68.94681199999998       -7.68614600000000       -0.07752800000000
C           69.08721999999999       -6.98891900000000        1.12646900000000
C           69.05178300000000       -5.59131700000000        1.13475100000000
H           64.35866100000000       -2.72864900000000        0.00664700000000
H           66.17237700000000       -4.50362000000000       -0.00720500000000
H           71.59946700000000       -4.48211800000000       -0.25185600000000
H           73.45675199999998       -2.72010000000000       -0.23860900000000
H           73.29271199999999        2.61782800000000        0.32936900000000
H           71.36514099999999        4.50877500000000        0.40552200000000
H           68.06436900000000        5.17445000000000        2.19047000000000
H           68.10312799999998        7.64682200000000        2.22585900000000
H           68.80594799999999        8.90879900000000        0.21206900000000
H           69.46529699999999        7.69514300000000       -1.84889000000000
H           69.42534499999999        5.22327500000000       -1.90184700000000
H           66.00516399999999        4.59977000000000       -0.02041000000000
H           64.27658599999999        2.71518000000000       -0.09834200000000
H           68.59473100000000       -5.05472900000000       -2.20251000000000
H           68.66046699999998       -7.52752700000000       -2.20585200000000
H           68.97760300000000       -8.76761800000000       -0.08240200000000
H           69.22595899999999       -7.53239100000000        2.05237900000000
H           69.16521099999999       -5.05873200000000        2.07070200000000
228
 energy: -391.770460922610 gnorm: 0.375190131475 xtb: 6.5.1 (b24c23e)
Cu          46.46106814004554        0.06524606589640        0.01950314894568
C           43.11515323310472       -0.06429486356389        0.01176514454534
C           43.78413095788493       -1.23558318115604       -0.11840392649390
C           43.12951920257301       -2.52471215649826       -0.26791460088023
C           44.08252727483874       -3.45746049784387       -0.31581943496686
C           45.37596080855200       -2.78463431981702       -0.19685056442150
N           45.17569945964085       -1.39956316207193       -0.07831821944983
C           46.58448196484306       -3.41672516828552       -0.14996043087610
C           47.85629463545317       -2.72072209778165       -0.00204166481110
C           49.13752659646079       -3.39281685932217        0.18236060645280
C           50.08614310024131       -2.44940648148608        0.24062963189791
N           48.02376910266531       -1.41227784884892       -0.05534351183532
C           49.42260032835416       -1.17015544110132        0.08636611661166
C           50.03014709398413        0.04296977501122        0.00977472559744
C           49.24435782307102        1.26944267246862       -0.15084605505437
C           49.77754945533368        2.45376792431010       -0.56867485953010
C           48.75235770937049        3.43516670514386       -0.52555603290994
C           47.61533277008142        2.82174987302395       -0.08312278029497
C           46.35309392289474        3.52704168781586        0.15696423337465
C           46.36536684780994        5.01014755031064        0.30990887741971
C           45.69815001439767        5.83842106776004       -0.60559096249117
C           45.73680900430659        7.22401878012407       -0.46168192312830
C           46.43582030709163        7.79776826351194        0.59739004669881
C           47.09844598061404        6.98433519919089        1.51321514230892
C           47.06527844392470        5.59902174694083        1.37131384955070
C           45.17067518027744        2.86647100579124        0.24696082321981
C           43.86647063931650        3.44718794319530        0.52241146494344
C           42.98550131906891        2.43924053988873        0.47103261977005
C           43.72782216355234        1.22674810875191        0.17248212077270
N           45.01505865925682        1.47647025349969        0.04555884823058
N           47.86603970982144        1.44887129108546        0.14660402379028
C           46.61170319107607       -4.90012740905837       -0.24307717901830
C           46.50452175658975       -5.53279957401230       -1.48718361855879
C           46.54226123594766       -6.92249655808568       -1.57149241517813
C           46.68213342086413       -7.68884756458734       -0.41691658920346
C           46.78337916423732       -7.06522804356061        0.82433565355217
C           46.74721496981534       -5.67607362707217        0.91321445753066
H           42.03201243668033       -0.10333741566959        0.00847056393567
H           42.06560502931585       -2.71077256808005       -0.32252234748123
H           43.89964297336085       -4.51826940151297       -0.41369256482161
H           49.31642450512630       -4.45293700023843        0.25516067406445
H           51.14369116950726       -2.62875778859833        0.36633793582209
H           50.80334579362584        2.60584561560573       -0.85609598969029
H           48.84750195345942        4.47947770255005       -0.77789137043429
H           45.15918231338367        5.40448369147746       -1.44189004462331
H           45.22453335454704        7.85840560461490       -1.17837501225713
H           46.46582201286223        8.87668400657768        0.70782283439180
H           47.64607057960246        7.43135897141856        2.33680842845917
H           47.58479572628996        4.97529128348178        2.09141239579475
H           43.62633483101241        4.47990013736422        0.73579303130781
H           41.92346626725891        2.52415652294795        0.63005021389901
H           46.39679484831822       -4.94238518391983       -2.39182656747152
H           46.46388208428885       -7.40870170209319       -2.53852164404393
H           46.71182696293192       -8.77109811153967       -0.48425486839361
H           46.89218676257905       -7.66223071806076        1.72384657116830
H           46.82509656985987       -5.19679019422112        1.88399641543623
Cu          80.47678764484795       -0.01538721239152        0.01790921743649
C           83.82245045822033        0.11450773736941        0.01563734184415
C           83.15356847722990        1.29037250164046       -0.06351322408605
C           83.80820350405212        2.58478914231761       -0.15690879501624
C           82.85521289524347        3.51870723208421       -0.16426649395656
C           81.56178484762697        2.84126071637519       -0.07459950107623
N           81.76208251761818        1.45269613670784       -0.01674870675774
C           80.35305237726192        3.47072543666959       -0.00032637411972
C           79.08134897901793        2.76911432070209        0.11719195036162
C           77.79990154783385        3.43249611380182        0.33067612137918
C           76.85134274625608        2.48757067957016        0.34790500732539
N           78.91388593359886        1.46431715649770        0.00701403239554
C           77.51534152673901        1.21622887472906        0.13818449352558
C           76.91009128881960        0.00683800775355        0.00919396785812
C           77.69348535453788       -1.21165843135165       -0.20483232564779
C           77.15996481770166       -2.37643899875391       -0.67376770102322
C           78.18517948674825       -3.35854518634088       -0.67317122701826
C           79.32219159921350       -2.76479513060490       -0.20442702914769
C           80.58458834100148       -3.47977991340854        0.00475546858319
C           80.57225553616699       -4.96814323886861        0.09315888584741
C           81.23948843995667       -5.75588680670566       -0.85743557530241
C           81.20083181751725       -7.14642770257096       -0.77382297414545
C           80.50182080531378       -7.76562425911009        0.25933453064370
C           79.83919661860007       -6.99272780847228        1.20961744120293
C           79.87235508893238       -5.60255668718510        1.12799970136723
C           81.76706615979272       -2.82383973133008        0.12335181640410
C           83.07128599791184       -3.41599799703584        0.37332073861083
C           83.95221864842154       -2.40678113305057        0.36585129211576
C           83.20985774076729       -1.18249496054709        0.12015293270312
N           81.92287107436063       -1.42658992673260       -0.01755037223456
N           79.07142170018597       -1.40349903241835        0.08498258566555
C           80.32589603068246        4.95679464799275       -0.02897359601298
C           80.43312198517192        5.64288002192597       -1.24443862826720
C           80.39538679352940        7.03492897514511       -1.26831792229204
C           80.25551131565069        7.75042031190857       -0.08155632346251
C           80.15426986596341        7.07349610763635        1.13144508705912
C           80.19042416084254        5.68179211301130        1.15992665841006
H           84.90561169220450        0.15361272561371        0.01403860668475
H           84.87208990138765        2.77299022237167       -0.20340404660639
H           83.03803069432013        4.58274464933994       -0.21599955070243
H           77.62109729915899        4.48841063088318        0.44937398334732
H           75.79385530412900        2.66113510658520        0.48123257507402
H           76.13416795382825       -2.51563480117096       -0.96744727232240
H           78.09010951119186       -4.39083880833881       -0.97062816553863
H           81.77845922272202       -5.28604820782471       -1.67410063835202
H           81.71310694941393       -7.74909572129344       -1.51738641953530
H           80.47181984370337       -8.84831655290573        0.32281503932035
H           79.29157207735616       -7.47509054658752        2.01302215104422
H           79.35284761792099       -5.01068467032803        1.87451030982692
H           83.31135232213705       -4.45696446830074        0.54169217600394
H           85.01423250453315       -2.49845403535849        0.52096845445668
H           80.54084276277389        5.09230503200321       -2.17386393055405
H           80.47375803654950        7.56266197567936       -2.21332403240645
H           80.22581246184745        8.83457239022353       -0.10183875214927
H           80.04545269024941        7.63087204856578        2.05602817541145
H           80.11254198508047        5.16080659962181        2.10897793149991
C           52.01582722878935        0.02267581787746        0.01385803598553
C           53.24689011907280        0.02878775000175        0.01596375238032
C           62.87769470444523        0.03781533108246        0.01330482454993
C           64.08280935804039        0.03067923547253        0.01729214826832
C           73.70198293725764        0.03755438078024        0.01400651789985
C           74.93311741038548        0.02476865128946        0.01493242504735
Cu          58.02832058792929        0.06244383874908        0.02272316914439
C           54.63947934688250       -0.00724617492149       -0.01468444232810
C           55.31172611874033       -1.20307506359548       -0.02084444369794
C           54.65998893097618       -2.50436652389423       -0.00963387033723
C           55.61218115392042       -3.43908630282272       -0.01793826623143
C           56.90294995809606       -2.76240954262777       -0.03903208908359
N           56.70523292580497       -1.36827987542433       -0.03926912192135
C           58.10552464476527       -3.40509098251868       -0.05862552276937
C           59.38836543672375       -2.73582162669311       -0.08345742692037
C           60.66519553286262       -3.42998235854180       -0.18124015146683
C           61.62875975894899       -2.50085267737781       -0.17560781771417
N           59.56396962587533       -1.43085732962356       -0.02172708683943
C           60.94797917424589       -1.22771927794835       -0.07329485315310
C           61.54732158171479       -0.00967238212588       -0.01177406350623
C           60.84078536122036        1.25906448164740        0.09465191090012
C           61.46855132005945        2.45863672696440        0.25371699848258
C           60.46239517701806        3.45328202987456        0.29153260754192
C           59.25813058482694        2.82504988428073        0.14824559997082
C           57.98114338469901        3.53226845015437        0.11590746426866
C           57.98443482876420        5.02325431540584        0.14017338698709
C           57.60820981612398        5.71846075356625        1.29767453182348
C           57.63215082606487        7.11138318266847        1.32118460027253
C           58.02725551730268        7.82213642318608        0.19038966206277
C           58.39599633620499        7.13931493949254       -0.96617899000282
C           58.37492887362436        5.74653468334460       -0.99357371649032
C           56.78389370384922        2.89623259562750        0.06296187463560
C           55.48360087633362        3.53894621765511       -0.00196590325774
C           54.57721331108117        2.55565286779414       -0.04410191824011
C           55.29814744752105        1.29202203137554       -0.00671242730718
N           56.59925556063747        1.49279522946010        0.05434377209451
N           59.44923450584962        1.43318088754813        0.02823770145949
C           58.11836432656313       -4.88988484739140       -0.06470904610916
C           57.97275582943271       -5.59255000175358       -1.26572838529919
C           58.01004808512678       -6.98435665022639       -1.26970810616453
C           58.18869539874465       -7.68171886973671       -0.07741893504218
C           58.32850188963371       -6.98689321078773        1.12166209460645