      -----------------------------------------------------------      
     |                   =====================                   |     
     |                           x T B                           |     
     |                   =====================                   |     
     |                         S. Grimme                         |     
     |          Mulliken Center for Theoretical Chemistry        |     
     |                    University of Bonn                     |     
      -----------------------------------------------------------      

   * xtb version 6.5.1 (b24c23e) compiled by 'conda@728c89f4b128' on 2022-07-12

   xtb is free software: you can redistribute it and/or modify it under
   the terms of the GNU Lesser General Public License as published by
   the Free Software Foundation, either version 3 of the License, or
   (at your option) any later version.
   
   xtb is distributed in the hope that it will be useful,
   but WITHOUT ANY WARRANTY; without even the implied warranty of
   MERCHANTABILITY or FITNESS FOR A PARTICULAR PURPOSE.  See the
   GNU Lesser General Public License for more details.
   
   Cite this work as:
   * C. Bannwarth, E. Caldeweyher, S. Ehlert, A. Hansen, P. Pracht,
     J. Seibert, S. Spicher, S. Grimme, WIREs Comput. Mol. Sci., 2020, 11,
     e01493. DOI: 10.1002/wcms.1493
   
   for GFN2-xTB:
   * C. Bannwarth, S. Ehlert and S. Grimme., J. Chem. Theory Comput., 2019,
     15, 1652-1671. DOI: 10.1021/acs.jctc.8b01176
   for GFN1-xTB:
   * S. Grimme, C. Bannwarth, P. Shushkov, J. Chem. Theory Comput., 2017,
     13, 1989-2009. DOI: 10.1021/acs.jctc.7b00118
   for GFN0-xTB:
   * P. Pracht, E. Caldeweyher, S. Ehlert, S. Grimme, ChemRxiv, 2019, preprint.
     DOI: 10.26434/chemrxiv.8326202.v1
   for GFN-FF:
   * S. Spicher and S. Grimme, Angew. Chem. Int. Ed., 2020, 59, 15665-15673.
     DOI: 10.1002/anie.202004239
   
   for ALPB and GBSA implicit solvation:
   * S. Ehlert, M. Stahn, S. Spicher, S. Grimme, J. Chem. Theory Comput.,
     2021, 17, 4250-4261. DOI: 10.1021/acs.jctc.1c00471
   
   for DFT-D4:
   * E. Caldeweyher, C. Bannwarth and S. Grimme, J. Chem. Phys., 2017,
     147, 034112. DOI: 10.1063/1.4993215
   * E. Caldeweyher, S. Ehlert, A. Hansen, H. Neugebauer, S. Spicher,
     C. Bannwarth and S. Grimme, J. Chem. Phys., 2019, 150, 154122.
     DOI: 10.1063/1.5090222
   * E. Caldeweyher, J.-M. Mewes, S. Ehlert and S. Grimme, Phys. Chem. Chem. Phys.
     2020, 22, 8499-8512. DOI: 10.1039/D0CP00502A
   
   for sTDA-xTB:
   * S. Grimme and C. Bannwarth, J. Chem. Phys., 2016, 145, 054103.
     DOI: 10.1063/1.4959605
   
   in the mass-spec context:
   * V. Asgeirsson, C. Bauer and S. Grimme, Chem. Sci., 2017, 8, 4879.
     DOI: 10.1039/c7sc00601b
   * J. Koopman and S. Grimme, ACS Omega 2019, 4, 12, 15120-15133.
     DOI: 10.1021/acsomega.9b02011
   
   for metadynamics refer to:
   * S. Grimme, J. Chem. Theory Comput., 2019, 155, 2847-2862
     DOI: 10.1021/acs.jctc.9b00143
   
   for SPH calculations refer to:
   * S. Spicher and S. Grimme, J. Chem. Theory Comput., 2021, 17, 1701-1714
     DOI: 10.1021/acs.jctc.0c01306
   
   with help from (in alphabetical order)
   P. Atkinson, C. Bannwarth, F. Bohle, G. Brandenburg, E. Caldeweyher
   M. Checinski, S. Dohm, S. Ehlert, S. Ehrlich, I. Gerasimov, C. Hölzer
   A. Katbashev, J. Koopman, C. Lavigne, S. Lehtola, F. März, M. Müller,
   F. Musil, H. Neugebauer, J. Pisarek, C. Plett, P. Pracht, F. Pultar,
   J. Seibert, P. Shushkov, S. Spicher, M. Stahn, M. Steiner, T. Strunk,
   J. Stückrath, T. Rose, and J. Unsleber
   
 * started run on 2022/07/27 at 04:46:29.602     

           -------------------------------------------------
          |                Calculation Setup                |
           -------------------------------------------------

          program call               : xtb xtbopt.xyz --gfn 1 --vipea
          hostname                   : cx3-6-14.cx3.hpc.ic.ac.uk
          coordinate file            : xtbopt.xyz
          omp threads                :                     1

   ID    Z sym.   atoms
    1    6 C      1-5, 7-10, 12-16, 18-23, 25-28, 30-35, 56-60, 62-65, 67-71,
                  73-78, 80-83, 85-90, 111-131, 133-136, 138-142, 144-149,
                  151-154, 156-161, 181-185, 187-190, 192-196, 198-203,
                  205-208, 210-215, 235-239, 241-244, 246-250, 252-257,
                  259-262, 264-269, 289-293, 295-298, 300-304, 306-311,
                  313-316, 318-323, 343-347, 349-352, 354-358, 360-365,
                  367-370, 372-377, 397-401, 403-406, 408-412, 414-419,
                  421-424, 426-431, 451-455, 457-460, 462-466, 468-473,
                  475-478, 480-485
    2    7 N      6, 11, 17, 24, 29, 36, 61, 66, 72, 79, 84, 91, 132, 137,
                  143, 150, 155, 162, 186, 191, 197, 204, 209, 216, 240, 245,
                  251, 258, 263, 270, 294, 299, 305, 312, 317, 324, 348, 353,
                  359, 366, 371, 378, 402, 407, 413, 420, 425, 432, 456, 461,
                  467, 474, 479, 486
    3    1 H      37-55, 92-110, 163-180, 217-234, 271-288, 325-342, 379-396,
                  433-450, 487-504

           -------------------------------------------------
          |                 I P E A - x T B                 |
           -------------------------------------------------

        Reference                      10.1039/c7sc00601b
      * Hamiltonian:
        H0-scaling (s, p, d)           2.150000    2.300000    2.000000
        zeta-weighting                 0.000000
      * Dispersion:
        s8                             2.400000
        a1                             0.630000
        a2                             5.000000
        s9                             0.000000
      * Repulsion:
        kExp                           1.500000
        rExp                           1.000000
      * Coulomb:
        alpha                          1.000000
        third order                    atomic
        anisotropic                    false
      * Halogen bond correction:
        rad-scale                      1.300000
        damping                        0.440000


          ...................................................
          :                      SETUP                      :
          :.................................................:
          :  # basis functions                2028          :
          :  # atomic orbitals                2028          :
          :  # shells                         1348          :
          :  # electrons                      1578          :
          :  # halogen bonds                     0          :
          :  max. iterations                   250          :
          :  Hamiltonian                  GFN1-xTB          :
          :  restarted?                      false          :
          :  GBSA solvation                  false          :
          :  PC potential                    false          :
          :  electronic temp.          300.0000000     K    :
          :  accuracy                    1.0000000          :
          :  -> integral cutoff          0.2500000E+02      :
          :  -> integral neglect         0.1000000E-07      :
          :  -> SCF convergence          0.1000000E-05 Eh   :
          :  -> wf. convergence          0.2000000E-04 e    :
          :  Broyden damping             0.4000000          :
          ...................................................

 iter      E             dE          RMSdq      gap      omega  full diag
   1  -1002.2992904 -0.100230E+04  0.101E+01    0.40       0.0  T
   2  -1002.6849302 -0.385640E+00  0.634E+00    1.05       1.0  T
   3   -983.5089768  0.191760E+02  0.516E+00    0.05       1.0  T
   4  -1006.1348759 -0.226259E+02  0.105E+00    0.77       1.0  T
   5  -1007.3641581 -0.122928E+01  0.279E-01    0.76       1.0  T
   6  -1007.4469580 -0.827999E-01  0.105E-01    0.79       1.0  T
   7  -1007.4563625 -0.940451E-02  0.416E-02    0.79       1.0  T
   8  -1007.4570912 -0.728715E-03  0.295E-02    0.79       1.0  T
   9  -1007.4573763 -0.285115E-03  0.193E-02    0.79       1.0  T
  10  -1007.4576721 -0.295729E-03  0.378E-03    0.79       1.2  T
  11  -1007.4576815 -0.948208E-05  0.189E-03    0.79       2.4  T
  12  -1007.4576843 -0.274014E-05  0.843E-04    0.79       5.3  T
  13  -1007.4576847 -0.393035E-06  0.543E-04    0.79       8.2  T
  14  -1007.4576849 -0.218433E-06  0.196E-04    0.79      22.7  T
  15  -1007.4576849 -0.358775E-07  0.849E-05    0.79      52.4  T

   *** convergence criteria satisfied after 15 iterations ***

         #    Occupation            Energy/Eh            Energy/eV
      -------------------------------------------------------------
         1        2.0000           -1.0531932             -28.6588
       ...           ...                  ...                  ...
       783        2.0000           -0.3934801             -10.7071
       784        2.0000           -0.3890608             -10.5869
       785        2.0000           -0.3842411             -10.4557
       786        2.0000           -0.3792899             -10.3210
       787        2.0000           -0.3744859             -10.1903
       788        2.0000           -0.3701349             -10.0719
       789        2.0000           -0.3670900              -9.9890 (HOMO)
       790        0.0000           -0.3381241              -9.2008 (LUMO)
       791                         -0.3340369              -9.0896
       792                         -0.3290600              -8.9542
       793                         -0.3237811              -8.8105
       794                         -0.3186682              -8.6714
       ...                                ...                  ...
      2028                        591.2728880           16089.3542
      -------------------------------------------------------------
                  HL-Gap            0.0289660 Eh            0.7882 eV
             Fermi-level           -0.3525944 Eh           -9.5946 eV

 SCC (total)                   0 d,  0 h,  0 min, 40.744 sec
 SCC setup                      ...        0 min,  0.028 sec (  0.068%)
 Dispersion                     ...        0 min,  0.034 sec (  0.085%)
 classical contributions        ...        0 min,  0.008 sec (  0.021%)
 integral evaluation            ...        0 min,  2.011 sec (  4.936%)
 iterations                     ...        0 min, 34.686 sec ( 85.133%)
 molecular gradient             ...        0 min,  3.525 sec (  8.651%)
 printout                       ...        0 min,  0.451 sec (  1.106%)

         :::::::::::::::::::::::::::::::::::::::::::::::::::::
         ::                     SUMMARY                     ::
         :::::::::::::::::::::::::::::::::::::::::::::::::::::
         :: total energy            -987.738097798819 Eh    ::
         :: gradient norm              0.132375937518 Eh/a0 ::
         :: HOMO-LUMO gap              0.788204413263 eV    ::
         ::.................................................::
         :: SCC energy             -1007.457684936718 Eh    ::
         :: -> electrostatic           0.815463048275 Eh    ::
         :: repulsion energy          20.184255798645 Eh    ::
         :: dispersion energy         -0.464668660746 Eh    ::
         :: halogen bond corr.         0.000000000000 Eh    ::
         :: add. restraining           0.000000000000 Eh    ::
         :: total charge              -0.000000000000 e     ::
         :::::::::::::::::::::::::::::::::::::::::::::::::::::

           ------------------------------------------------- 
          |        vertical delta SCC IP calculation        |
           ------------------------------------------------- 
   1  -1007.0707782 -0.100707E+04  0.431E-02    0.79       0.0  T
   2  -1007.0698389  0.939349E-03  0.467E-02    0.75       1.0  T
   3  -1007.0743300 -0.449120E-02  0.232E-02    0.78       1.0  T
   4  -1007.0745779 -0.247845E-03  0.179E-02    0.77       1.0  T
   5  -1007.0736279  0.949952E-03  0.195E-02    0.77       1.0  T
   6  -1007.0747570 -0.112905E-02  0.111E-02    0.78       1.0  T
   7  -1007.0751913 -0.434271E-03  0.383E-03    0.78       1.2  T
   8  -1007.0752067 -0.154461E-04  0.122E-03    0.78       3.7  T
   9  -1007.0752085 -0.174783E-05  0.639E-04    0.78       7.0  T
  10  -1007.0752089 -0.391267E-06  0.266E-04    0.78      16.7  T
  11  -1007.0752089 -0.733710E-07  0.114E-04    0.78      39.2  T
  12  -1007.0752089 -0.117180E-07  0.474E-05    0.78      93.9  T
     SCC iter.                  ...        0 min, 27.783 sec
     gradient                   ...        0 min,  3.544 sec
------------------------------------------------------------------------
empirical IP shift (eV):    4.8455
delta SCC IP (eV):    5.5622
------------------------------------------------------------------------
           ------------------------------------------------- 
          |        vertical delta SCC EA calculation        |
           ------------------------------------------------- 
   1  -1007.7643833 -0.100776E+04  0.746E-02    0.13       0.0  T
   2  -1007.7696895 -0.530616E-02  0.712E-02    0.03       1.0  T
   3  -1007.7777892 -0.809972E-02  0.386E-02    0.09       1.0  T
   4  -1007.7788615 -0.107231E-02  0.277E-02    0.06       1.0  T
   5  -1007.7788741 -0.125557E-04  0.175E-02    0.07       1.0  T
   6  -1007.7758339  0.304020E-02  0.261E-02    0.08       1.0  T
   7  -1007.7791385 -0.330460E-02  0.864E-03    0.07       1.0  T
   8  -1007.7794303 -0.291773E-03  0.243E-03    0.07       1.8  T
   9  -1007.7794387 -0.840551E-05  0.134E-03    0.06       3.3  T
  10  -1007.7794420 -0.335969E-05  0.396E-04    0.07      11.2  T
  11  -1007.7794422 -0.120580E-06  0.236E-04    0.07      18.9  T
  12  -1007.7794422 -0.455823E-07  0.837E-05    0.07      53.2  T
  13  -1007.7794422 -0.676539E-08  0.432E-05    0.07     103.1  T
     SCC iter.                  ...        0 min, 30.003 sec
     gradient                   ...        0 min,  3.542 sec
------------------------------------------------------------------------
empirical EA shift (eV):    4.8455
delta SCC EA (eV):    3.9100
------------------------------------------------------------------------
           -------------------------------------------------
          |                Property Printout                |
           -------------------------------------------------

    * Orbital Energies and Occupations

         #    Occupation            Energy/Eh            Energy/eV
      -------------------------------------------------------------
         1        2.0000           -1.0257985             -27.9134
       ...           ...                  ...                  ...
       778        2.0000           -0.3671289              -9.9901
       779        2.0000           -0.3668986              -9.9838
       780        2.0000           -0.3665242              -9.9736
       781        2.0000           -0.3664978              -9.9729
       782        2.0000           -0.3664928              -9.9728
       783        2.0000           -0.3635216              -9.8919
       784        2.0000           -0.3590984              -9.7716
       785        2.0000           -0.3542198              -9.6388
       786        2.0000           -0.3491405              -9.5006
       787        2.0000           -0.3440125              -9.3611
       788        2.0000           -0.3389120              -9.2223
       789        2.0000           -0.3343646              -9.0985
       790        0.7795           -0.3053906              -8.3101 (HOMO)
       791        0.2179           -0.3029768              -8.2444 (LUMO)
       792        0.0026           -0.2985211              -8.1232
       793        0.0000           -0.2935425              -7.9877
       794        0.0000           -0.2898484              -7.8872
       795        0.0000           -0.2891225              -7.8674
       796                         -0.2875417              -7.8244
       797                         -0.2854700              -7.7680
       798                         -0.2853264              -7.7641
       799                         -0.2838687              -7.7245
       800                         -0.2833744              -7.7110
       801                         -0.2831461              -7.7048
       ...                                ...                  ...
      2028                        591.3039872           16090.2005
      -------------------------------------------------------------
                  HL-Gap            0.0024138 Eh            0.0657 eV
             Fermi-level           -0.3120504 Eh           -8.4913 eV

  Mulliken/CM5 charges         n(s)   n(p)   n(d)
     1C    -0.02006 -0.06089   1.089  2.931  0.000
     2C     0.06356  0.12397   1.105  2.831  0.000
     3C    -0.03254 -0.07786   1.081  2.952  0.000
     4C    -0.03020 -0.07515   1.075  2.955  0.000
     5C     0.06506  0.12906   1.100  2.835  0.000
     6N    -0.15758 -0.51056   1.311  3.846  0.000
     7C     0.01108  0.01699   1.089  2.900  0.000
     8C     0.02343  0.01695   1.099  2.878  0.000
     9C    -0.01471 -0.06242   1.080  2.935  0.000
    10C     0.05567  0.08033   1.128  2.816  0.000
    11N    -0.25376 -0.44961   1.376  3.878  0.000
    12C     0.05484  0.07957   1.128  2.817  0.000
    13C    -0.01658 -0.06424   1.078  2.939  0.000
    14C     0.06143  0.12953   1.117  2.822  0.000
    15C    -0.03466 -0.08069   1.082  2.953  0.000
    16C    -0.03432 -0.08010   1.085  2.949  0.000
    17N    -0.28312 -0.46963   1.293  3.991  0.000
    18C     0.06536  0.13604   1.129  2.805  0.000
    19C     0.01906  0.02619   1.086  2.895  0.000
    20C     0.06702  0.13181   1.109  2.824  0.000
    21C    -0.03042 -0.07515   1.074  2.956  0.000
    22C    -0.03012 -0.07511   1.072  2.958  0.000
    23C     0.06406  0.12747   1.098  2.838  0.000
    24N    -0.15559 -0.50776   1.314  3.842  0.000
    25C     0.01020  0.01616   1.089  2.901  0.000
    26C     0.02329  0.01682   1.099  2.878  0.000
    27C    -0.01622 -0.06386   1.078  2.938  0.000
    28C     0.05506  0.07976   1.128  2.817  0.000
    29N    -0.25407 -0.44990   1.376  3.878  0.000
    30C     0.05507  0.07974   1.128  2.817  0.000
    31C    -0.01544 -0.06317   1.080  2.936  0.000
    32C     0.06279  0.13221   1.120  2.817  0.000
    33C    -0.03561 -0.08160   1.085  2.950  0.000
    34C    -0.03769 -0.08408   1.091  2.946  0.000
    35C     0.06057  0.12629   1.125  2.814  0.000
    36N    -0.28569 -0.47264   1.292  3.993  0.000
    37H     0.03166  0.09068   0.968  0.000  0.000
    38H     0.04272  0.09940   0.957  0.000  0.000
    39H     0.03507  0.09383   0.965  0.000  0.000
    40H     0.16496  0.37324   0.835  0.000  0.000
    41H     0.03006  0.08823   0.970  0.000  0.000
    42H     0.03357  0.09950   0.966  0.000  0.000
    43H     0.03203  0.09795   0.968  0.000  0.000
    44H     0.02931  0.08747   0.971  0.000  0.000
    45H     0.02602  0.08484   0.974  0.000  0.000
    46H     0.02287  0.08133   0.977  0.000  0.000
    47H     0.03246  0.09095   0.968  0.000  0.000
    48H     0.03532  0.09416   0.965  0.000  0.000
    49H     0.16299  0.37120   0.837  0.000  0.000
    50H     0.03004  0.08820   0.970  0.000  0.000
    51H     0.03288  0.09880   0.967  0.000  0.000
    52H     0.03226  0.09819   0.968  0.000  0.000
    53H     0.02900  0.08719   0.971  0.000  0.000
    54H     0.02538  0.08409   0.975  0.000  0.000
    55H     0.03266  0.08909   0.967  0.000  0.000
    56C    -0.01994 -0.06077   1.089  2.931  0.000
    57C     0.06365  0.12407   1.105  2.831  0.000
    58C    -0.03240 -0.07771   1.081  2.951  0.000
    59C    -0.03012 -0.07504   1.075  2.955  0.000
    60C     0.06515  0.12915   1.100  2.835  0.000
    61N    -0.15753 -0.51052   1.311  3.846  0.000
    62C     0.01106  0.01697   1.089  2.899  0.000
    63C     0.02346  0.01696   1.099  2.877  0.000
    64C    -0.01495 -0.06268   1.080  2.935  0.000
    65C     0.05557  0.08023   1.128  2.816  0.000
    66N    -0.25372 -0.44959   1.376  3.878  0.000
    67C     0.05498  0.07971   1.128  2.817  0.000
    68C    -0.01654 -0.06417   1.078  2.939  0.000
    69C     0.06153  0.12967   1.117  2.821  0.000
    70C    -0.03465 -0.08066   1.082  2.953  0.000
    71C    -0.03426 -0.08005   1.086  2.949  0.000
    72N    -0.28335 -0.46981   1.293  3.990  0.000
    73C     0.06520  0.13581   1.129  2.806  0.000
    74C     0.01927  0.02640   1.086  2.894  0.000
    75C     0.06702  0.13178   1.109  2.824  0.000
    76C    -0.03014 -0.07487   1.074  2.956  0.000
    77C    -0.02992 -0.07489   1.072  2.958  0.000
    78C     0.06421  0.12762   1.098  2.837  0.000
    79N    -0.15576 -0.50785   1.314  3.842  0.000
    80C     0.01027  0.01623   1.089  2.900  0.000
    81C     0.02329  0.01681   1.099  2.878  0.000
    82C    -0.01624 -0.06390   1.078  2.938  0.000
    83C     0.05508  0.07978   1.128  2.817  0.000
    84N    -0.25402 -0.44987   1.376  3.878  0.000
    85C     0.05512  0.07979   1.129  2.816  0.000
    86C    -0.01557 -0.06328   1.080  2.936  0.000
    87C     0.06286  0.13229   1.120  2.817  0.000
    88C    -0.03555 -0.08151   1.085  2.950  0.000
    89C    -0.03760 -0.08399   1.092  2.946  0.000
    90C     0.06065  0.12638   1.125  2.814  0.000
    91N    -0.28566 -0.47260   1.292  3.993  0.000
    92H     0.03182  0.09084   0.968  0.000  0.000
    93H     0.04290  0.09958   0.957  0.000  0.000
    94H     0.03532  0.09409   0.965  0.000  0.000
    95H     0.16509  0.37335   0.835  0.000  0.000
    96H     0.02978  0.08791   0.970  0.000  0.000
    97H     0.03327  0.09919   0.967  0.000  0.000
    98H     0.03232  0.09824   0.968  0.000  0.000
    99H     0.02952  0.08762   0.970  0.000  0.000
   100H     0.02681  0.08565   0.973  0.000  0.000
   101H     0.02361  0.08207   0.976  0.000  0.000
   102H     0.03303  0.09152   0.967  0.000  0.000
   103H     0.03612  0.09499   0.964  0.000  0.000
   104H     0.16304  0.37127   0.837  0.000  0.000
   105H     0.02982  0.08795   0.970  0.000  0.000
   106H     0.03280  0.09872   0.967  0.000  0.000
   107H     0.03242  0.09835   0.968  0.000  0.000
   108H     0.02917  0.08730   0.971  0.000  0.000
   109H     0.02561  0.08433   0.974  0.000  0.000
   110H     0.03279  0.08923   0.967  0.000  0.000
   111C    -0.02467 -0.02695   1.068  2.956  0.000
   112C    -0.02225 -0.02449   1.071  2.952  0.000
   113C    -0.02423 -0.02639   1.069  2.955  0.000
   114C    -0.02298 -0.02512   1.070  2.953  0.000
   115C    -0.02374 -0.02585   1.069  2.954  0.000
   116C    -0.02346 -0.02557   1.070  2.954  0.000
   117C    -0.02352 -0.02563   1.070  2.954  0.000
   118C    -0.02352 -0.02562   1.070  2.954  0.000
   119C    -0.02352 -0.02563   1.070  2.954  0.000
   120C    -0.02353 -0.02563   1.070  2.954  0.000
   121C    -0.02344 -0.02555   1.070  2.954  0.000
   122C    -0.02378 -0.02589   1.069  2.954  0.000
   123C    -0.02291 -0.02505   1.070  2.953  0.000
   124C    -0.02430 -0.02647   1.069  2.956  0.000
   125C    -0.02180 -0.02408   1.071  2.951  0.000
   126C    -0.02436 -0.02667   1.069  2.956  0.000
   127C     0.01576  0.02298   1.083  2.901  0.000
   128C     0.06644  0.13123   1.109  2.824  0.000
   129C    -0.03273 -0.07748   1.073  2.960  0.000
   130C    -0.03079 -0.07577   1.073  2.958  0.000
   131C     0.06235  0.12585   1.096  2.841  0.000
   132N    -0.15526 -0.50775   1.313  3.842  0.000
   133C     0.01301  0.01882   1.091  2.896  0.000
   134C     0.02381  0.01728   1.099  2.877  0.000
   135C    -0.01462 -0.06231   1.080  2.935  0.000
   136C     0.05550  0.08016   1.128  2.816  0.000
   137N    -0.25373 -0.44958   1.376  3.878  0.000
   138C     0.05499  0.07971   1.128  2.817  0.000
   139C    -0.01604 -0.06370   1.077  2.939  0.000
   140C     0.05998  0.12799   1.115  2.825  0.000
   141C    -0.03533 -0.08138   1.082  2.954  0.000
   142C    -0.03615 -0.08197   1.083  2.953  0.000
   143N    -0.28248 -0.46872   1.292  3.990  0.000
   144C     0.06481  0.13557   1.129  2.806  0.000
   145C     0.01801  0.02523   1.085  2.897  0.000
   146C     0.06704  0.13184   1.110  2.823  0.000
   147C    -0.03072 -0.07555   1.074  2.957  0.000
   148C    -0.03006 -0.07505   1.072  2.958  0.000
   149C     0.06302  0.12646   1.097  2.840  0.000
   150N    -0.15469 -0.50715   1.313  3.841  0.000
   151C     0.01313  0.01894   1.091  2.896  0.000
   152C     0.02386  0.01732   1.099  2.877  0.000
   153C    -0.01464 -0.06236   1.080  2.935  0.000
   154C     0.05548  0.08015   1.128  2.816  0.000
   155N    -0.25367 -0.44954   1.376  3.878  0.000
   156C     0.05528  0.07998   1.128  2.817  0.000
   157C    -0.01568 -0.06334   1.078  2.938  0.000
   158C     0.06056  0.12867   1.116  2.824  0.000
   159C    -0.03480 -0.08085   1.082  2.952  0.000
   160C    -0.03579 -0.08159   1.084  2.951  0.000
   161C     0.06494  0.13559   1.129  2.806  0.000
   162N    -0.28327 -0.46941   1.292  3.992  0.000
   163H     0.03046  0.08886   0.970  0.000  0.000
   164H     0.03363  0.09251   0.966  0.000  0.000
   165H     0.16275  0.37074   0.837  0.000  0.000
   166H     0.02950  0.08771   0.971  0.000  0.000
   167H     0.03308  0.09900   0.967  0.000  0.000
   168H     0.03232  0.09824   0.968  0.000  0.000
   169H     0.02982  0.08800   0.970  0.000  0.000
   170H     0.02491  0.08374   0.975  0.000  0.000
   171H     0.02192  0.08036   0.978  0.000  0.000
   172H     0.03166  0.09017   0.968  0.000  0.000
   173H     0.03459  0.09348   0.965  0.000  0.000
   174H     0.16247  0.37048   0.838  0.000  0.000
   175H     0.02929  0.08749   0.971  0.000  0.000
   176H     0.03267  0.09859   0.967  0.000  0.000
   177H     0.03275  0.09867   0.967  0.000  0.000
   178H     0.03025  0.08844   0.970  0.000  0.000
   179H     0.02471  0.08354   0.975  0.000  0.000
   180H     0.02120  0.07957   0.979  0.000  0.000
   181C     0.01648  0.02372   1.084  2.900  0.000
   182C     0.06687  0.13168   1.110  2.823  0.000
   183C    -0.03152 -0.07636   1.073  2.958  0.000
   184C    -0.03028 -0.07528   1.072  2.958  0.000
   185C     0.06248  0.12595   1.096  2.841  0.000
   186N    -0.15494 -0.50751   1.313  3.842  0.000
   187C     0.01332  0.01915   1.092  2.895  0.000
   188C     0.02380  0.01729   1.099  2.877  0.000
   189C    -0.01459 -0.06228   1.080  2.934  0.000
   190C     0.05546  0.08012   1.128  2.816  0.000
   191N    -0.25372 -0.44958   1.376  3.878  0.000
   192C     0.05515  0.07986   1.128  2.817  0.000
   193C    -0.01571 -0.06338   1.077  2.938  0.000
   194C     0.05995  0.12794   1.115  2.825  0.000
   195C    -0.03520 -0.08128   1.081  2.954  0.000
   196C    -0.03635 -0.08220   1.083  2.953  0.000
   197N    -0.28252 -0.46887   1.292  3.991  0.000
   198C     0.06474  0.13551   1.129  2.806  0.000
   199C     0.01734  0.02459   1.085  2.898  0.000
   200C     0.06699  0.13182   1.110  2.823  0.000
   201C    -0.03106 -0.07592   1.073  2.958  0.000
   202C    -0.03013 -0.07514   1.072  2.958  0.000
   203C     0.06264  0.12608   1.097  2.841  0.000
   204N    -0.15480 -0.50736   1.313  3.842  0.000
   205C     0.01324  0.01906   1.092  2.895  0.000
   206C     0.02380  0.01728   1.099  2.877  0.000
   207C    -0.01468 -0.06238   1.080  2.935  0.000
   208C     0.05541  0.08009   1.128  2.816  0.000
   209N    -0.25369 -0.44956   1.376  3.878  0.000
   210C     0.05524  0.07994   1.128  2.817  0.000
   211C    -0.01564 -0.06329   1.078  2.938  0.000
   212C     0.05996  0.12800   1.115  2.825  0.000
   213C    -0.03525 -0.08132   1.082  2.954  0.000
   214C    -0.03664 -0.08247   1.083  2.954  0.000
   215C     0.06459  0.13531   1.129  2.806  0.000
   216N    -0.28281 -0.46910   1.292  3.991  0.000
   217H     0.03078  0.08925   0.969  0.000  0.000
   218H     0.03394  0.09281   0.966  0.000  0.000
   219H     0.16249  0.37059   0.838  0.000  0.000
   220H     0.02908  0.08734   0.971  0.000  0.000
   221H     0.03280  0.09872   0.967  0.000  0.000
   222H     0.03248  0.09840   0.968  0.000  0.000
   223H     0.03010  0.08832   0.970  0.000  0.000
   224H     0.02483  0.08364   0.975  0.000  0.000
   225H     0.02162  0.08007   0.978  0.000  0.000
   226H     0.03135  0.08985   0.969  0.000  0.000
   227H     0.03434  0.09321   0.966  0.000  0.000
   228H     0.16244  0.37055   0.838  0.000  0.000
   229H     0.02895  0.08719   0.971  0.000  0.000
   230H     0.03262  0.09855   0.967  0.000  0.000
   231H     0.03271  0.09863   0.967  0.000  0.000
   232H     0.03026  0.08848   0.970  0.000  0.000
   233H     0.02461  0.08342   0.975  0.000  0.000
   234H     0.02121  0.07961   0.979  0.000  0.000
   235C     0.01714  0.02439   1.085  2.898  0.000
   236C     0.06695  0.13178   1.110  2.823  0.000
   237C    -0.03118 -0.07604   1.073  2.958  0.000
   238C    -0.03012 -0.07514   1.072  2.958  0.000
   239C     0.06265  0.12611   1.097  2.841  0.000
   240N    -0.15478 -0.50738   1.313  3.842  0.000
   241C     0.01334  0.01917   1.092  2.895  0.000
   242C     0.02377  0.01726   1.099  2.877  0.000
   243C    -0.01460 -0.06229   1.080  2.934  0.000
   244C     0.05547  0.08014   1.128  2.816  0.000
   245N    -0.25365 -0.44950   1.376  3.878  0.000
   246C     0.05521  0.07991   1.128  2.817  0.000
   247C    -0.01565 -0.06331   1.077  2.938  0.000
   248C     0.06005  0.12803   1.115  2.825  0.000
   249C    -0.03512 -0.08119   1.082  2.954  0.000
   250C    -0.03634 -0.08218   1.083  2.953  0.000
   251N    -0.28250 -0.46889   1.292  3.991  0.000
   252C     0.06475  0.13554   1.129  2.806  0.000
   253C     0.01726  0.02452   1.085  2.898  0.000
   254C     0.06704  0.13188   1.110  2.823  0.000
   255C    -0.03104 -0.07590   1.073  2.958  0.000
   256C    -0.03004 -0.07506   1.072  2.958  0.000
   257C     0.06271  0.12616   1.097  2.841  0.000
   258N    -0.15478 -0.50739   1.313  3.842  0.000
   259C     0.01332  0.01915   1.092  2.895  0.000
   260C     0.02376  0.01725   1.099  2.877  0.000
   261C    -0.01462 -0.06231   1.080  2.935  0.000
   262C     0.05544  0.08011   1.128  2.816  0.000
   263N    -0.25365 -0.44951   1.376  3.878  0.000
   264C     0.05524  0.07994   1.128  2.817  0.000
   265C    -0.01564 -0.06331   1.077  2.938  0.000
   266C     0.06005  0.12805   1.115  2.825  0.000
   267C    -0.03519 -0.08127   1.082  2.954  0.000
   268C    -0.03644 -0.08229   1.083  2.954  0.000
   269C     0.06465  0.13539   1.129  2.806  0.000
   270N    -0.28256 -0.46893   1.292  3.991  0.000
   271H     0.03108  0.08958   0.969  0.000  0.000
   272H     0.03420  0.09306   0.966  0.000  0.000
   273H     0.16250  0.37066   0.838  0.000  0.000
   274H     0.02902  0.08729   0.971  0.000  0.000
   275H     0.03278  0.09871   0.967  0.000  0.000
   276H     0.03263  0.09855   0.967  0.000  0.000
   277H     0.03019  0.08842   0.970  0.000  0.000
   278H     0.02487  0.08367   0.975  0.000  0.000
   279H     0.02162  0.08005   0.978  0.000  0.000
   280H     0.03128  0.08977   0.969  0.000  0.000
   281H     0.03432  0.09320   0.966  0.000  0.000
   282H     0.16250  0.37065   0.838  0.000  0.000
   283H     0.02895  0.08722   0.971  0.000  0.000
   284H     0.03271  0.09863   0.967  0.000  0.000
   285H     0.03270  0.09862   0.967  0.000  0.000
   286H     0.03023  0.08847   0.970  0.000  0.000
   287H     0.02479  0.08359   0.975  0.000  0.000
   288H     0.02147  0.07989   0.979  0.000  0.000
   289C     0.01733  0.02458   1.085  2.898  0.000
   290C     0.06701  0.13185   1.110  2.823  0.000
   291C    -0.03103 -0.07589   1.073  2.958  0.000
   292C    -0.03003 -0.07505   1.072  2.958  0.000
   293C     0.06275  0.12621   1.097  2.841  0.000
   294N    -0.15477 -0.50738   1.313  3.842  0.000
   295C     0.01333  0.01917   1.092  2.895  0.000
   296C     0.02374  0.01724   1.099  2.877  0.000
   297C    -0.01460 -0.06230   1.080  2.934  0.000
   298C     0.05547  0.08015   1.128  2.816  0.000
   299N    -0.25363 -0.44948   1.376  3.878  0.000
   300C     0.05523  0.07992   1.128  2.817  0.000
   301C    -0.01565 -0.06331   1.077  2.938  0.000
   302C     0.06012  0.12812   1.115  2.824  0.000
   303C    -0.03512 -0.08120   1.082  2.954  0.000
   304C    -0.03633 -0.08218   1.083  2.953  0.000
   305N    -0.28247 -0.46886   1.292  3.991  0.000
   306C     0.06473  0.13549   1.129  2.806  0.000
   307C     0.01733  0.02459   1.085  2.898  0.000
   308C     0.06702  0.13186   1.110  2.823  0.000
   309C    -0.03103 -0.07589   1.073  2.958  0.000
   310C    -0.03003 -0.07505   1.072  2.958  0.000
   311C     0.06275  0.12620   1.097  2.841  0.000
   312N    -0.15475 -0.50737   1.313  3.842  0.000
   313C     0.01335  0.01918   1.092  2.895  0.000
   314C     0.02374  0.01724   1.099  2.877  0.000
   315C    -0.01460 -0.06230   1.080  2.934  0.000
   316C     0.05548  0.08016   1.128  2.816  0.000
   317N    -0.25361 -0.44947   1.376  3.878  0.000
   318C     0.05523  0.07992   1.128  2.817  0.000
   319C    -0.01564 -0.06331   1.077  2.938  0.000
   320C     0.06010  0.12809   1.115  2.824  0.000
   321C    -0.03510 -0.08118   1.082  2.954  0.000
   322C    -0.03632 -0.08217   1.083  2.953  0.000
   323C     0.06475  0.13552   1.129  2.806  0.000
   324N    -0.28246 -0.46884   1.292  3.991  0.000
   325H     0.03128  0.08977   0.969  0.000  0.000
   326H     0.03434  0.09320   0.966  0.000  0.000
   327H     0.16253  0.37069   0.837  0.000  0.000
   328H     0.02900  0.08727   0.971  0.000  0.000
   329H     0.03277  0.09870   0.967  0.000  0.000
   330H     0.03269  0.09862   0.967  0.000  0.000
   331H     0.03023  0.08847   0.970  0.000  0.000
   332H     0.02487  0.08367   0.975  0.000  0.000
   333H     0.02159  0.08002   0.978  0.000  0.000
   334H     0.03126  0.08975   0.969  0.000  0.000
   335H     0.03432  0.09318   0.966  0.000  0.000
   336H     0.16253  0.37069   0.837  0.000  0.000
   337H     0.02900  0.08728   0.971  0.000  0.000
   338H     0.03278  0.09871   0.967  0.000  0.000
   339H     0.03270  0.09862   0.967  0.000  0.000
   340H     0.03023  0.08847   0.970  0.000  0.000
   341H     0.02488  0.08368   0.975  0.000  0.000
   342H     0.02159  0.08003   0.978  0.000  0.000
   343C     0.01726  0.02451   1.085  2.898  0.000
   344C     0.06703  0.13187   1.110  2.823  0.000
   345C    -0.03105 -0.07591   1.073  2.958  0.000
   346C    -0.03005 -0.07506   1.072  2.958  0.000
   347C     0.06270  0.12614   1.097  2.841  0.000
   348N    -0.15479 -0.50741   1.313  3.842  0.000
   349C     0.01331  0.01915   1.092  2.895  0.000
   350C     0.02375  0.01725   1.099  2.877  0.000
   351C    -0.01462 -0.06231   1.080  2.934  0.000
   352C     0.05544  0.08011   1.128  2.816  0.000
   353N    -0.25366 -0.44951   1.376  3.878  0.000
   354C     0.05523  0.07993   1.128  2.817  0.000
   355C    -0.01564 -0.06330   1.077  2.938  0.000
   356C     0.06003  0.12804   1.115  2.825  0.000
   357C    -0.03519 -0.08127   1.082  2.954  0.000
   358C    -0.03646 -0.08230   1.083  2.954  0.000
   359N    -0.28255 -0.46894   1.292  3.991  0.000
   360C     0.06464  0.13539   1.129  2.806  0.000
   361C     0.01710  0.02436   1.085  2.898  0.000
   362C     0.06695  0.13177   1.110  2.823  0.000
   363C    -0.03121 -0.07608   1.073  2.958  0.000
   364C    -0.03014 -0.07516   1.072  2.958  0.000
   365C     0.06263  0.12609   1.097  2.841  0.000
   366N    -0.15478 -0.50739   1.313  3.842  0.000
   367C     0.01333  0.01917   1.092  2.895  0.000
   368C     0.02376  0.01725   1.099  2.877  0.000
   369C    -0.01459 -0.06229   1.080  2.934  0.000
   370C     0.05547  0.08014   1.128  2.816  0.000
   371N    -0.25366 -0.44951   1.376  3.878  0.000
   372C     0.05521  0.07990   1.128  2.817  0.000
   373C    -0.01565 -0.06331   1.078  2.938  0.000
   374C     0.06005  0.12804   1.115  2.825  0.000
   375C    -0.03512 -0.08120   1.082  2.954  0.000
   376C    -0.03633 -0.08218   1.083  2.953  0.000
   377C     0.06476  0.13555   1.129  2.806  0.000
   378N    -0.28250 -0.46889   1.292  3.991  0.000
   379H     0.03129  0.08978   0.969  0.000  0.000
   380H     0.03432  0.09318   0.966  0.000  0.000
   381H     0.16249  0.37065   0.838  0.000  0.000
   382H     0.02893  0.08720   0.971  0.000  0.000
   383H     0.03269  0.09862   0.967  0.000  0.000
   384H     0.03270  0.09863   0.967  0.000  0.000
   385H     0.03024  0.08848   0.970  0.000  0.000
   386H     0.02479  0.08358   0.975  0.000  0.000
   387H     0.02146  0.07988   0.979  0.000  0.000
   388H     0.03103  0.08954   0.969  0.000  0.000
   389H     0.03418  0.09304   0.966  0.000  0.000
   390H     0.16249  0.37066   0.838  0.000  0.000
   391H     0.02902  0.08729   0.971  0.000  0.000
   392H     0.03279  0.09871   0.967  0.000  0.000
   393H     0.03262  0.09854   0.967  0.000  0.000
   394H     0.03017  0.08841   0.970  0.000  0.000
   395H     0.02487  0.08367   0.975  0.000  0.000
   396H     0.02161  0.08004   0.978  0.000  0.000
   397C     0.01738  0.02463   1.085  2.898  0.000
   398C     0.06699  0.13182   1.110  2.823  0.000
   399C    -0.03105 -0.07591   1.073  2.958  0.000
   400C    -0.03014 -0.07515   1.072  2.958  0.000
   401C     0.06264  0.12609   1.097  2.841  0.000
   402N    -0.15479 -0.50736   1.313  3.842  0.000
   403C     0.01321  0.01904   1.091  2.895  0.000
   404C     0.02378  0.01726   1.099  2.877  0.000
   405C    -0.01468 -0.06238   1.080  2.935  0.000
   406C     0.05540  0.08007   1.128  2.816  0.000
   407N    -0.25370 -0.44955   1.376  3.878  0.000
   408C     0.05524  0.07993   1.128  2.817  0.000
   409C    -0.01563 -0.06329   1.078  2.938  0.000
   410C     0.05996  0.12798   1.115  2.825  0.000
   411C    -0.03522 -0.08130   1.082  2.954  0.000
   412C    -0.03665 -0.08249   1.083  2.954  0.000
   413N    -0.28282 -0.46914   1.292  3.991  0.000
   414C     0.06461  0.13534   1.129  2.806  0.000
   415C     0.01639  0.02364   1.084  2.900  0.000
   416C     0.06683  0.13164   1.110  2.823  0.000
   417C    -0.03155 -0.07639   1.073  2.958  0.000
   418C    -0.03028 -0.07529   1.072  2.958  0.000
   419C     0.06248  0.12596   1.096  2.841  0.000
   420N    -0.15497 -0.50755   1.313  3.842  0.000
   421C     0.01332  0.01915   1.092  2.895  0.000
   422C     0.02380  0.01728   1.099  2.877  0.000
   423C    -0.01458 -0.06228   1.080  2.934  0.000
   424C     0.05546  0.08014   1.128  2.816  0.000
   425N    -0.25372 -0.44957   1.376  3.878  0.000
   426C     0.05514  0.07984   1.128  2.817  0.000
   427C    -0.01571 -0.06338   1.077  2.938  0.000
   428C     0.05994  0.12792   1.115  2.825  0.000
   429C    -0.03520 -0.08127   1.081  2.954  0.000
   430C    -0.03634 -0.08219   1.083  2.953  0.000
   431C     0.06477  0.13555   1.129  2.806  0.000
   432N    -0.28250 -0.46886   1.292  3.990  0.000
   433H     0.03137  0.08986   0.969  0.000  0.000
   434H     0.03434  0.09321   0.966  0.000  0.000
   435H     0.16243  0.37057   0.838  0.000  0.000
   436H     0.02887  0.08713   0.971  0.000  0.000
   437H     0.03260  0.09853   0.967  0.000  0.000
   438H     0.03273  0.09865   0.967  0.000  0.000
   439H     0.03026  0.08850   0.970  0.000  0.000
   440H     0.02460  0.08341   0.975  0.000  0.000
   441H     0.02117  0.07957   0.979  0.000  0.000
   442H     0.03082  0.08927   0.969  0.000  0.000
   443H     0.03396  0.09283   0.966  0.000  0.000
   444H     0.16249  0.37061   0.838  0.000  0.000
   445H     0.02909  0.08734   0.971  0.000  0.000
   446H     0.03282  0.09875   0.967  0.000  0.000
   447H     0.03248  0.09840   0.968  0.000  0.000
   448H     0.03009  0.08832   0.970  0.000  0.000
   449H     0.02485  0.08365   0.975  0.000  0.000
   450H     0.02163  0.08009   0.978  0.000  0.000
   451C     0.01811  0.02532   1.085  2.896  0.000
   452C     0.06714  0.13194   1.110  2.823  0.000
   453C    -0.03061 -0.07546   1.074  2.957  0.000
   454C    -0.03002 -0.07499   1.072  2.958  0.000
   455C     0.06308  0.12652   1.097  2.840  0.000
   456N    -0.15469 -0.50710   1.313  3.841  0.000
   457C     0.01304  0.01884   1.091  2.896  0.000
   458C     0.02392  0.01735   1.099  2.877  0.000
   459C    -0.01486 -0.06260   1.080  2.935  0.000
   460C     0.05540  0.08008   1.128  2.816  0.000
   461N    -0.25367 -0.44955   1.376  3.878  0.000
   462C     0.05537  0.08007   1.128  2.816  0.000
   463C    -0.01568 -0.06332   1.078  2.938  0.000
   464C     0.06060  0.12876   1.116  2.823  0.000
   465C    -0.03489 -0.08093   1.083  2.952  0.000
   466C    -0.03586 -0.08166   1.085  2.951  0.000
   467N    -0.28362 -0.46967   1.292  3.992  0.000
   468C     0.06471  0.13528   1.129  2.806  0.000
   469C     0.01586  0.02306   1.083  2.901  0.000
   470C     0.06639  0.13114   1.109  2.824  0.000
   471C    -0.03261 -0.07735   1.073  2.960  0.000
   472C    -0.03070 -0.07566   1.072  2.958  0.000
   473C     0.06245  0.12594   1.096  2.841  0.000
   474N    -0.15552 -0.50787   1.313  3.842  0.000
   475C     0.01299  0.01879   1.091  2.896  0.000
   476C     0.02385  0.01727   1.100  2.877  0.000
   477C    -0.01481 -0.06249   1.080  2.935  0.000
   478C     0.05550  0.08017   1.129  2.816  0.000
   479N    -0.25375 -0.44962   1.376  3.878  0.000
   480C     0.05500  0.07972   1.128  2.817  0.000
   481C    -0.01603 -0.06373   1.078  2.939  0.000
   482C     0.06003  0.12806   1.115  2.825  0.000
   483C    -0.03535 -0.08137   1.082  2.954  0.000
   484C    -0.03613 -0.08194   1.084  2.952  0.000
   485C     0.06482  0.13558   1.129  2.806  0.000
   486N    -0.28257 -0.46876   1.292  3.990  0.000
   487H     0.03171  0.09025   0.968  0.000  0.000
   488H     0.03475  0.09366   0.965  0.000  0.000
   489H     0.16259  0.37054   0.837  0.000  0.000
   490H     0.02907  0.08721   0.971  0.000  0.000
   491H     0.03237  0.09830   0.968  0.000  0.000
   492H     0.03292  0.09883   0.967  0.000  0.000
   493H     0.03035  0.08848   0.970  0.000  0.000
   494H     0.02534  0.08421   0.975  0.000  0.000
   495H     0.02174  0.08014   0.978  0.000  0.000
   496H     0.03097  0.08939   0.969  0.000  0.000
   497H     0.03430  0.09322   0.966  0.000  0.000
   498H     0.16279  0.37076   0.837  0.000  0.000
   499H     0.02964  0.08779   0.970  0.000  0.000
   500H     0.03310  0.09902   0.967  0.000  0.000
   501H     0.03222  0.09814   0.968  0.000  0.000
   502H     0.02963  0.08776   0.970  0.000  0.000
   503H     0.02507  0.08392   0.975  0.000  0.000
   504H     0.02201  0.08045   0.978  0.000  0.000

Wiberg/Mayer (AO) data.
largest (>0.10) Wiberg bond orders for each atom

 ---------------------------------------------------------------------------
     #   Z sym  total        # sym  WBO       # sym  WBO       # sym  WBO
 ---------------------------------------------------------------------------
     1   6 C    3.818 --    35 C    1.385     2 C    1.374    37 H    0.995
     2   6 C    3.925 --     1 C    1.374     3 C    1.239     6 N    1.229
     3   6 C    3.840 --     4 C    1.602     2 C    1.239    38 H    0.992
     4   6 C    3.824 --     3 C    1.602     5 C    1.248    39 H    0.997
     5   6 C    3.899 --     7 C    1.342     4 C    1.248     6 N    1.231
     6   7 N    3.247 --     5 C    1.231     2 C    1.229    40 H    0.960
     7   6 C    3.841 --    14 C    1.366     5 C    1.342     8 C    1.053
     8   6 C    3.907 --    13 C    1.425     9 C    1.425     7 C    1.053
     9   6 C    3.869 --    10 C    1.448     8 C    1.425    41 H    0.987
                            12 C    0.101
    10   6 C    3.999 --    11 N    1.478     9 C    1.448    42 H    0.982
                            13 C    0.101
    11   7 N    2.941 --    12 C    1.480    10 C    1.478
    12   6 C    3.999 --    11 N    1.480    13 C    1.447    43 H    0.983
                             9 C    0.101
    13   6 C    3.865 --    12 C    1.447     8 C    1.425    44 H    0.987
                            10 C    0.101
    14   6 C    3.924 --     7 C    1.366    17 N    1.358    15 C    1.160
    15   6 C    3.833 --    16 C    1.694    14 C    1.160    45 H    0.997
    16   6 C    3.835 --    15 C    1.694    18 C    1.166    46 H    0.999
    17   7 N    2.566 --    18 C    1.413    14 C    1.358
    18   6 C    3.943 --    17 N    1.413    19 C    1.294    16 C    1.166
    19   6 C    3.850 --    18 C    1.294    20 C    1.293   111 C    1.207
    20   6 C    3.904 --    19 C    1.293    21 C    1.267    24 N    1.249
    21   6 C    3.818 --    22 C    1.585    20 C    1.267    47 H    0.998
    22   6 C    3.812 --    21 C    1.585    23 C    1.257    48 H    0.996
    23   6 C    3.894 --    25 C    1.343    22 C    1.257    24 N    1.226
    24   7 N    3.257 --    20 C    1.249    23 C    1.226    49 H    0.960
    25   6 C    3.827 --    32 C    1.356    23 C    1.343    26 C    1.054
    26   6 C    3.907 --    31 C    1.424    27 C    1.424    25 C    1.054
    27   6 C    3.864 --    28 C    1.448    26 C    1.424    50 H    0.987
                            30 C    0.101
    28   6 C    3.999 --    29 N    1.479    27 C    1.448    51 H    0.982
                            31 C    0.101
    29   7 N    2.940 --    28 C    1.479    30 C    1.478
    30   6 C    3.999 --    29 N    1.478    31 C    1.448    52 H    0.983
                            27 C    0.101
    31   6 C    3.868 --    30 C    1.448    26 C    1.424    53 H    0.988
                            28 C    0.101
    32   6 C    3.946 --    36 N    1.382    25 C    1.356    33 C    1.151
    33   6 C    3.841 --    34 C    1.709    32 C    1.151    54 H    0.998
    34   6 C    3.862 --    33 C    1.709    35 C    1.146    55 H    0.992
    35   6 C    3.967 --     1 C    1.385    36 N    1.374    34 C    1.146
    36   7 N    2.554 --    32 C    1.382    35 C    1.374
    37   1 H    1.031 --     1 C    0.995
    38   1 H    1.015 --     3 C    0.992
    39   1 H    1.030 --     4 C    0.997
    40   1 H    1.081 --     6 N    0.960
    41   1 H    1.052 --     9 C    0.987
    42   1 H    1.053 --    10 C    0.982
    43   1 H    1.054 --    12 C    0.983
    44   1 H    1.049 --    13 C    0.987
    45   1 H    1.034 --    15 C    0.997
    46   1 H    1.037 --    16 C    0.999
    47   1 H    1.032 --    21 C    0.998
    48   1 H    1.030 --    22 C    0.996
    49   1 H    1.084 --    24 N    0.960
    50   1 H    1.049 --    27 C    0.987
    51   1 H    1.053 --    28 C    0.982
    52   1 H    1.054 --    30 C    0.983
    53   1 H    1.052 --    31 C    0.988
    54   1 H    1.034 --    33 C    0.998
    55   1 H    1.018 --    34 C    0.992
    56   6 C    3.820 --    90 C    1.385    57 C    1.375    92 H    0.995
    57   6 C    3.925 --    56 C    1.375    58 C    1.238    61 N    1.229
    58   6 C    3.840 --    59 C    1.602    57 C    1.238    93 H    0.992
    59   6 C    3.824 --    58 C    1.602    60 C    1.248    94 H    0.997
    60   6 C    3.899 --    62 C    1.343    59 C    1.248    61 N    1.231
    61   7 N    3.248 --    60 C    1.231    57 C    1.229    95 H    0.960
    62   6 C    3.841 --    69 C    1.366    60 C    1.343    63 C    1.050
    63   6 C    3.907 --    68 C    1.426    64 C    1.426    62 C    1.050
    64   6 C    3.869 --    65 C    1.448    63 C    1.426    96 H    0.988
                            67 C    0.101
    65   6 C    3.999 --    66 N    1.479    64 C    1.448    97 H    0.983
                            68 C    0.101
    66   7 N    2.941 --    67 C    1.480    65 C    1.479
    67   6 C    3.999 --    66 N    1.480    68 C    1.447    98 H    0.983
                            64 C    0.101
    68   6 C    3.865 --    67 C    1.447    63 C    1.426    99 H    0.987
                            65 C    0.101
    69   6 C    3.925 --    62 C    1.366    72 N    1.359    70 C    1.160
    70   6 C    3.833 --    71 C    1.695    69 C    1.160   100 H    0.997
    71   6 C    3.835 --    70 C    1.695    73 C    1.165   101 H    0.998
    72   7 N    2.567 --    73 C    1.411    69 C    1.359
    73   6 C    3.945 --    72 N    1.411    74 C    1.297    71 C    1.165
    74   6 C    3.851 --    73 C    1.297    75 C    1.296   126 C    1.202
    75   6 C    3.905 --    74 C    1.296    76 C    1.265    79 N    1.249
    76   6 C    3.818 --    77 C    1.588    75 C    1.265   102 H    0.998
    77   6 C    3.813 --    76 C    1.588    78 C    1.256   103 H    0.996
    78   6 C    3.894 --    80 C    1.344    77 C    1.256    79 N    1.226
    79   7 N    3.258 --    75 C    1.249    78 C    1.226   104 H    0.960
    80   6 C    3.829 --    87 C    1.357    78 C    1.344    81 C    1.052
    81   6 C    3.907 --    82 C    1.425    86 C    1.425    80 C    1.052
    82   6 C    3.864 --    83 C    1.447    81 C    1.425   105 H    0.987
                            85 C    0.101
    83   6 C    3.999 --    84 N    1.479    82 C    1.447   106 H    0.982
                            86 C    0.101
    84   7 N    2.940 --    83 C    1.479    85 C    1.479
    85   6 C    3.999 --    84 N    1.479    86 C    1.448   107 H    0.983
                            82 C    0.101
    86   6 C    3.869 --    85 C    1.448    81 C    1.425   108 H    0.988
                            83 C    0.101
    87   6 C    3.946 --    91 N    1.382    80 C    1.357    88 C    1.151
    88   6 C    3.842 --    89 C    1.709    87 C    1.151   109 H    0.998
    89   6 C    3.863 --    88 C    1.709    90 C    1.146   110 H    0.992
    90   6 C    3.967 --    56 C    1.385    91 N    1.375    89 C    1.146
    91   7 N    2.556 --    87 C    1.382    90 C    1.375
    92   1 H    1.031 --    56 C    0.995
    93   1 H    1.014 --    58 C    0.992
    94   1 H    1.030 --    59 C    0.997
    95   1 H    1.081 --    61 N    0.960
    96   1 H    1.052 --    64 C    0.988
    97   1 H    1.053 --    65 C    0.983
    98   1 H    1.054 --    67 C    0.983
    99   1 H    1.049 --    68 C    0.987
   100   1 H    1.033 --    70 C    0.997
   101   1 H    1.035 --    71 C    0.998
   102   1 H    1.031 --    76 C    0.998
   103   1 H    1.029 --    77 C    0.996
   104   1 H    1.084 --    79 N    0.960
   105   1 H    1.049 --    82 C    0.987
   106   1 H    1.053 --    83 C    0.982
   107   1 H    1.054 --    85 C    0.983
   108   1 H    1.052 --    86 C    0.988
   109   1 H    1.034 --    88 C    0.998
   110   1 H    1.018 --    89 C    0.992
   111   6 C    3.759 --   112 C    2.619    19 C    1.207
   112   6 C    3.763 --   111 C    2.619   127 C    1.210
   113   6 C    3.760 --   114 C    2.606   145 C    1.220
   114   6 C    3.760 --   113 C    2.606   181 C    1.221
   115   6 C    3.760 --   116 C    2.604   199 C    1.223
   116   6 C    3.760 --   115 C    2.604   235 C    1.223
   117   6 C    3.761 --   118 C    2.604   253 C    1.222
   118   6 C    3.761 --   117 C    2.604   289 C    1.222
   119   6 C    3.760 --   120 C    2.604   307 C    1.222
   120   6 C    3.761 --   119 C    2.604   343 C    1.222
   121   6 C    3.760 --   122 C    2.603   361 C    1.223
   122   6 C    3.760 --   121 C    2.603   397 C    1.223
   123   6 C    3.760 --   124 C    2.606   415 C    1.220
   124   6 C    3.760 --   123 C    2.606   451 C    1.220
   125   6 C    3.763 --   126 C    2.623   469 C    1.204
   126   6 C    3.759 --   125 C    2.623    74 C    1.202
   127   6 C    3.829 --   161 C    1.291   128 C    1.287   112 C    1.210
   128   6 C    3.906 --   127 C    1.287   129 C    1.271   132 N    1.251
   129   6 C    3.811 --   130 C    1.579   128 C    1.271   163 H    0.998
   130   6 C    3.815 --   129 C    1.579   131 C    1.263   164 H    0.997
   131   6 C    3.887 --   133 C    1.337   130 C    1.263   132 N    1.224
   132   7 N    3.246 --   128 C    1.251   131 C    1.224   165 H    0.961
   133   6 C    3.830 --   140 C    1.370   131 C    1.337   134 C    1.054
   134   6 C    3.906 --   139 C    1.425   135 C    1.425   133 C    1.054
   135   6 C    3.868 --   136 C    1.448   134 C    1.425   166 H    0.988
                           138 C    0.101
   136   6 C    3.999 --   137 N    1.478   135 C    1.448   167 H    0.983
                           139 C    0.101
   137   7 N    2.940 --   138 C    1.480   136 C    1.478
   138   6 C    3.999 --   137 N    1.480   139 C    1.447   168 H    0.983
                           135 C    0.101
   139   6 C    3.863 --   138 C    1.447   134 C    1.425   169 H    0.987
                           136 C    0.101
   140   6 C    3.924 --   133 C    1.370   143 N    1.355   141 C    1.162
   141   6 C    3.831 --   142 C    1.691   140 C    1.162   170 H    0.998
   142   6 C    3.828 --   141 C    1.691   144 C    1.169   171 H    0.999
   143   7 N    2.549 --   144 C    1.417   140 C    1.355
   144   6 C    3.942 --   143 N    1.417   145 C    1.286   142 C    1.169
   145   6 C    3.832 --   144 C    1.286   146 C    1.284   113 C    1.220
   146   6 C    3.902 --   145 C    1.284   147 C    1.273   150 N    1.251
   147   6 C    3.812 --   148 C    1.578   146 C    1.273   172 H    0.998
   148   6 C    3.814 --   147 C    1.578   149 C    1.263   173 H    0.997
   149   6 C    3.887 --   151 C    1.334   148 C    1.263   150 N    1.226
   150   7 N    3.248 --   146 C    1.251   149 C    1.226   174 H    0.962
   151   6 C    3.829 --   158 C    1.373   149 C    1.334   152 C    1.054
   152   6 C    3.906 --   153 C    1.425   157 C    1.424   151 C    1.054
   153   6 C    3.867 --   154 C    1.447   152 C    1.425   175 H    0.988
                           156 C    0.101
   154   6 C    3.999 --   155 N    1.479   153 C    1.447   176 H    0.983
                           157 C    0.101
   155   7 N    2.940 --   156 C    1.479   154 C    1.479
   156   6 C    3.999 --   155 N    1.479   157 C    1.447   177 H    0.982
                           153 C    0.101
   157   6 C    3.863 --   156 C    1.447   152 C    1.424   178 H    0.987
                           154 C    0.101
   158   6 C    3.925 --   151 C    1.373   162 N    1.354   159 C    1.160
   159   6 C    3.834 --   160 C    1.694   158 C    1.160   179 H    0.998
   160   6 C    3.832 --   159 C    1.694   161 C    1.167   180 H    0.999
   161   6 C    3.945 --   162 N    1.415   127 C    1.291   160 C    1.167
   162   7 N    2.546 --   161 C    1.415   158 C    1.354
   163   1 H    1.030 --   129 C    0.998
   164   1 H    1.031 --   130 C    0.997
   165   1 H    1.081 --   132 N    0.961
   166   1 H    1.052 --   135 C    0.988
   167   1 H    1.053 --   136 C    0.983
   168   1 H    1.054 --   138 C    0.983
   169   1 H    1.048 --   139 C    0.987
   170   1 H    1.036 --   141 C    0.998
   171   1 H    1.035 --   142 C    0.999
   172   1 H    1.028 --   147 C    0.998
   173   1 H    1.031 --   148 C    0.997
   174   1 H    1.081 --   150 N    0.962
   175   1 H    1.052 --   153 C    0.988
   176   1 H    1.054 --   154 C    0.983
   177   1 H    1.053 --   156 C    0.982
   178   1 H    1.048 --   157 C    0.987
   179   1 H    1.037 --   159 C    0.998
   180   1 H    1.035 --   160 C    0.999
   181   6 C    3.830 --   215 C    1.285   182 C    1.283   114 C    1.221
   182   6 C    3.903 --   181 C    1.283   183 C    1.273   186 N    1.252
   183   6 C    3.811 --   184 C    1.577   182 C    1.273   217 H    0.998
   184   6 C    3.814 --   183 C    1.577   185 C    1.264   218 H    0.997
   185   6 C    3.887 --   187 C    1.335   184 C    1.264   186 N    1.225
   186   7 N    3.246 --   182 C    1.252   185 C    1.225   219 H    0.961
   187   6 C    3.829 --   194 C    1.371   185 C    1.335   188 C    1.056
   188   6 C    3.906 --   189 C    1.424   193 C    1.424   187 C    1.056
   189   6 C    3.867 --   190 C    1.448   188 C    1.424   220 H    0.988
                           192 C    0.101
   190   6 C    3.999 --   191 N    1.479   189 C    1.448   221 H    0.983
                           193 C    0.101
   191   7 N    2.939 --   192 C    1.479   190 C    1.479
   192   6 C    3.999 --   191 N    1.479   193 C    1.447   222 H    0.983
                           189 C    0.101
   193   6 C    3.863 --   192 C    1.447   188 C    1.424   223 H    0.987
                           190 C    0.101
   194   6 C    3.924 --   187 C    1.371   197 N    1.354   195 C    1.162
   195   6 C    3.831 --   196 C    1.690   194 C    1.162   224 H    0.998
   196   6 C    3.828 --   195 C    1.690   198 C    1.170   225 H    0.998
   197   7 N    2.546 --   198 C    1.418   194 C    1.354
   198   6 C    3.942 --   197 N    1.418   199 C    1.284   196 C    1.170
   199   6 C    3.831 --   198 C    1.284   200 C    1.283   115 C    1.223
   200   6 C    3.903 --   199 C    1.283   201 C    1.273   204 N    1.252
   201   6 C    3.812 --   202 C    1.578   200 C    1.273   226 H    0.998
   202   6 C    3.814 --   201 C    1.578   203 C    1.264   227 H    0.997
   203   6 C    3.887 --   205 C    1.334   202 C    1.264   204 N    1.226
   204   7 N    3.247 --   200 C    1.252   203 C    1.226   228 H    0.962
   205   6 C    3.829 --   212 C    1.372   203 C    1.334   206 C    1.055
   206   6 C    3.906 --   207 C    1.424   211 C    1.424   205 C    1.055
   207   6 C    3.867 --   208 C    1.448   206 C    1.424   229 H    0.988
                           210 C    0.101
   208   6 C    3.999 --   209 N    1.479   207 C    1.448   230 H    0.983
                           211 C    0.101
   209   7 N    2.940 --   210 C    1.479   208 C    1.479
   210   6 C    3.999 --   209 N    1.479   211 C    1.448   231 H    0.983
                           207 C    0.101
   211   6 C    3.863 --   210 C    1.448   206 C    1.424   232 H    0.987
                           208 C    0.101
   212   6 C    3.924 --   205 C    1.372   216 N    1.353   213 C    1.162
   213   6 C    3.832 --   214 C    1.690   212 C    1.162   233 H    0.998
   214   6 C    3.828 --   213 C    1.690   215 C    1.169   234 H    0.999
   215   6 C    3.942 --   216 N    1.418   181 C    1.285   214 C    1.169
   216   7 N    2.546 --   215 C    1.418   212 C    1.353
   217   1 H    1.028 --   183 C    0.998
   218   1 H    1.031 --   184 C    0.997
   219   1 H    1.081 --   186 N    0.961
   220   1 H    1.052 --   189 C    0.988
   221   1 H    1.053 --   190 C    0.983
   222   1 H    1.054 --   192 C    0.983
   223   1 H    1.048 --   193 C    0.987
   224   1 H    1.036 --   195 C    0.998
   225   1 H    1.035 --   196 C    0.998
   226   1 H    1.028 --   201 C    0.998
   227   1 H    1.031 --   202 C    0.997
   228   1 H    1.081 --   204 N    0.962
   229   1 H    1.052 --   207 C    0.988
   230   1 H    1.053 --   208 C    0.983
   231   1 H    1.053 --   210 C    0.983
   232   1 H    1.048 --   211 C    0.987
   233   1 H    1.036 --   213 C    0.998
   234   1 H    1.035 --   214 C    0.999
   235   6 C    3.832 --   269 C    1.285   236 C    1.282   116 C    1.223
   236   6 C    3.903 --   235 C    1.282   237 C    1.274   240 N    1.252
   237   6 C    3.810 --   238 C    1.577   236 C    1.274   271 H    0.998
   238   6 C    3.812 --   237 C    1.577   239 C    1.264   272 H    0.997
   239   6 C    3.888 --   241 C    1.334   238 C    1.264   240 N    1.226
   240   7 N    3.247 --   236 C    1.252   239 C    1.226   273 H    0.961
   241   6 C    3.829 --   248 C    1.371   239 C    1.334   242 C    1.056
   242   6 C    3.906 --   243 C    1.424   247 C    1.424   241 C    1.056
   243   6 C    3.866 --   244 C    1.448   242 C    1.424   274 H    0.988
                           246 C    0.101
   244   6 C    3.999 --   245 N    1.479   243 C    1.448   275 H    0.983
                           247 C    0.101
   245   7 N    2.939 --   246 C    1.479   244 C    1.479
   246   6 C    3.999 --   245 N    1.479   247 C    1.448   276 H    0.983
                           243 C    0.101
   247   6 C    3.863 --   246 C    1.448   242 C    1.424   277 H    0.987
                           244 C    0.101
   248   6 C    3.924 --   241 C    1.371   251 N    1.354   249 C    1.162
   249   6 C    3.832 --   250 C    1.690   248 C    1.162   278 H    0.998
   250   6 C    3.828 --   249 C    1.690   252 C    1.169   279 H    0.998
   251   7 N    2.546 --   252 C    1.418   248 C    1.354
   252   6 C    3.942 --   251 N    1.418   253 C    1.284   250 C    1.169
   253   6 C    3.832 --   252 C    1.284   254 C    1.283   117 C    1.222
   254   6 C    3.903 --   253 C    1.283   255 C    1.273   258 N    1.252
   255   6 C    3.811 --   256 C    1.578   254 C    1.273   280 H    0.998
   256   6 C    3.813 --   255 C    1.578   257 C    1.263   281 H    0.997
   257   6 C    3.888 --   259 C    1.335   256 C    1.263   258 N    1.226
   258   7 N    3.247 --   254 C    1.252   257 C    1.226   282 H    0.961
   259   6 C    3.829 --   266 C    1.371   257 C    1.335   260 C    1.056
   260   6 C    3.906 --   261 C    1.424   265 C    1.424   259 C    1.056
   261   6 C    3.866 --   262 C    1.448   260 C    1.424   283 H    0.988
                           264 C    0.101
   262   6 C    3.999 --   263 N    1.479   261 C    1.448   284 H    0.983
                           265 C    0.101
   263   7 N    2.939 --   264 C    1.479   262 C    1.479
   264   6 C    3.999 --   263 N    1.479   265 C    1.448   285 H    0.982
                           261 C    0.101
   265   6 C    3.863 --   264 C    1.448   260 C    1.424   286 H    0.987
                           262 C    0.101
   266   6 C    3.924 --   259 C    1.371   270 N    1.354   267 C    1.162
   267   6 C    3.831 --   268 C    1.690   266 C    1.162   287 H    0.998
   268   6 C    3.828 --   267 C    1.690   269 C    1.170   288 H    0.998
   269   6 C    3.942 --   270 N    1.417   235 C    1.285   268 C    1.170
   270   7 N    2.546 --   269 C    1.417   266 C    1.354
   271   1 H    1.028 --   237 C    0.998
   272   1 H    1.031 --   238 C    0.997
   273   1 H    1.081 --   240 N    0.961
   274   1 H    1.052 --   243 C    0.988
   275   1 H    1.053 --   244 C    0.983
   276   1 H    1.053 --   246 C    0.983
   277   1 H    1.048 --   247 C    0.987
   278   1 H    1.035 --   249 C    0.998
   279   1 H    1.035 --   250 C    0.998
   280   1 H    1.028 --   255 C    0.998
   281   1 H    1.031 --   256 C    0.997
   282   1 H    1.081 --   258 N    0.961
   283   1 H    1.052 --   261 C    0.988
   284   1 H    1.053 --   262 C    0.983
   285   1 H    1.053 --   264 C    0.982
   286   1 H    1.048 --   265 C    0.987
   287   1 H    1.035 --   267 C    0.998
   288   1 H    1.035 --   268 C    0.998
   289   6 C    3.832 --   323 C    1.285   290 C    1.283   118 C    1.222
   290   6 C    3.903 --   289 C    1.283   291 C    1.273   294 N    1.252
   291   6 C    3.811 --   292 C    1.578   290 C    1.273   325 H    0.998
   292   6 C    3.813 --   291 C    1.578   293 C    1.263   326 H    0.997
   293   6 C    3.888 --   295 C    1.335   292 C    1.263   294 N    1.226
   294   7 N    3.247 --   290 C    1.252   293 C    1.226   327 H    0.961
   295   6 C    3.829 --   302 C    1.371   293 C    1.335   296 C    1.056
   296   6 C    3.906 --   297 C    1.424   301 C    1.423   295 C    1.056
   297   6 C    3.866 --   298 C    1.448   296 C    1.424   328 H    0.988
                           300 C    0.101
   298   6 C    3.999 --   299 N    1.479   297 C    1.448   329 H    0.983
                           301 C    0.101
   299   7 N    2.939 --   300 C    1.479   298 C    1.479
   300   6 C    3.999 --   299 N    1.479   301 C    1.448   330 H    0.983
                           297 C    0.101
   301   6 C    3.863 --   300 C    1.448   296 C    1.423   331 H    0.987
                           298 C    0.101
   302   6 C    3.924 --   295 C    1.371   305 N    1.354   303 C    1.162
   303   6 C    3.831 --   304 C    1.690   302 C    1.162   332 H    0.998
   304   6 C    3.828 --   303 C    1.690   306 C    1.170   333 H    0.998
   305   7 N    2.546 --   306 C    1.417   302 C    1.354
   306   6 C    3.942 --   305 N    1.417   307 C    1.285   304 C    1.170
   307   6 C    3.832 --   306 C    1.285   308 C    1.283   119 C    1.222
   308   6 C    3.903 --   307 C    1.283   309 C    1.273   312 N    1.252
   309   6 C    3.811 --   310 C    1.578   308 C    1.273   334 H    0.998
   310   6 C    3.813 --   309 C    1.578   311 C    1.264   335 H    0.997
   311   6 C    3.888 --   313 C    1.335   310 C    1.264   312 N    1.226
   312   7 N    3.247 --   308 C    1.252   311 C    1.226   336 H    0.961
   313   6 C    3.829 --   320 C    1.371   311 C    1.335   314 C    1.056
   314   6 C    3.906 --   315 C    1.424   319 C    1.423   313 C    1.056
   315   6 C    3.866 --   316 C    1.448   314 C    1.424   337 H    0.988
                           318 C    0.101
   316   6 C    3.999 --   317 N    1.479   315 C    1.448   338 H    0.983
                           319 C    0.101
   317   7 N    2.939 --   318 C    1.479   316 C    1.479
   318   6 C    3.999 --   317 N    1.479   319 C    1.448   339 H    0.982
                           315 C    0.101
   319   6 C    3.863 --   318 C    1.448   314 C    1.423   340 H    0.987
                           316 C    0.101
   320   6 C    3.924 --   313 C    1.371   324 N    1.354   321 C    1.162
   321   6 C    3.831 --   322 C    1.690   320 C    1.162   341 H    0.998
   322   6 C    3.828 --   321 C    1.690   323 C    1.170   342 H    0.998
   323   6 C    3.942 --   324 N    1.418   289 C    1.285   322 C    1.170
   324   7 N    2.546 --   323 C    1.418   320 C    1.354
   325   1 H    1.028 --   291 C    0.998
   326   1 H    1.031 --   292 C    0.997
   327   1 H    1.081 --   294 N    0.961
   328   1 H    1.052 --   297 C    0.988
   329   1 H    1.053 --   298 C    0.983
   330   1 H    1.053 --   300 C    0.983
   331   1 H    1.048 --   301 C    0.987
   332   1 H    1.035 --   303 C    0.998
   333   1 H    1.035 --   304 C    0.998
   334   1 H    1.028 --   309 C    0.998
   335   1 H    1.031 --   310 C    0.997
   336   1 H    1.081 --   312 N    0.961
   337   1 H    1.052 --   315 C    0.988
   338   1 H    1.053 --   316 C    0.983
   339   1 H    1.053 --   318 C    0.982
   340   1 H    1.048 --   319 C    0.987
   341   1 H    1.035 --   321 C    0.998
   342   1 H    1.035 --   322 C    0.998
   343   6 C    3.832 --   377 C    1.284   344 C    1.283   120 C    1.222
   344   6 C    3.903 --   343 C    1.283   345 C    1.273   348 N    1.252
   345   6 C    3.811 --   346 C    1.578   344 C    1.273   379 H    0.998
   346   6 C    3.813 --   345 C    1.578   347 C    1.263   380 H    0.997
   347   6 C    3.888 --   349 C    1.335   346 C    1.263   348 N    1.226
   348   7 N    3.247 --   344 C    1.252   347 C    1.226   381 H    0.961
   349   6 C    3.829 --   356 C    1.371   347 C    1.335   350 C    1.056
   350   6 C    3.906 --   351 C    1.424   355 C    1.424   349 C    1.056
   351   6 C    3.866 --   352 C    1.448   350 C    1.424   382 H    0.988
                           354 C    0.101
   352   6 C    3.999 --   353 N    1.479   351 C    1.448   383 H    0.983
                           355 C    0.101
   353   7 N    2.939 --   354 C    1.479   352 C    1.479
   354   6 C    3.999 --   353 N    1.479   355 C    1.448   384 H    0.983
                           351 C    0.101
   355   6 C    3.863 --   354 C    1.448   350 C    1.424   385 H    0.987
                           352 C    0.101
   356   6 C    3.924 --   349 C    1.371   359 N    1.354   357 C    1.162
   357   6 C    3.831 --   358 C    1.690   356 C    1.162   386 H    0.998
   358   6 C    3.828 --   357 C    1.690   360 C    1.170   387 H    0.998
   359   7 N    2.546 --   360 C    1.417   356 C    1.354
   360   6 C    3.942 --   359 N    1.417   361 C    1.284   358 C    1.170
   361   6 C    3.831 --   360 C    1.284   362 C    1.282   121 C    1.223
   362   6 C    3.902 --   361 C    1.282   363 C    1.274   366 N    1.252
   363   6 C    3.810 --   364 C    1.577   362 C    1.274   388 H    0.998
   364   6 C    3.812 --   363 C    1.577   365 C    1.264   389 H    0.997
   365   6 C    3.888 --   367 C    1.334   364 C    1.264   366 N    1.226
   366   7 N    3.247 --   362 C    1.252   365 C    1.226   390 H    0.961
   367   6 C    3.829 --   374 C    1.371   365 C    1.334   368 C    1.056
   368   6 C    3.906 --   369 C    1.424   373 C    1.423   367 C    1.056
   369   6 C    3.866 --   370 C    1.448   368 C    1.424   391 H    0.988
                           372 C    0.101
   370   6 C    3.999 --   371 N    1.479   369 C    1.448   392 H    0.983
                           373 C    0.101
   371   7 N    2.939 --   372 C    1.479   370 C    1.479
   372   6 C    3.999 --   371 N    1.479   373 C    1.448   393 H    0.983
                           369 C    0.101
   373   6 C    3.863 --   372 C    1.448   368 C    1.423   394 H    0.987
                           370 C    0.101
   374   6 C    3.924 --   367 C    1.371   378 N    1.354   375 C    1.162
   375   6 C    3.831 --   376 C    1.690   374 C    1.162   395 H    0.998
   376   6 C    3.828 --   375 C    1.690   377 C    1.169   396 H    0.998
   377   6 C    3.942 --   378 N    1.418   343 C    1.284   376 C    1.169
   378   7 N    2.546 --   377 C    1.418   374 C    1.354
   379   1 H    1.028 --   345 C    0.998
   380   1 H    1.031 --   346 C    0.997
   381   1 H    1.081 --   348 N    0.961
   382   1 H    1.052 --   351 C    0.988
   383   1 H    1.053 --   352 C    0.983
   384   1 H    1.053 --   354 C    0.983
   385   1 H    1.048 --   355 C    0.987
   386   1 H    1.035 --   357 C    0.998
   387   1 H    1.035 --   358 C    0.998
   388   1 H    1.029 --   363 C    0.998
   389   1 H    1.031 --   364 C    0.997
   390   1 H    1.081 --   366 N    0.961
   391   1 H    1.052 --   369 C    0.988
   392   1 H    1.053 --   370 C    0.983
   393   1 H    1.053 --   372 C    0.983
   394   1 H    1.048 --   373 C    0.987
   395   1 H    1.035 --   375 C    0.998
   396   1 H    1.035 --   376 C    0.998
   397   6 C    3.831 --   431 C    1.284   398 C    1.283   122 C    1.223
   398   6 C    3.903 --   397 C    1.283   399 C    1.273   402 N    1.252
   399   6 C    3.812 --   400 C    1.578   398 C    1.273   433 H    0.998
   400   6 C    3.812 --   399 C    1.578   401 C    1.264   434 H    0.997
   401   6 C    3.887 --   403 C    1.334   400 C    1.264   402 N    1.226
   402   7 N    3.247 --   398 C    1.252   401 C    1.226   435 H    0.962
   403   6 C    3.829 --   410 C    1.372   401 C    1.334   404 C    1.056
   404   6 C    3.906 --   405 C    1.424   409 C    1.424   403 C    1.056
   405   6 C    3.867 --   406 C    1.448   404 C    1.424   436 H    0.988
                           408 C    0.101
   406   6 C    3.999 --   407 N    1.479   405 C    1.448   437 H    0.983
                           409 C    0.101
   407   7 N    2.939 --   408 C    1.479   406 C    1.479
   408   6 C    3.999 --   407 N    1.479   409 C    1.448   438 H    0.983
                           405 C    0.101
   409   6 C    3.863 --   408 C    1.448   404 C    1.424   439 H    0.987
                           406 C    0.101
   410   6 C    3.924 --   403 C    1.372   413 N    1.353   411 C    1.162
   411   6 C    3.832 --   412 C    1.690   410 C    1.162   440 H    0.998
   412   6 C    3.828 --   411 C    1.690   414 C    1.169   441 H    0.998
   413   7 N    2.545 --   414 C    1.418   410 C    1.353
   414   6 C    3.942 --   413 N    1.418   415 C    1.285   412 C    1.169
   415   6 C    3.830 --   414 C    1.285   416 C    1.283   123 C    1.220
   416   6 C    3.903 --   415 C    1.283   417 C    1.273   420 N    1.252
   417   6 C    3.811 --   418 C    1.578   416 C    1.273   442 H    0.998
   418   6 C    3.814 --   417 C    1.578   419 C    1.263   443 H    0.997
   419   6 C    3.887 --   421 C    1.335   418 C    1.263   420 N    1.225
   420   7 N    3.246 --   416 C    1.252   419 C    1.225   444 H    0.961
   421   6 C    3.829 --   428 C    1.371   419 C    1.335   422 C    1.056
   422   6 C    3.906 --   423 C    1.424   427 C    1.424   421 C    1.056
   423   6 C    3.867 --   424 C    1.448   422 C    1.424   445 H    0.988
                           426 C    0.101
   424   6 C    3.999 --   425 N    1.479   423 C    1.448   446 H    0.983
                           427 C    0.101
   425   7 N    2.939 --   426 C    1.479   424 C    1.479
   426   6 C    3.999 --   425 N    1.479   427 C    1.448   447 H    0.983
                           423 C    0.101
   427   6 C    3.863 --   426 C    1.448   422 C    1.424   448 H    0.987
                           424 C    0.101
   428   6 C    3.924 --   421 C    1.371   432 N    1.353   429 C    1.162
   429   6 C    3.831 --   430 C    1.690   428 C    1.162   449 H    0.998
   430   6 C    3.827 --   429 C    1.690   431 C    1.170   450 H    0.998
   431   6 C    3.942 --   432 N    1.418   397 C    1.284   430 C    1.170
   432   7 N    2.546 --   431 C    1.418   428 C    1.353
   433   1 H    1.028 --   399 C    0.998
   434   1 H    1.031 --   400 C    0.997
   435   1 H    1.081 --   402 N    0.962
   436   1 H    1.052 --   405 C    0.988
   437   1 H    1.053 --   406 C    0.983
   438   1 H    1.053 --   408 C    0.983
   439   1 H    1.048 --   409 C    0.987
   440   1 H    1.035 --   411 C    0.998
   441   1 H    1.035 --   412 C    0.998
   442   1 H    1.028 --   417 C    0.998
   443   1 H    1.031 --   418 C    0.997
   444   1 H    1.081 --   420 N    0.961
   445   1 H    1.052 --   423 C    0.988
   446   1 H    1.053 --   424 C    0.983
   447   1 H    1.054 --   426 C    0.983
   448   1 H    1.048 --   427 C    0.987
   449   1 H    1.036 --   429 C    0.998
   450   1 H    1.035 --   430 C    0.998
   451   6 C    3.833 --   485 C    1.286   452 C    1.285   124 C    1.220
   452   6 C    3.902 --   451 C    1.285   453 C    1.272   456 N    1.251
   453   6 C    3.812 --   454 C    1.579   452 C    1.272   487 H    0.998
   454   6 C    3.813 --   453 C    1.579   455 C    1.262   488 H    0.997
   455   6 C    3.887 --   457 C    1.335   454 C    1.262   456 N    1.226
   456   7 N    3.249 --   452 C    1.251   455 C    1.226   489 H    0.961
   457   6 C    3.829 --   464 C    1.374   455 C    1.335   458 C    1.051
   458   6 C    3.906 --   459 C    1.426   463 C    1.425   457 C    1.051
   459   6 C    3.868 --   460 C    1.447   458 C    1.426   490 H    0.988
                           462 C    0.101
   460   6 C    3.999 --   461 N    1.479   459 C    1.447   491 H    0.983
                           463 C    0.101
   461   7 N    2.940 --   462 C    1.479   460 C    1.479
   462   6 C    3.999 --   461 N    1.479   463 C    1.447   492 H    0.982
                           459 C    0.101
   463   6 C    3.864 --   462 C    1.447   458 C    1.425   493 H    0.987
                           460 C    0.101
   464   6 C    3.925 --   457 C    1.374   467 N    1.355   465 C    1.159
   465   6 C    3.834 --   466 C    1.695   464 C    1.159   494 H    0.998
   466   6 C    3.832 --   465 C    1.695   468 C    1.166   495 H    0.999
   467   7 N    2.548 --   468 C    1.413   464 C    1.355
   468   6 C    3.946 --   467 N    1.413   469 C    1.294   466 C    1.166
   469   6 C    3.830 --   468 C    1.294   470 C    1.290   125 C    1.204
   470   6 C    3.907 --   469 C    1.290   471 C    1.269   474 N    1.251
   471   6 C    3.811 --   472 C    1.581   470 C    1.269   496 H    0.998
   472   6 C    3.816 --   471 C    1.581   473 C    1.261   497 H    0.997
   473   6 C    3.887 --   475 C    1.339   472 C    1.261   474 N    1.224
   474   7 N    3.247 --   470 C    1.251   473 C    1.224   498 H    0.961
   475   6 C    3.831 --   482 C    1.371   473 C    1.339   476 C    1.051
   476   6 C    3.906 --   481 C    1.426   477 C    1.426   475 C    1.051
   477   6 C    3.869 --   478 C    1.447   476 C    1.426   499 H    0.987
                           480 C    0.101
   478   6 C    3.999 --   479 N    1.479   477 C    1.447   500 H    0.983
                           481 C    0.101
   479   7 N    2.940 --   480 C    1.480   478 C    1.479
   480   6 C    3.999 --   479 N    1.480   481 C    1.447   501 H    0.983
                           477 C    0.101
   481   6 C    3.864 --   480 C    1.447   476 C    1.426   502 H    0.988
                           478 C    0.101
   482   6 C    3.924 --   475 C    1.371   486 N    1.355   483 C    1.161
   483   6 C    3.832 --   484 C    1.691   482 C    1.161   503 H    0.998
   484   6 C    3.830 --   483 C    1.691   485 C    1.169   504 H    0.999
   485   6 C    3.943 --   486 N    1.417   451 C    1.286   484 C    1.169
   486   7 N    2.550 --   485 C    1.417   482 C    1.355
   487   1 H    1.030 --   453 C    0.998
   488   1 H    1.030 --   454 C    0.997
   489   1 H    1.081 --   456 N    0.961
   490   1 H    1.052 --   459 C    0.988
   491   1 H    1.054 --   460 C    0.983
   492   1 H    1.053 --   462 C    0.982
   493   1 H    1.048 --   463 C    0.987
   494   1 H    1.035 --   465 C    0.998
   495   1 H    1.034 --   466 C    0.999
   496   1 H    1.028 --   471 C    0.998
   497   1 H    1.030 --   472 C    0.997
   498   1 H    1.081 --   474 N    0.961
   499   1 H    1.052 --   477 C    0.987
   500   1 H    1.053 --   478 C    0.983
   501   1 H    1.054 --   480 C    0.983
   502   1 H    1.049 --   481 C    0.988
   503   1 H    1.036 --   483 C    0.998
   504   1 H    1.034 --   484 C    0.999
 ---------------------------------------------------------------------------

Topologies differ in total number of bonds
Writing topology from bond orders to xtbtopo.mol

 dipole moment from electron density (au)
     X       Y       Z   
-301.4749  -0.2319  -0.9156  total (Debye):  766.277


           -------------------------------------------------
          | TOTAL ENERGY             -988.059855067367 Eh   |
          | GRADIENT NORM               0.129236893129 Eh/α |
          | HOMO-LUMO GAP               0.065683272147 eV   |
           -------------------------------------------------
########################################################################
[WARNING] Runtime exception occurred
-1- restart_readRestart: Dimension missmatch in restart file.
########################################################################

------------------------------------------------------------------------
 * finished run on 2022/07/27 at 04:48:21.548     
------------------------------------------------------------------------
 total:
 * wall-time:     0 d,  0 h,  1 min, 51.946 sec
 *  cpu-time:     0 d,  0 h,  1 min, 51.449 sec
 * ratio c/w:     0.996 speedup
 SCF:
 * wall-time:     0 d,  0 h,  1 min, 50.460 sec
 *  cpu-time:     0 d,  0 h,  1 min, 49.971 sec
 * ratio c/w:     0.996 speedup

