252
 energy: -501.080132955373 gnorm: 0.000563498035 xtb: 6.5.1 (b24c23e)
Co          53.94820208027005       -0.04199493650764        0.37260451124799
C           50.88968711650181       -0.01764084096465        1.71268341810109
C           51.41692978337733        1.18503345047101        1.28635712566234
C           50.71525298245879        2.43147883379840        1.32937637046056
C           51.50832219737880        3.34561445085473        0.72089449183358
C           52.71996633693424        2.66930496796099        0.35864053753595
N           52.63839607711663        1.34151843892231        0.68411213908064
C           53.87577365661576        3.32446829029642       -0.05185852472866
C           53.79706819905231        4.77626168593315       -0.34396196736977
C           53.04497584175322        5.21324703816725       -1.43425029948900
C           52.96202218133703        6.56996150307967       -1.72459551930879
O           52.24275955940605        7.00565987527683       -2.78719842629764
C           53.62281750064277        7.49524091171531       -0.91459599656157
O           53.51980974748385        8.82651031376713       -1.22202209573433
C           54.36140927679072        7.05874800052792        0.18214986919741
O           54.97159616733109        8.02634734535517        0.93658905935361
C           54.45405676955758        5.70238070832069        0.46983310697091
C           55.10353177005958        2.67770699710693       -0.08110870276416
C           56.36854972988779        3.33205850733433       -0.22695524045959
C           57.32229092429089        2.37909514975201       -0.08511640297568
N           55.28746595491513        1.32448916714052        0.08493705295164
C           56.63859328898299        1.13340644935273        0.06893244939431
C           57.28117132277028       -0.10651195187534       -0.03041237210937
C           56.56003487429889       -1.28551776918198       -0.25545473023223
C           57.14877830161865       -2.49419869748708       -0.73809756530848
C           56.13556988551248       -3.37402688678266       -0.92800394196464
C           54.93775813576204       -2.72661810152809       -0.48204543128240
N           55.20975005580224       -1.42240493754875       -0.12931112604543
C           53.72619920964497       -3.36802071757484       -0.27434590414888
C           53.56372551342641       -4.79313430392279       -0.64498815906165
C           54.38644114288980       -5.77629922967940       -0.09510442881542
C           54.20849889738891       -7.10949549163563       -0.44616376464088
O           54.99737653921019       -8.07393483243604        0.08748497169608
C           53.20829393776140       -7.46302996613664       -1.35320487055268
O           53.05838276390570       -8.78464735461472       -1.68199231071917
C           52.38334002721709       -6.48170911020782       -1.89758503393781
O           51.42210029005234       -6.90558203348528       -2.77704222290005
C           52.55288728040632       -5.14975157784783       -1.54237900970889
C           52.67355913885785       -2.73476102732686        0.38240205534371
C           51.53368449574010       -3.41841624033139        0.91890931365322
C           50.79300872047532       -2.49318756765407        1.57598321589512
C           51.45341524686341       -1.23627743178994        1.39585137080581
N           52.62092504479384       -1.40470679151408        0.69328781792327
H           49.93201932839450       -0.00954537407397        2.21998240809287
H           49.73306131324351        2.56627299216540        1.75347889194435
H           51.31933087472732        4.39472424670788        0.56019292912110
H           52.53503111793898        4.50197673724433       -2.07104939313631
H           52.30572718434197        7.97445288242683       -2.82214719313635
H           54.02645589724374        9.32596526388997       -0.56196816920190
H           55.44673495638085        7.63395835502239        1.68080274135693
H           55.01305762810863        5.37285624001215        1.33760875996488
H           56.50467999514644        4.38642744699435       -0.40430028303650
H           58.39364731490343        2.49013517189471       -0.13254402128911
H           58.19969000537944       -2.62734845008980       -0.93755825366645
H           56.19045969535261       -4.37844840468141       -1.31439942532537
H           55.14918177974737       -5.51877474318290        0.62816981157785
H           54.71674821517190       -8.93137875766254       -0.27257493814949
H           52.32246237838567       -8.85419107045151       -2.31086865756675
H           50.89888585400190       -6.16017718975661       -3.09982871754440
H           51.91286403030243       -4.38932998853366       -1.97427453695463
H           51.35123501416766       -4.47681059690384        0.82459733703955
H           49.86688441937143       -2.62686836735944        2.11222238271796
Co          86.21106284451710       -0.07031488172192        0.45918038050520
C           89.18586594170463       -0.23555292351343        1.94747865828271
C           88.63268080523567       -1.40995677015068        1.47776910639072
C           89.27891246179577       -2.68490986100171        1.54557794319584
C           88.52065445095499       -3.54400370299573        0.82245247153708
C           87.37956775980447       -2.80721136986087        0.36351629761346
N           87.46752219733162       -1.50073644787783        0.75957949422262
C           86.26608954320386       -3.39395496869958       -0.23204054255992
C           86.35216205522184       -4.81832699725272       -0.63136609690297
C           87.25756855260492       -5.19578296019432       -1.62355220208673
C           87.35258174775251       -6.52709554755707       -2.01098339033306
O           88.22168099556407       -6.90357091473746       -2.98004429229906
C           86.54834388980026       -7.48865784213961       -1.39645212588032
O           86.66632707288595       -8.79389475152612       -1.79511912268340
C           85.65542675558515       -7.11343044538693       -0.39589492583281
O           84.90998815787408       -8.11439603048944        0.16922820641541
C           85.55269087061752       -5.78223116663044       -0.01136361025757
C           85.06208441918641       -2.71189790773092       -0.33734036060208
C           83.80652449869088       -3.31477630705832       -0.67062397005102
C           82.85284260104366       -2.37267467151147       -0.46817765150977
N           84.87819073805811       -1.38417274054898       -0.02267266729543
C           83.53350560751001       -1.17258603232038       -0.09571830912733
C           82.90177892625879        0.07655030780209       -0.03035039553813
C           83.63635231920252        1.26757586363441       -0.08861030417508
C           83.06346780755651        2.53131499668477       -0.42863627470232
C           84.09201144762065        3.40471040771625       -0.55681652868001
C           85.28491089497196        2.69168905966969       -0.20978735032388
N           84.99042895773209        1.36776590816192        0.03003067021312
C           86.52488893206758        3.27874443120386       -0.00675129959285
C           86.72414627771221        4.71736127469878       -0.30174162984144
C           85.97752672370653        5.69341390940739        0.35788969599168
C           86.18706467168876        7.03860903338791        0.07657003842951
O           85.47311449004948        7.99516874055073        0.71797481935800
C           87.14116769460215        7.41067140019484       -0.87198004403292
O           87.32278442333030        8.74331478134885       -1.13089252056755
C           87.88954526733733        6.43527674648200       -1.52672088243216
O           88.80865645362321        6.87724195592970       -2.44127558856041
C           87.69044325939515        5.09076833006696       -1.23979131711940
C           87.56852973834441        2.57743414756341        0.59193432893695
C           88.73505081111657        3.19862389676063        1.14698949390742
C           89.41959985642771        2.23229798332209        1.80585150316239
C           88.70247731267783        1.01063080456005        1.60297199449244
N           87.56256267729937        1.23961315397694        0.87420574930021
H           90.11113746513072       -0.29115451007860        2.50914405013746
H           90.20740541821191       -2.87411450155184        2.06046799371251
H           88.68849981550105       -4.59304181004835        0.63959612704221
H           87.87904116688576       -4.45588058790364       -2.11118565375397
H           88.13991570812233       -7.86315033688891       -3.10766843792199
H           86.04254181528160       -9.32340487490411       -1.27317843079437
H           84.31480202757038       -7.76152116139668        0.84362063572135
H           84.87417830158034       -5.50389910109435        0.78622314591769
H           83.67428319279067       -4.33126722630072       -1.00325938941766
H           81.78715208922057       -2.45655225143714       -0.60797294677281
H           82.01170778065260        2.70440088232424       -0.58924284123626
H           84.05076182208172        4.44382500031908       -0.83913946354984
H           85.25090204658011        5.41918623231725        1.11155553855509
H           85.76092902557551        8.86323093288629        0.39024821504569
H           88.01659475353091        8.82578784239235       -1.80445418703965
H           89.27367886535012        6.13443868775704       -2.84816131202779
H           88.27155280099687        4.33555711941152       -1.75572898683439
H           88.96893709872887        4.24801506216146        1.06667078942095
H           90.34174543232480        2.31649842554281        2.35867206607031
C           58.68403335730329       -0.14316841152357       -0.03693045948925
C           59.90186818143885       -0.16113441412140       -0.01273827942005
C           69.48523612201852       -0.00458219619987        0.09105183431961
C           70.70348801819877        0.01580271840766        0.08392360594541
C           80.28252007106069        0.14319999098367       -0.02670369611151
C           81.50072926032743        0.12629669155209       -0.05041512811904
Co          64.69444248058703       -0.09678578695432        0.08901655285478
C           61.30472500091237       -0.15194748875497        0.02217238628769
C           61.95809213520264        0.94027429053910        0.60457929030514
C           61.28523186364180        2.02428100221407        1.24500802594276
C           62.22401737535812        2.97117497787144        1.49511018804862
C           63.46390932149799        2.46487822969631        0.99082692996105
N           63.29861347409967        1.18490723878096        0.51560939218801
C           64.62652193779658        3.21435860690829        0.85682468351824
C           64.59832588558700        4.65420333985981        1.19292313023901
C           65.48579749554577        5.17563567660110        2.13606004715369
C           65.46785780780182        6.52743583464706        2.46672055225435
O           66.31787934831095        7.04397764913126        3.39148419513800
C           64.55768708998588        7.38366455222555        1.83743455215725
O           64.52030946439440        8.70816925145247        2.13278900172510
C           63.67693296542505        6.85568591454448        0.88921101132999
O           62.81564044133087        7.74894870777697        0.30568642574901
C           63.68450953821753        5.50609579879744        0.56808962309221
C           65.81292255747994        2.64925002435441        0.40631066356532
C           67.02076456458045        3.37795294628295        0.16442980894666
C           67.99461550811056        2.45872722743324       -0.05137590368679
N           66.03293998555765        1.29931375924716        0.26186444482452
C           67.37663055312329        1.17589968328599        0.05304645343667
C           68.08346831734255       -0.03094997730982        0.09798403732768
C           67.42513603079443       -1.26411098011936        0.15887538145809
C           68.09235063866029       -2.51981982094474        0.29245469284337
C           67.15376533273533       -3.48045128131080        0.10646126217435
C           65.91901592876061       -2.80430457216385       -0.15424968140984
N           66.08688837755744       -1.44330138783912       -0.04174471979213
C           64.76262391685739       -3.42120513588447       -0.61131541297606
C           64.78715805638065       -4.87067553943838       -0.91211337066504
C           65.70303853490917       -5.37786480862592       -1.83545424596812
C           65.71137046629714       -6.73609559219938       -2.12898287968214
O           66.58149754833423       -7.23946086325206       -3.03613765772080
C           64.80918899653473       -7.59067040910372       -1.49161214749303
O           64.85489734413400       -8.93956129604613       -1.81147675979633
C           63.92072068002432       -7.09156987341434       -0.54090487078909
O           63.06108835005021       -7.92607750385682        0.11034968792035
C           63.89640406212666       -5.72902581371432       -0.26612306238322
C           63.58121972125610       -2.71445231970095       -0.80032257933065
C           62.37886337651866       -3.27242477189131       -1.34021379476637
C           61.40430027999129       -2.34721252788595       -1.15888691733414
C           62.01591067678212       -1.22797631438487       -0.51723412737632
N           63.35879300777865       -1.42963203676819       -0.36519935450643
H           60.23103093642894        2.04662320557563        1.46949153824398
H           62.09613768341664        3.92707598192266        1.97651892176310
H           66.18543548872532        4.51882073788020        2.64058609119922
H           66.89246051997944        6.35964518246723        3.75912270812719
H           63.82907185730016        9.12125208393592        1.59046951870443
H           62.25194906780197        7.30905253077735       -0.34387492862461
H           63.00194511919392        5.12483017575105       -0.18224561297504
H           67.10412377599069        4.45261040962727        0.15991523444038
H           69.03993651016484        2.62174291561496       -0.25854565233058
H           69.14347680544579       -2.63720973053000        0.50064126548259
H           67.27751199100717       -4.55063030255478        0.13778973062060
H           66.39016555799681       -4.72025169227104       -2.35192826336836
H           66.43101095660508       -8.19731603111850       -3.10353591427565
H           63.96331773293028       -9.30311972323105       -1.89126977635687
H           63.35775933559981       -8.84379863235669        0.03386315277295
H           63.20249575167337       -5.35239811304192        0.47411332669395
H           62.29956627407690       -4.24616711054269       -1.79538136427997
H           60.36130426188123       -2.40751742335481       -1.42422920044466
Co          75.49327818758226        0.08774403212069        0.06233247305967
C           72.10527583876539        0.03717966617098        0.07891965946042
C           72.77131304121492        1.23484859225869        0.36369160985739
C           72.11401619134723        2.44628681905890        0.73555507088134
C           73.05763719961780        3.42086162518228        0.72107874026358
C           74.28486102014011        2.79973459457422        0.32552325925539
N           74.10860116637396        1.44273914857288        0.18525623692895
C           75.44250439834984        3.48552975005811       -0.02101872220231
C           75.42261479671926        4.96337322237741       -0.05610178545099
C           76.34021382910377        5.69873667841862        0.69672802647675
C           76.33202696589592        7.09028164598584        0.67707696686849
O           77.21056536024608        7.81673839218201        1.41463368898887
C           75.40097628908782        7.76735725444908       -0.11834121105179
O           75.37284249282968        9.12328792245258       -0.16526190203797
C           74.48954892639742        7.02441050901506       -0.87429475308054
O           73.61017681056578        7.74898547653940       -1.63625977191255
C           74.48739783294148        5.63743366279210       -0.84516217824759
C           76.61829888045337        2.81769220041962       -0.34269136893387
C           77.82103313435678        3.45444967748207       -0.78542033609068
C           78.79095339872863        2.50626664845963       -0.77476283872080
N           76.83532682048715        1.47477344980913       -0.14258761538431
C           78.17538624922074        1.29554224538201       -0.33595771038645
C           78.88069019964993        0.13602434192771        0.00346620960876
C           78.22074714563716       -1.03878167661133        0.38228312159545
C           78.88726568322342       -2.22482388193080        0.81614523409452
C           77.94415943225818       -3.19690300309515        0.88721232994697
C           76.70761444006153       -2.60112544300125        0.48128463896452
N           76.87949503514420       -1.25611610166688        0.24946878685372
C           75.54347750754546       -3.30669942804566        0.20496304279573
C           75.56042697453455       -4.78530985882630        0.27263053379457
C           76.47202011279501       -5.51087730138933       -0.49633695745961
C           76.47319429430789       -6.89954254444421       -0.44366479049255
O           77.34112446732131       -7.61656679009185       -1.19585112605354
C           75.56636631477247       -7.56444227594506        0.38449298576552
O           75.60362373239298       -8.95101446825942        0.41024664754704
C           74.68181561154753       -6.84033547884858        1.18181902414208
O           73.81898782824460       -7.48403575551667        2.01895199217012
C           74.66614280199421       -5.45212584237649        1.11158949387837
C           74.36174346083774       -2.66209370464287       -0.13829033237325
C           73.14976340140197       -3.32642936509223       -0.51071062362875
C           72.18026561251753       -2.37880779019047       -0.54544199634305
C           72.80493097174342       -1.14153270993964       -0.20160518622658
N           74.14880308159049       -1.30825705639359       -0.02585060245199
H           71.06582327712198        2.52808109956795        0.97381772281117
H           72.94121759229047        4.46639948852453        0.95580763919128
H           77.05608486461375        5.18474478363297        1.32818225704982
H           77.80236546426013        7.24351568550812        1.91946095961166
H           74.66057928199677        9.39243165208131       -0.76770265804324
H           73.01676172657088        7.16566631498781       -2.12696441762697
H           73.78129079493961        5.08475741449963       -1.45360867464190
H           77.90421845496377        4.49138153719225       -1.06743355445042
H           79.83256422212122        2.60670189210567       -1.03337194648338
H           79.94103922550443       -2.29268517341600        1.03317942908936
H           78.06677302084795       -4.22596163485081        1.18322888995288
H           77.16145259840391       -5.00588124398127       -1.16041709389959
H           77.18468517351768       -8.56056632146456       -1.02504124804557
H           74.70999186763414       -9.31815703445367        0.39999796170427
H           74.10975569388117       -8.39533238156879        2.16506232984315
H           73.97631313159968       -4.89993395825591        1.73653836107636
H           73.06082099649200       -4.38070466079835       -0.71628507573052
H           71.13375109144013       -2.49497538171223       -0.77626229676541
