      -----------------------------------------------------------      
     |                   =====================                   |     
     |                           x T B                           |     
     |                   =====================                   |     
     |                         S. Grimme                         |     
     |          Mulliken Center for Theoretical Chemistry        |     
     |                    University of Bonn                     |     
      -----------------------------------------------------------      

   * xtb version 6.5.1 (b24c23e) compiled by 'conda@728c89f4b128' on 2022-07-12

   xtb is free software: you can redistribute it and/or modify it under
   the terms of the GNU Lesser General Public License as published by
   the Free Software Foundation, either version 3 of the License, or
   (at your option) any later version.
   
   xtb is distributed in the hope that it will be useful,
   but WITHOUT ANY WARRANTY; without even the implied warranty of
   MERCHANTABILITY or FITNESS FOR A PARTICULAR PURPOSE.  See the
   GNU Lesser General Public License for more details.
   
   Cite this work as:
   * C. Bannwarth, E. Caldeweyher, S. Ehlert, A. Hansen, P. Pracht,
     J. Seibert, S. Spicher, S. Grimme, WIREs Comput. Mol. Sci., 2020, 11,
     e01493. DOI: 10.1002/wcms.1493
   
   for GFN2-xTB:
   * C. Bannwarth, S. Ehlert and S. Grimme., J. Chem. Theory Comput., 2019,
     15, 1652-1671. DOI: 10.1021/acs.jctc.8b01176
   for GFN1-xTB:
   * S. Grimme, C. Bannwarth, P. Shushkov, J. Chem. Theory Comput., 2017,
     13, 1989-2009. DOI: 10.1021/acs.jctc.7b00118
   for GFN0-xTB:
   * P. Pracht, E. Caldeweyher, S. Ehlert, S. Grimme, ChemRxiv, 2019, preprint.
     DOI: 10.26434/chemrxiv.8326202.v1
   for GFN-FF:
   * S. Spicher and S. Grimme, Angew. Chem. Int. Ed., 2020, 59, 15665-15673.
     DOI: 10.1002/anie.202004239
   
   for ALPB and GBSA implicit solvation:
   * S. Ehlert, M. Stahn, S. Spicher, S. Grimme, J. Chem. Theory Comput.,
     2021, 17, 4250-4261. DOI: 10.1021/acs.jctc.1c00471
   
   for DFT-D4:
   * E. Caldeweyher, C. Bannwarth and S. Grimme, J. Chem. Phys., 2017,
     147, 034112. DOI: 10.1063/1.4993215
   * E. Caldeweyher, S. Ehlert, A. Hansen, H. Neugebauer, S. Spicher,
     C. Bannwarth and S. Grimme, J. Chem. Phys., 2019, 150, 154122.
     DOI: 10.1063/1.5090222
   * E. Caldeweyher, J.-M. Mewes, S. Ehlert and S. Grimme, Phys. Chem. Chem. Phys.
     2020, 22, 8499-8512. DOI: 10.1039/D0CP00502A
   
   for sTDA-xTB:
   * S. Grimme and C. Bannwarth, J. Chem. Phys., 2016, 145, 054103.
     DOI: 10.1063/1.4959605
   
   in the mass-spec context:
   * V. Asgeirsson, C. Bauer and S. Grimme, Chem. Sci., 2017, 8, 4879.
     DOI: 10.1039/c7sc00601b
   * J. Koopman and S. Grimme, ACS Omega 2019, 4, 12, 15120-15133.
     DOI: 10.1021/acsomega.9b02011
   
   for metadynamics refer to:
   * S. Grimme, J. Chem. Theory Comput., 2019, 155, 2847-2862
     DOI: 10.1021/acs.jctc.9b00143
   
   for SPH calculations refer to:
   * S. Spicher and S. Grimme, J. Chem. Theory Comput., 2021, 17, 1701-1714
     DOI: 10.1021/acs.jctc.0c01306
   
   with help from (in alphabetical order)
   P. Atkinson, C. Bannwarth, F. Bohle, G. Brandenburg, E. Caldeweyher
   M. Checinski, S. Dohm, S. Ehlert, S. Ehrlich, I. Gerasimov, C. Hölzer
   A. Katbashev, J. Koopman, C. Lavigne, S. Lehtola, F. März, M. Müller,
   F. Musil, H. Neugebauer, J. Pisarek, C. Plett, P. Pracht, F. Pultar,
   J. Seibert, P. Shushkov, S. Spicher, M. Stahn, M. Steiner, T. Strunk,
   J. Stückrath, T. Rose, and J. Unsleber
   
 * started run on 2022/07/27 at 18:33:56.062     

           -------------------------------------------------
          |                Calculation Setup                |
           -------------------------------------------------

          program call               : xtb Py_C10_2.xyz --gfn 1 --opt -T 48
          hostname                   : cx3-6-14.cx3.hpc.ic.ac.uk
          coordinate file            : Py_C10_2.xyz
          omp threads                :                     1

   ID    Z sym.   atoms
    1    6 C      1-5, 7-10, 12-16, 18-23, 25-28, 30-35, 56-60, 62-65, 67-71,
                  73-78, 80-83, 85-90, 111-120
    2    7 N      6, 11, 17, 24, 29, 36, 61, 66, 72, 79, 84, 91
    3    1 H      37-55, 92-110
########################################################################
[WARNING] Please study the warnings concerning your input carefully
-1- prog_main_parseArguments: Unknown option '-T' provided
########################################################################

           -------------------------------------------------
          |                 G F N 1 - x T B                 |
           -------------------------------------------------

        Reference                      10.1021/acs.jctc.7b00118
      * Hamiltonian:
        H0-scaling (s, p, d)           1.850000    2.250000    2.000000
        zeta-weighting                 0.000000
      * Dispersion:
        s8                             2.400000
        a1                             0.630000
        a2                             5.000000
        s9                             0.000000
      * Repulsion:
        kExp                           1.500000
        rExp                           1.000000
      * Coulomb:
        alpha                          2.000000
        third order                    atomic
        anisotropic                    false
      * Halogen bond correction:
        rad-scale                      1.300000
        damping                        0.440000


          ...................................................
          :                      SETUP                      :
          :.................................................:
          :  # basis functions                 404          :
          :  # atomic orbitals                 404          :
          :  # shells                          240          :
          :  # electrons                       378          :
          :  # halogen bonds                     0          :
          :  max. iterations                   250          :
          :  Hamiltonian                  GFN1-xTB          :
          :  restarted?                      false          :
          :  GBSA solvation                  false          :
          :  PC potential                    false          :
          :  electronic temp.          300.0000000     K    :
          :  accuracy                    1.0000000          :
          :  -> integral cutoff          0.2500000E+02      :
          :  -> integral neglect         0.1000000E-07      :
          :  -> SCF convergence          0.1000000E-05 Eh   :
          :  -> wf. convergence          0.2000000E-04 e    :
          :  Broyden damping             0.4000000          :
          ...................................................

 iter      E             dE          RMSdq      gap      omega  full diag
   1   -209.6040458 -0.209604E+03  0.104E+01    0.60       0.0  T
   2   -209.7796588 -0.175613E+00  0.622E+00    0.54       1.0  T
   3   -209.1416827  0.637976E+00  0.163E+00    0.83       1.0  T
   4   -209.5908806 -0.449198E+00  0.805E-01    0.83       1.0  T
   5   -209.7545184 -0.163638E+00  0.505E-01    0.63       1.0  T
   6   -209.8238669 -0.693485E-01  0.133E-01    0.53       1.0  T
   7   -209.8244772 -0.610352E-03  0.870E-02    0.52       1.0  T
   8   -209.8233356  0.114164E-02  0.978E-02    0.51       1.0  T
   9   -209.8263613 -0.302570E-02  0.194E-02    0.52       1.0  T
  10   -209.8264683 -0.107025E-03  0.667E-03    0.52       1.4  T
  11   -209.8264713 -0.295175E-05  0.437E-03    0.52       2.1  T
  12   -209.8264750 -0.368590E-05  0.177E-03    0.52       5.2  T
  13   -209.8264754 -0.470690E-06  0.413E-04    0.52      22.1  T
  14   -209.8264754  0.532015E-08  0.317E-04    0.52      28.8  T
  15   -209.8264754 -0.199003E-07  0.124E-04    0.52      73.6  T
  16   -209.8264754 -0.405362E-08  0.611E-05    0.52     149.3  T

   *** convergence criteria satisfied after 16 iterations ***

         #    Occupation            Energy/Eh            Energy/eV
      -------------------------------------------------------------
         1        2.0000           -0.8053828             -21.9156
       ...           ...                  ...                  ...
       183        2.0000           -0.4164985             -11.3335
       184        2.0000           -0.4163167             -11.3286
       185        2.0000           -0.4133021             -11.2465
       186        2.0000           -0.4127568             -11.2317
       187        2.0000           -0.4093733             -11.1396
       188        2.0000           -0.3846064             -10.4657
       189        1.9999           -0.3792988             -10.3212 (HOMO)
       190        0.0001           -0.3602266              -9.8023 (LUMO)
       191        0.0000           -0.3566793              -9.7057
       192                         -0.3220832              -8.7643
       193                         -0.3206094              -8.7242
       194                         -0.3053045              -8.3078
       ...                                ...                  ...
       404                         36.7459363             999.9078
      -------------------------------------------------------------
                  HL-Gap            0.0190722 Eh            0.5190 eV
             Fermi-level           -0.3697721 Eh          -10.0620 eV

 SCC (total)                   0 d,  0 h,  0 min,  0.766 sec
 SCC setup                      ...        0 min,  0.004 sec (  0.497%)
 Dispersion                     ...        0 min,  0.002 sec (  0.322%)
 classical contributions        ...        0 min,  0.001 sec (  0.110%)
 integral evaluation            ...        0 min,  0.085 sec ( 11.142%)
 iterations                     ...        0 min,  0.475 sec ( 62.084%)
 molecular gradient             ...        0 min,  0.191 sec ( 24.957%)
 printout                       ...        0 min,  0.007 sec (  0.886%)

         :::::::::::::::::::::::::::::::::::::::::::::::::::::
         ::                     SUMMARY                     ::
         :::::::::::::::::::::::::::::::::::::::::::::::::::::
         :: total energy            -203.707758645567 Eh    ::
         :: gradient norm             10.949151869073 Eh/a0 ::
         :: HOMO-LUMO gap              0.518980357374 eV    ::
         ::.................................................::
         :: SCC energy              -209.826475445218 Eh    ::
         :: -> electrostatic           0.182676617366 Eh    ::
         :: repulsion energy           6.215690729108 Eh    ::
         :: dispersion energy         -0.096973929457 Eh    ::
         :: halogen bond corr.         0.000000000000 Eh    ::
         :: add. restraining           0.000000000000 Eh    ::
         :: total charge              -0.000000000059 e     ::
         :::::::::::::::::::::::::::::::::::::::::::::::::::::

      ----------------------------------------------------------- 
     |                   =====================                   |
     |                        A N C O P T                        |
     |                   =====================                   |
     |               Approximate Normal Coordinate               |
     |                Rational Function Optimizer                |
      ----------------------------------------------------------- 

          ...................................................
          :                      SETUP                      :
          :.................................................:
          :   optimization level            normal          :
          :   max. optcycles                   360          :
          :   ANC micro-cycles                  20          :
          :   degrees of freedom               354          :
          :.................................................:
          :   RF solver                   davidson          :
          :   write xtbopt.log                true          :
          :   linear?                        false          :
          :   energy convergence         0.5000000E-05 Eh   :
          :   grad. convergence          0.1000000E-02 Eh/α :
          :   maximium RF displ.         1.0000000          :
          :   Hlow (freq-cutoff)         0.1000000E-01      :
          :   Hmax (freq-cutoff)         5.0000000          :
          :   S6 in model hess.         20.0000000          :
          ...................................................

generating ANC from model Hessian ...
Using Lindh-Hessian (1995)
 Shifting diagonal of input Hessian by    1.0002589311002317E-002
 Lowest  eigenvalues of input Hessian
    0.010000    0.010002    0.000000    0.000000    0.000000    0.000000
    0.000000    0.000000    0.010009    0.010013    0.010016    0.010059
    0.010106    0.010167    0.010185    0.010217    0.010360    0.010434
 Highest eigenvalues
    2.160492    2.186866    2.430479    2.760976    3.222194    5.513934


........................................................................
.............................. CYCLE    1 ..............................
........................................................................
   1   -209.8264754 -0.209826E+03  0.119E-05    0.52       0.0  T
   2   -209.8264754  0.319716E-09  0.336E-05    0.52     272.0  T
   3   -209.8264754 -0.355868E-09  0.320E-06    0.52    2854.6  T
     SCC iter.                  ...        0 min,  0.091 sec
     gradient                   ...        0 min,  0.191 sec
 * total energy  :  -203.7077586 Eh     change       -0.9158612E-09 Eh
   gradient norm :    10.9491521 Eh/α   predicted     0.0000000E+00 (-100.00%)
   displ. norm   :     0.7987412 α      lambda       -0.8729548E+01
   maximum displ.:     0.7942191 α      in ANC's #354, #353, #247, ...

........................................................................
.............................. CYCLE    2 ..............................
........................................................................
   1   -209.5935930 -0.209594E+03  0.228E-01    0.54       0.0  T
   2   -209.5990299 -0.543692E-02  0.159E-01    0.58       1.0  T
   3   -209.5982414  0.788542E-03  0.157E-01    0.59       1.0  T
   4   -209.6022446 -0.400319E-02  0.758E-02    0.58       1.0  T
   5   -209.6030642 -0.819597E-03  0.518E-02    0.58       1.0  T
   6   -209.6035716 -0.507466E-03  0.156E-02    0.58       1.0  T
   7   -209.6035878 -0.161604E-04  0.856E-03    0.58       1.1  T
   8   -209.6036050 -0.172044E-04  0.470E-03    0.58       1.9  T
   9   -209.6036116 -0.661328E-05  0.105E-03    0.58       8.7  T
  10   -209.6036120 -0.383635E-06  0.244E-04    0.58      37.4  T
  11   -209.6036120 -0.152289E-07  0.734E-05    0.58     124.3  T
  12   -209.6036120 -0.998398E-09  0.271E-05    0.58     336.9  T
     SCC iter.                  ...        0 min,  0.357 sec
     gradient                   ...        0 min,  0.193 sec
 * total energy  :  -206.0750782 Eh     change       -0.2367320E+01 Eh
   gradient norm :     0.6542841 Eh/α   predicted    -0.7159721E+01 ( 202.44%)
   displ. norm   :     0.4929833 α      lambda       -0.2503239E+00
   maximum displ.:     0.1645728 α      in ANC's #247, #353, #235, ...

........................................................................
.............................. CYCLE    3 ..............................
........................................................................
   1   -209.5806318 -0.209581E+03  0.936E-02    0.71       0.0  T
   2   -209.5815641 -0.932251E-03  0.881E-02    0.69       1.0  T
   3   -209.5821419 -0.577854E-03  0.444E-02    0.69       1.0  T
   4   -209.5813090  0.832963E-03  0.558E-02    0.69       1.0  T
   5   -209.5822181 -0.909124E-03  0.122E-02    0.69       1.0  T
   6   -209.5822416 -0.234610E-04  0.338E-03    0.69       2.7  T
   7   -209.5822438 -0.220724E-05  0.120E-03    0.69       7.6  T
   8   -209.5822440 -0.254339E-06  0.846E-04    0.69      10.8  T
   9   -209.5822442 -0.228538E-06  0.205E-04    0.69      44.4  T
  10   -209.5822442 -0.646241E-08  0.944E-05    0.69      96.7  T
  11   -209.5822443 -0.221547E-08  0.278E-05    0.69     328.5  T
     SCC iter.                  ...        0 min,  0.367 sec
     gradient                   ...        0 min,  0.205 sec
 * total energy  :  -206.2441576 Eh     change       -0.1690793E+00 Eh
   gradient norm :     0.2595590 Eh/α   predicted    -0.1555809E+00 (  -7.98%)
   displ. norm   :     0.4975018 α      lambda       -0.9082447E-01
   maximum displ.:     0.1519490 α      in ANC's #37, #68, #112, ...

........................................................................
.............................. CYCLE    4 ..............................
........................................................................
   1   -209.6133214 -0.209613E+03  0.818E-02    0.89       0.0  T
   2   -209.6142561 -0.934707E-03  0.577E-02    0.87       1.0  T
   3   -209.6145904 -0.334260E-03  0.258E-02    0.88       1.0  T
   4   -209.6144064  0.183970E-03  0.255E-02    0.88       1.0  T
   5   -209.6146084 -0.201970E-03  0.650E-03    0.88       1.4  T
   6   -209.6146169 -0.851936E-05  0.173E-03    0.88       5.3  T
   7   -209.6146175 -0.592850E-06  0.528E-04    0.88      17.3  T
   8   -209.6146175 -0.361020E-07  0.324E-04    0.88      28.2  T
   9   -209.6146175 -0.235821E-07  0.154E-04    0.88      59.4  T
  10   -209.6146175 -0.703795E-08  0.474E-05    0.88     192.5  T
     SCC iter.                  ...        0 min,  0.323 sec
     gradient                   ...        0 min,  0.205 sec
 * total energy  :  -206.3019361 Eh     change       -0.5777851E-01 Eh
   gradient norm :     0.0922526 Eh/α   predicted    -0.5665289E-01 (  -1.95%)
   displ. norm   :     0.5921885 α      lambda       -0.2739147E-01
   maximum displ.:     0.3169940 α      in ANC's #37, #68, #78, ...

........................................................................
.............................. CYCLE    5 ..............................
........................................................................
   1   -209.6666506 -0.209667E+03  0.374E-02    0.98       0.0  T
   2   -209.6668638 -0.213225E-03  0.293E-02    0.97       1.0  T
   3   -209.6669571 -0.933089E-04  0.125E-02    0.98       1.0  T
   4   -209.6669344  0.227752E-04  0.112E-02    0.98       1.0  T
   5   -209.6669609 -0.265669E-04  0.285E-03    0.98       3.2  T
   6   -209.6669625 -0.152318E-05  0.111E-03    0.98       8.2  T
   7   -209.6669628 -0.367178E-06  0.314E-04    0.98      29.1  T
   8   -209.6669628 -0.144848E-07  0.186E-04    0.98      49.1  T
   9   -209.6669628 -0.791664E-08  0.645E-05    0.98     141.5  T
     SCC iter.                  ...        0 min,  0.291 sec
     gradient                   ...        0 min,  0.205 sec
 * total energy  :  -206.3207695 Eh     change       -0.1883341E-01 Eh
   gradient norm :     0.0503190 Eh/α   predicted    -0.1849860E-01 (  -1.78%)
   displ. norm   :     0.6619636 α      lambda       -0.1462713E-01
   maximum displ.:     0.4552593 α      in ANC's #37, #68, #78, ...

........................................................................
.............................. CYCLE    6 ..............................
........................................................................
   1   -209.7228501 -0.209723E+03  0.234E-02    1.03       0.0  T
   2   -209.7229185 -0.683527E-04  0.152E-02    1.03       1.0  T
   3   -209.7229420 -0.235428E-04  0.668E-03    1.03       1.4  T
   4   -209.7229383  0.371845E-05  0.579E-03    1.03       1.6  T
   5   -209.7229459 -0.760599E-05  0.222E-03    1.03       4.1  T
   6   -209.7229467 -0.826851E-06  0.655E-04    1.03      13.9  T
   7   -209.7229468 -0.823033E-07  0.188E-04    1.03      48.5  T
   8   -209.7229468 -0.341132E-08  0.917E-05    1.03      99.6  T
     SCC iter.                  ...        0 min,  0.272 sec
     gradient                   ...        0 min,  0.206 sec
 * total energy  :  -206.3323245 Eh     change       -0.1155497E-01 Eh
   gradient norm :     0.0319710 Eh/α   predicted    -0.1051834E-01 (  -8.97%)
   displ. norm   :     0.7725048 α      lambda       -0.1162174E-01
   maximum displ.:     0.5710329 α      in ANC's #37, #68, #30, ...

........................................................................
.............................. CYCLE    7 ..............................
........................................................................
   1   -209.7699244 -0.209770E+03  0.217E-02    1.05       0.0  T
   2   -209.7699649 -0.405717E-04  0.116E-02    1.05       1.0  T
   3   -209.7699717 -0.679043E-05  0.631E-03    1.05       1.4  T
   4   -209.7699738 -0.206684E-05  0.498E-03    1.05       1.8  T
   5   -209.7699781 -0.430126E-05  0.163E-03    1.05       5.6  T
   6   -209.7699787 -0.640207E-06  0.339E-04    1.05      26.9  T
   7   -209.7699788 -0.322620E-07  0.147E-04    1.05      62.0  T
   8   -209.7699788 -0.572524E-08  0.625E-05    1.05     146.0  T
     SCC iter.                  ...        0 min,  0.256 sec
     gradient                   ...        0 min,  0.219 sec
 * total energy  :  -206.3398819 Eh     change       -0.7557454E-02 Eh
   gradient norm :     0.0309431 Eh/α   predicted    -0.9278588E-02 (  22.77%)
   displ. norm   :     0.7778046 α      lambda       -0.1097057E-01
   maximum displ.:     0.5509490 α      in ANC's #37, #17, #24, ...

........................................................................
.............................. CYCLE    8 ..............................
........................................................................
   1   -209.8053762 -0.209805E+03  0.162E-02    1.04       0.0  T
   2   -209.8053991 -0.228808E-04  0.885E-03    1.04       1.0  T
   3   -209.8054034 -0.433706E-05  0.498E-03    1.04       1.8  T
   4   -209.8054040 -0.631701E-06  0.330E-03    1.04       2.8  T
   5   -209.8054048 -0.776365E-06  0.128E-03    1.04       7.1  T
   6   -209.8054053 -0.532146E-06  0.357E-04    1.04      25.6  T
   7   -209.8054054 -0.439937E-07  0.980E-05    1.04      93.2  T
   8   -209.8054054 -0.164778E-08  0.522E-05    1.04     174.7  T
     SCC iter.                  ...        0 min,  0.260 sec
     gradient                   ...        0 min,  0.207 sec
 * total energy  :  -206.3451581 Eh     change       -0.5276149E-02 Eh
   gradient norm :     0.0447565 Eh/α   predicted    -0.8803776E-02 (  66.86%)
   displ. norm   :     0.5851702 α      lambda       -0.6982000E-02
   maximum displ.:     0.3956854 α      in ANC's #37, #12, #35, ...

........................................................................
.............................. CYCLE    9 ..............................
........................................................................
   1   -209.8277673 -0.209828E+03  0.140E-02    1.05       0.0  T
   2   -209.8277730 -0.574303E-05  0.101E-02    1.05       1.0  T
   3   -209.8277792 -0.615423E-05  0.529E-03    1.05       1.7  T
   4   -209.8277779  0.128522E-05  0.412E-03    1.05       2.2  T
   5   -209.8277824 -0.449043E-05  0.937E-04    1.05       9.7  T
   6   -209.8277826 -0.192616E-06  0.196E-04    1.05      46.6  T
   7   -209.8277826 -0.880783E-08  0.551E-05    1.05     165.6  T
     SCC iter.                  ...        0 min,  0.226 sec
     gradient                   ...        0 min,  0.209 sec
 * total energy  :  -206.3484303 Eh     change       -0.3272248E-02 Eh
   gradient norm :     0.0327404 Eh/α   predicted    -0.4686405E-02 (  43.22%)
   displ. norm   :     0.5999050 α      lambda       -0.7850225E-02
   maximum displ.:     0.3495883 α      in ANC's #37, #11, #29, ...

........................................................................
.............................. CYCLE   10 ..............................
........................................................................
   1   -209.8447233 -0.209845E+03  0.181E-02    1.06       0.0  T
   2   -209.8447411 -0.178534E-04  0.139E-02    1.05       1.0  T
   3   -209.8447628 -0.216632E-04  0.531E-03    1.05       1.7  T
   4   -209.8447594  0.336261E-05  0.512E-03    1.05       1.8  T
   5   -209.8447649 -0.548580E-05  0.217E-03    1.05       4.2  T
   6   -209.8447655 -0.569554E-06  0.313E-04    1.05      29.2  T
   7   -209.8447655 -0.198916E-07  0.102E-04    1.05      89.2  T
   8   -209.8447655 -0.359694E-08  0.430E-05    1.05     212.2  T
     SCC iter.                  ...        0 min,  0.260 sec
     gradient                   ...        0 min,  0.207 sec
 * total energy  :  -206.3506169 Eh     change       -0.2186612E-02 Eh
   gradient norm :     0.0491338 Eh/α   predicted    -0.5337704E-02 ( 144.11%)
   displ. norm   :     0.3796835 α      lambda       -0.4928764E-02
   maximum displ.:     0.2241924 α      in ANC's #37, #12, #24, ...

........................................................................
.............................. CYCLE   11 ..............................
........................................................................
   1   -209.8596945 -0.209860E+03  0.131E-02    1.03       0.0  T
   2   -209.8597061 -0.116368E-04  0.120E-02    1.03       1.0  T
   3   -209.8597168 -0.106267E-04  0.537E-03    1.03       1.7  T
   4   -209.8597144  0.232039E-05  0.408E-03    1.03       2.2  T
   5   -209.8597166 -0.219936E-05  0.114E-03    1.03       8.0  T
   6   -209.8597169 -0.290764E-06  0.338E-04    1.03      27.0  T
   7   -209.8597170 -0.439730E-07  0.460E-05    1.03     198.4  T
   8   -209.8597170 -0.308177E-09  0.267E-05    1.03     342.5  T
     SCC iter.                  ...        0 min,  0.258 sec
     gradient                   ...        0 min,  0.221 sec
 * total energy  :  -206.3538688 Eh     change       -0.3251875E-02 Eh
   gradient norm :     0.0199508 Eh/α   predicted    -0.2819650E-02 ( -13.29%)
   displ. norm   :     0.5463886 α      lambda       -0.2555128E-02
   maximum displ.:     0.2806617 α      in ANC's #37, #12, #30, ...

........................................................................
.............................. CYCLE   12 ..............................
........................................................................
   1   -209.8735223 -0.209874E+03  0.699E-03    1.02       0.0  T
   2   -209.8735231 -0.873176E-06  0.588E-03    1.02       1.6  T
   3   -209.8735297 -0.661978E-05  0.224E-03    1.02       4.1  T
   4   -209.8735296  0.158979E-06  0.188E-03    1.02       4.9  T
   5   -209.8735304 -0.778255E-06  0.351E-04    1.02      26.0  T
   6   -209.8735304 -0.221202E-07  0.130E-04    1.02      70.3  T
   7   -209.8735304 -0.442796E-08  0.454E-05    1.02     201.2  T
     SCC iter.                  ...        0 min,  0.226 sec
     gradient                   ...        0 min,  0.219 sec
 * total energy  :  -206.3554119 Eh     change       -0.1543094E-02 Eh
   gradient norm :     0.0180043 Eh/α   predicted    -0.1658970E-02 (   7.51%)
   displ. norm   :     0.6555223 α      lambda       -0.2897251E-02
   maximum displ.:     0.2731194 α      in ANC's #37, #12, #24, ...

........................................................................
.............................. CYCLE   13 ..............................
........................................................................
   1   -209.8873698 -0.209887E+03  0.810E-03    1.01       0.0  T
   2   -209.8873708 -0.107310E-05  0.634E-03    1.01       1.4  T
   3   -209.8873791 -0.823480E-05  0.269E-03    1.01       3.4  T
   4   -209.8873795 -0.423890E-06  0.202E-03    1.01       4.5  T
   5   -209.8873803 -0.809136E-06  0.427E-04    1.01      21.4  T
   6   -209.8873803 -0.320950E-07  0.121E-04    1.01      75.3  T
   7   -209.8873803 -0.409915E-08  0.429E-05    1.01     213.0  T
     SCC iter.                  ...        0 min,  0.225 sec
     gradient                   ...        0 min,  0.216 sec
 * total energy  :  -206.3565996 Eh     change       -0.1187728E-02 Eh
   gradient norm :     0.0212856 Eh/α   predicted    -0.2071112E-02 (  74.38%)
   displ. norm   :     0.3744602 α      lambda       -0.1631237E-02
   maximum displ.:     0.1110545 α      in ANC's #12, #16, #26, ...

........................................................................
.............................. CYCLE   14 ..............................
........................................................................
   1   -209.8985755 -0.209899E+03  0.473E-03    1.02       0.0  T
   2   -209.8985760 -0.578566E-06  0.433E-03    1.02       2.1  T
   3   -209.8985780 -0.199263E-05  0.206E-03    1.02       4.4  T
   4   -209.8985776  0.431018E-06  0.147E-03    1.02       6.2  T
   5   -209.8985781 -0.511605E-06  0.378E-04    1.02      24.2  T
   6   -209.8985782 -0.483940E-07  0.125E-04    1.02      72.7  T
   7   -209.8985782 -0.635558E-08  0.280E-05    1.02     326.0  T
     SCC iter.                  ...        0 min,  0.224 sec
     gradient                   ...        0 min,  0.206 sec
 * total energy  :  -206.3577585 Eh     change       -0.1158870E-02 Eh
   gradient norm :     0.0138675 Eh/α   predicted    -0.9299869E-03 ( -19.75%)
   displ. norm   :     0.4880599 α      lambda       -0.1410114E-02
   maximum displ.:     0.1847281 α      in ANC's #12, #26, #16, ...

........................................................................
.............................. CYCLE   15 ..............................
........................................................................
   1   -209.9066987 -0.209907E+03  0.431E-03    1.03       0.0  T
   2   -209.9066999 -0.116300E-05  0.302E-03    1.03       3.0  T
   3   -209.9067015 -0.164744E-05  0.135E-03    1.03       6.8  T
   4   -209.9067016 -0.610389E-07  0.944E-04    1.03       9.7  T
   5   -209.9067018 -0.182584E-06  0.378E-04    1.03      24.2  T
   6   -209.9067018 -0.192967E-07  0.997E-05    1.03      91.6  T
   7   -209.9067018 -0.235141E-08  0.294E-05    1.03     310.1  T
     SCC iter.                  ...        0 min,  0.225 sec
     gradient                   ...        0 min,  0.216 sec
 * total energy  :  -206.3587901 Eh     change       -0.1031610E-02 Eh
   gradient norm :     0.0079008 Eh/α   predicted    -0.8730056E-03 ( -15.37%)
   displ. norm   :     0.6280314 α      lambda       -0.1248645E-02
   maximum displ.:     0.2292336 α      in ANC's #12, #26, #16, ...

........................................................................
.............................. CYCLE   16 ..............................
........................................................................
   1   -209.9086204 -0.209909E+03  0.363E-03    1.03       0.0  T
   2   -209.9086216 -0.123848E-05  0.267E-03    1.03       3.4  T
   3   -209.9086230 -0.134151E-05  0.100E-03    1.03       9.1  T
   4   -209.9086229  0.360720E-07  0.860E-04    1.03      10.6  T
   5   -209.9086231 -0.151199E-06  0.278E-04    1.03      32.9  T
   6   -209.9086231 -0.940398E-08  0.636E-05    1.03     143.4  T
   7   -209.9086231 -0.995442E-09  0.256E-05    1.03     356.6  T
     SCC iter.                  ...        0 min,  0.224 sec
     gradient                   ...        0 min,  0.207 sec
 * total energy  :  -206.3597896 Eh     change       -0.9994989E-03 Eh
   gradient norm :     0.0107695 Eh/α   predicted    -0.8705735E-03 ( -12.90%)
   displ. norm   :     0.6885939 α      lambda       -0.1251435E-02
   maximum displ.:     0.2684049 α      in ANC's #26, #12, #16, ...

........................................................................
.............................. CYCLE   17 ..............................
........................................................................
   1   -209.9086786 -0.209909E+03  0.310E-03    1.04       0.0  T
   2   -209.9086791 -0.488515E-06  0.213E-03    1.04       4.3  T
   3   -209.9086795 -0.368028E-06  0.117E-03    1.04       7.8  T
   4   -209.9086795 -0.198474E-07  0.784E-04    1.04      11.6  T
   5   -209.9086796 -0.126126E-06  0.258E-04    1.04      35.3  T
   6   -209.9086796 -0.174977E-07  0.646E-05    1.04     141.2  T
   7   -209.9086796 -0.121872E-08  0.241E-05    1.04     378.4  T
     SCC iter.                  ...        0 min,  0.223 sec
     gradient                   ...        0 min,  0.207 sec
 * total energy  :  -206.3608343 Eh     change       -0.1044645E-02 Eh
   gradient norm :     0.0140652 Eh/α   predicted    -0.9224100E-03 ( -11.70%)
   displ. norm   :     0.6940795 α      lambda       -0.1181917E-02
   maximum displ.:     0.3028902 α      in ANC's #26, #12, #24, ...

........................................................................
.............................. CYCLE   18 ..............................
........................................................................
   1   -209.9084601 -0.209908E+03  0.381E-03    1.04       0.0  T
   2   -209.9084607 -0.627080E-06  0.234E-03    1.04       3.9  T
   3   -209.9084610 -0.277213E-06  0.140E-03    1.04       6.5  T
   4   -209.9084611 -0.112685E-06  0.885E-04    1.04      10.3  T
   5   -209.9084613 -0.174025E-06  0.282E-04    1.04      32.3  T
   6   -209.9084613 -0.193959E-07  0.674E-05    1.04     135.4  T
   7   -209.9084613 -0.912848E-09  0.321E-05    1.04     284.4  T
     SCC iter.                  ...        0 min,  0.223 sec
     gradient                   ...        0 min,  0.207 sec
 * total energy  :  -206.3617849 Eh     change       -0.9505994E-03 Eh
   gradient norm :     0.0148841 Eh/α   predicted    -0.8756538E-03 (  -7.88%)
   displ. norm   :     0.7271756 α      lambda       -0.9688243E-03
   maximum displ.:     0.3343444 α      in ANC's #26, #12, #24, ...

........................................................................
.............................. CYCLE   19 ..............................
........................................................................
   1   -209.9023880 -0.209902E+03  0.473E-03    1.04       0.0  T
   2   -209.9023886 -0.658936E-06  0.286E-03    1.04       3.2  T
   3   -209.9023895 -0.923637E-06  0.201E-03    1.04       4.5  T
   4   -209.9023901 -0.578497E-06  0.806E-04    1.04      11.3  T
   5   -209.9023902 -0.675095E-07  0.372E-04    1.04      24.5  T
   6   -209.9023902 -0.339643E-07  0.815E-05    1.04     112.1  T
   7   -209.9023902 -0.219407E-08  0.345E-05    1.04     264.9  T
     SCC iter.                  ...        0 min,  0.225 sec
     gradient                   ...        0 min,  0.218 sec
 * total energy  :  -206.3625317 Eh     change       -0.7468730E-03 Eh
   gradient norm :     0.0160921 Eh/α   predicted    -0.7405652E-03 (  -0.84%)
   displ. norm   :     0.6573334 α      lambda       -0.7922419E-03
   maximum displ.:     0.3278936 α      in ANC's #26, #12, #24, ...

........................................................................
.............................. CYCLE   20 ..............................
........................................................................
   1   -209.9036517 -0.209904E+03  0.591E-03    1.03       0.0  T
   2   -209.9036541 -0.243292E-05  0.301E-03    1.04       3.0  T
   3   -209.9036549 -0.787903E-06  0.186E-03    1.04       4.9  T
   4   -209.9036552 -0.260773E-06  0.970E-04    1.04       9.4  T
   5   -209.9036553 -0.830692E-07  0.428E-04    1.04      21.4  T
   6   -209.9036553 -0.554963E-07  0.127E-04    1.04      72.1  T
   7   -209.9036553 -0.477536E-08  0.435E-05    1.04     209.7  T
     SCC iter.                  ...        0 min,  0.224 sec
     gradient                   ...        0 min,  0.206 sec
 * total energy  :  -206.3631083 Eh     change       -0.5766015E-03 Eh
   gradient norm :     0.0145224 Eh/α   predicted    -0.5672829E-03 (  -1.62%)
   displ. norm   :     0.6584816 α      lambda       -0.6173438E-03
   maximum displ.:     0.3234512 α      in ANC's #26, #12, #24, ...
 * RMSD in coord.:     0.7590503 α      energy gain  -0.2655350E+01 Eh

generating ANC from model Hessian ...
Using Lindh-Hessian (1995)
 Shifting diagonal of input Hessian by    1.0001594099731136E-002
 Lowest  eigenvalues of input Hessian
    0.010000    0.000000    0.000000    0.000000    0.000000    0.000000
    0.000000    0.010007    0.010010    0.010016    0.010029    0.010130
    0.010205    0.010226    0.010271    0.010555    0.010560    0.010617
 Highest eigenvalues
    2.211768    2.211855    2.361303    2.652555    2.897611    3.054387


........................................................................
.............................. CYCLE   21 ..............................
........................................................................
   1   -209.9017389 -0.209902E+03  0.403E-03    1.04       0.0  T
   2   -209.9017394 -0.528567E-06  0.296E-03    1.04       3.1  T
   3   -209.9017403 -0.869242E-06  0.175E-03    1.04       5.2  T
   4   -209.9017405 -0.163306E-06  0.821E-04    1.04      11.1  T
   5   -209.9017406 -0.133382E-06  0.280E-04    1.04      32.6  T
   6   -209.9017406 -0.263362E-07  0.708E-05    1.04     129.0  T
   7   -209.9017406 -0.130890E-08  0.292E-05    1.04     312.9  T
     SCC iter.                  ...        0 min,  0.224 sec
     gradient                   ...        0 min,  0.206 sec
 * total energy  :  -206.3635510 Eh     change       -0.4426346E-03 Eh
   gradient norm :     0.0118354 Eh/α   predicted     0.0000000E+00 (-100.00%)
   displ. norm   :     0.0937880 α      lambda       -0.2572010E-03
   maximum displ.:     0.0488564 α      in ANC's #25, #30, #37, ...

........................................................................
.............................. CYCLE   22 ..............................
........................................................................
   1   -209.9067560 -0.209907E+03  0.272E-03    1.03       0.0  T
   2   -209.9067564 -0.444206E-06  0.203E-03    1.03       4.5  T
   3   -209.9067567 -0.288973E-06  0.983E-04    1.03       9.3  T
   4   -209.9067567  0.168077E-07  0.568E-04    1.03      16.1  T
   5   -209.9067567 -0.301376E-07  0.222E-04    1.03      41.1  T
   6   -209.9067567 -0.180854E-07  0.500E-05    1.03     182.7  T
   7   -209.9067567 -0.837588E-09  0.100E-05    1.03     913.0  T
     SCC iter.                  ...        0 min,  0.227 sec
     gradient                   ...        0 min,  0.207 sec
 * total energy  :  -206.3637193 Eh     change       -0.1683562E-03 Eh
   gradient norm :     0.0039823 Eh/α   predicted    -0.1297356E-03 ( -22.94%)
   displ. norm   :     0.2579802 α      lambda       -0.4248724E-03
   maximum displ.:     0.1382399 α      in ANC's #25, #30, #37, ...

........................................................................
.............................. CYCLE   23 ..............................
........................................................................
   1   -209.9156066 -0.209916E+03  0.510E-03    1.03       0.0  T
   2   -209.9156083 -0.167451E-05  0.367E-03    1.03       2.5  T
   3   -209.9156094 -0.113552E-05  0.172E-03    1.03       5.3  T
   4   -209.9156094  0.652716E-07  0.105E-03    1.03       8.7  T
   5   -209.9156095 -0.121247E-06  0.411E-04    1.03      22.2  T
   6   -209.9156095 -0.577496E-07  0.850E-05    1.03     107.5  T
   7   -209.9156095 -0.236091E-08  0.197E-05    1.03     463.1  T
     SCC iter.                  ...        0 min,  0.225 sec
     gradient                   ...        0 min,  0.207 sec
 * total energy  :  -206.3636029 Eh     change        0.1163765E-03 Eh
   gradient norm :     0.0157829 Eh/α   predicted    -0.2265758E-03 (-294.69%)
   displ. norm   :     0.1094645 α      lambda       -0.6304468E-03
   maximum displ.:     0.0526949 α      in ANC's #16, #27, #25, ...

........................................................................
.............................. CYCLE   24 ..............................
........................................................................
   1   -209.9150848 -0.209915E+03  0.186E-03    1.03       0.0  T
   2   -209.9150850 -0.175088E-06  0.216E-03    1.03       4.2  T
   3   -209.9150854 -0.423452E-06  0.103E-03    1.03       8.8  T
   4   -209.9150854  0.299933E-07  0.464E-04    1.03      19.7  T
   5   -209.9150854 -0.323718E-07  0.193E-04    1.03      47.3  T
   6   -209.9150854 -0.134792E-07  0.451E-05    1.03     202.4  T
     SCC iter.                  ...        0 min,  0.198 sec
     gradient                   ...        0 min,  0.217 sec
 * total energy  :  -206.3639579 Eh     change       -0.3549950E-03 Eh
   gradient norm :     0.0077780 Eh/α   predicted    -0.3190008E-03 ( -10.14%)
   displ. norm   :     0.1256891 α      lambda       -0.1599703E-03
   maximum displ.:     0.0728070 α      in ANC's #25, #27, #23, ...

........................................................................
.............................. CYCLE   25 ..............................
........................................................................
   1   -209.9131523 -0.209913E+03  0.155E-03    1.03       0.0  T
   2   -209.9131524 -0.126000E-06  0.110E-03    1.03       8.3  T
   3   -209.9131525 -0.604361E-07  0.571E-04    1.03      16.0  T
   4   -209.9131525  0.152230E-08  0.338E-04    1.03      27.0  T
   5   -209.9131525 -0.116681E-07  0.118E-04    1.03      77.2  T
   6   -209.9131525 -0.459553E-08  0.289E-05    1.03     315.6  T
     SCC iter.                  ...        0 min,  0.192 sec
     gradient                   ...        0 min,  0.207 sec
 * total energy  :  -206.3640227 Eh     change       -0.6474367E-04 Eh
   gradient norm :     0.0037070 Eh/α   predicted    -0.8125088E-04 (  25.50%)
   displ. norm   :     0.1981760 α      lambda       -0.2089775E-03
   maximum displ.:     0.1323267 α      in ANC's #25, #30, #11, ...

........................................................................
.............................. CYCLE   26 ..............................
........................................................................
   1   -209.9111733 -0.209911E+03  0.191E-03    1.03       0.0  T
   2   -209.9111735 -0.165324E-06  0.121E-03    1.03       7.5  T
   3   -209.9111735 -0.597098E-07  0.692E-04    1.03      13.2  T
   4   -209.9111735 -0.837622E-08  0.376E-04    1.03      24.3  T
   5   -209.9111735 -0.142309E-07  0.141E-04    1.03      64.8  T
   6   -209.9111736 -0.700510E-08  0.341E-05    1.03     267.7  T
     SCC iter.                  ...        0 min,  0.191 sec
     gradient                   ...        0 min,  0.206 sec
 * total energy  :  -206.3641295 Eh     change       -0.1068182E-03 Eh
   gradient norm :     0.0046460 Eh/α   predicted    -0.1085930E-03 (   1.66%)
   displ. norm   :     0.2298545 α      lambda       -0.2117868E-03
   maximum displ.:     0.1357845 α      in ANC's #25, #28, #23, ...

........................................................................
.............................. CYCLE   27 ..............................
........................................................................
   1   -209.9110356 -0.209911E+03  0.115E-03    1.03       0.0  T
   2   -209.9110357 -0.968882E-07  0.557E-04    1.03      16.4  T
   3   -209.9110357 -0.254614E-07  0.378E-04    1.03      24.2  T
   4   -209.9110357 -0.849431E-08  0.212E-04    1.03      43.1  T
   5   -209.9110357 -0.468884E-08  0.827E-05    1.03     110.4  T
   6   -209.9110357 -0.269753E-08  0.166E-05    1.03     549.0  T
     SCC iter.                  ...        0 min,  0.192 sec
     gradient                   ...        0 min,  0.206 sec
 * total energy  :  -206.3642003 Eh     change       -0.7075880E-04 Eh
   gradient norm :     0.0051188 Eh/α   predicted    -0.1114888E-03 (  57.56%)
   displ. norm   :     0.1760177 α      lambda       -0.1841683E-03
   maximum displ.:     0.1085239 α      in ANC's #25, #11, #23, ...

........................................................................
.............................. CYCLE   28 ..............................
........................................................................
   1   -209.9126643 -0.209913E+03  0.925E-04    1.03       0.0  T
   2   -209.9126644 -0.659762E-07  0.747E-04    1.03      12.2  T
   3   -209.9126645 -0.508518E-07  0.334E-04    1.03      27.3  T
   4   -209.9126645  0.635441E-08  0.233E-04    1.03      39.2  T
   5   -209.9126645 -0.608185E-08  0.948E-05    1.03      96.3  T
   6   -209.9126645 -0.328330E-08  0.206E-05    1.03     444.2  T
     SCC iter.                  ...        0 min,  0.194 sec
     gradient                   ...        0 min,  0.207 sec
 * total energy  :  -206.3642965 Eh     change       -0.9619292E-04 Eh
   gradient norm :     0.0031811 Eh/α   predicted    -0.9494021E-04 (  -1.30%)
   displ. norm   :     0.1938150 α      lambda       -0.1761905E-03
   maximum displ.:     0.1189550 α      in ANC's #25, #11, #23, ...

........................................................................
.............................. CYCLE   29 ..............................
........................................................................
   1   -209.9138777 -0.209914E+03  0.108E-03    1.03       0.0  T
   2   -209.9138778 -0.622820E-07  0.770E-04    1.03      11.9  T
   3   -209.9138778 -0.512294E-07  0.392E-04    1.03      23.3  T
   4   -209.9138778  0.205233E-08  0.286E-04    1.03      31.9  T
   5   -209.9138779 -0.169328E-07  0.881E-05    1.03     103.7  T
   6   -209.9138779 -0.173159E-08  0.243E-05    1.03     376.4  T
     SCC iter.                  ...        0 min,  0.193 sec
     gradient                   ...        0 min,  0.208 sec
 * total energy  :  -206.3644011 Eh     change       -0.1046889E-03 Eh
   gradient norm :     0.0026295 Eh/α   predicted    -0.9140697E-04 ( -12.69%)
   displ. norm   :     0.2386947 α      lambda       -0.1157273E-03
   maximum displ.:     0.1478810 α      in ANC's #25, #23, #11, ...

........................................................................
.............................. CYCLE   30 ..............................
........................................................................
   1   -209.9128917 -0.209913E+03  0.109E-03    1.03       0.0  T
   2   -209.9128918 -0.724970E-07  0.691E-04    1.03      13.2  T
   3   -209.9128918 -0.610158E-07  0.371E-04    1.03      24.6  T
   4   -209.9128918 -0.757117E-08  0.252E-04    1.03      36.2  T
   5   -209.9128918 -0.152195E-07  0.664E-05    1.03     137.5  T
   6   -209.9128918 -0.637016E-09  0.269E-05    1.03     339.9  T
     SCC iter.                  ...        0 min,  0.192 sec
     gradient                   ...        0 min,  0.208 sec
 * total energy  :  -206.3645005 Eh     change       -0.9934678E-04 Eh
   gradient norm :     0.0024305 Eh/α   predicted    -0.6116362E-04 ( -38.43%)
   displ. norm   :     0.4542667 α      lambda       -0.2029334E-03
   maximum displ.:     0.2674482 α      in ANC's #25, #23, #11, ...

........................................................................
.............................. CYCLE   31 ..............................
........................................................................
   1   -209.9103129 -0.209910E+03  0.213E-03    1.03       0.0  T
   2   -209.9103130 -0.166013E-06  0.133E-03    1.03       6.9  T
   3   -209.9103132 -0.196183E-06  0.771E-04    1.03      11.8  T
   4   -209.9103133 -0.738894E-07  0.458E-04    1.03      19.9  T
   5   -209.9103133 -0.505871E-07  0.134E-04    1.03      68.1  T
   6   -209.9103134 -0.428167E-08  0.478E-05    1.03     190.9  T
     SCC iter.                  ...        0 min,  0.194 sec
     gradient                   ...        0 min,  0.208 sec
 * total energy  :  -206.3646445 Eh     change       -0.1440292E-03 Eh
   gradient norm :     0.0030035 Eh/α   predicted    -0.1224096E-03 ( -15.01%)
   displ. norm   :     0.3197723 α      lambda       -0.9197302E-04
   maximum displ.:     0.1742917 α      in ANC's #25, #23, #11, ...

........................................................................
.............................. CYCLE   32 ..............................
........................................................................
   1   -209.9088642 -0.209909E+03  0.153E-03    1.04       0.0  T
   2   -209.9088643 -0.837074E-07  0.103E-03    1.04       8.9  T
   3   -209.9088645 -0.177655E-06  0.530E-04    1.04      17.2  T
   4   -209.9088645 -0.284201E-07  0.330E-04    1.04      27.7  T
   5   -209.9088645 -0.246959E-07  0.121E-04    1.04      75.2  T
   6   -209.9088645 -0.378122E-08  0.301E-05    1.04     302.8  T
     SCC iter.                  ...        0 min,  0.194 sec
     gradient                   ...        0 min,  0.207 sec
 * total energy  :  -206.3647088 Eh     change       -0.6428607E-04 Eh
   gradient norm :     0.0028535 Eh/α   predicted    -0.5069058E-04 ( -21.15%)
   displ. norm   :     0.2038302 α      lambda       -0.6005456E-04
   maximum displ.:     0.0873420 α      in ANC's #25, #23, #11, ...

........................................................................
.............................. CYCLE   33 ..............................
........................................................................
   1   -209.9094308 -0.209909E+03  0.128E-03    1.04       0.0  T
   2   -209.9094309 -0.860218E-07  0.900E-04    1.04      10.1  T
   3   -209.9094310 -0.136483E-06  0.454E-04    1.04      20.1  T
   4   -209.9094310 -0.442648E-08  0.283E-04    1.04      32.2  T
   5   -209.9094310 -0.159638E-07  0.127E-04    1.04      72.2  T
   6   -209.9094310 -0.513606E-08  0.222E-05    1.04     411.9  T
     SCC iter.                  ...        0 min,  0.195 sec
     gradient                   ...        0 min,  0.207 sec
 * total energy  :  -206.3647527 Eh     change       -0.4388185E-04 Eh
   gradient norm :     0.0019856 Eh/α   predicted    -0.3127623E-04 ( -28.73%)
   displ. norm   :     0.3138066 α      lambda       -0.5132394E-04
   maximum displ.:     0.1125184 α      in ANC's #23, #25, #11, ...

........................................................................
.............................. CYCLE   34 ..............................
........................................................................
   1   -209.9095171 -0.209910E+03  0.165E-03    1.03       0.0  T
   2   -209.9095173 -0.237264E-06  0.110E-03    1.03       8.3  T
   3   -209.9095175 -0.192927E-06  0.495E-04    1.03      18.4  T
   4   -209.9095175 -0.739905E-08  0.311E-04    1.03      29.4  T
   5   -209.9095175 -0.606610E-08  0.152E-04    1.03      60.1  T
   6   -209.9095176 -0.818397E-08  0.350E-05    1.03     260.6  T
     SCC iter.                  ...        0 min,  0.194 sec
     gradient                   ...        0 min,  0.207 sec
 * total energy  :  -206.3647965 Eh     change       -0.4384571E-04 Eh
   gradient norm :     0.0020514 Eh/α   predicted    -0.2679010E-04 ( -38.90%)
   displ. norm   :     0.0775487 α      lambda       -0.2660865E-04
   maximum displ.:     0.0473153 α      in ANC's #25, #13, #37, ...

........................................................................
.............................. CYCLE   35 ..............................
........................................................................
   1   -209.9120668 -0.209912E+03  0.113E-03    1.03       0.0  T
   2   -209.9120669 -0.471820E-07  0.600E-04    1.03      15.2  T
   3   -209.9120669  0.293562E-08  0.390E-04    1.03      23.4  T
   4   -209.9120669  0.351750E-08  0.255E-04    1.03      35.8  T
   5   -209.9120669 -0.203675E-07  0.416E-05    1.03     219.3  T
   6   -209.9120669 -0.645201E-09  0.111E-05    1.03     819.3  T
     SCC iter.                  ...        0 min,  0.193 sec
     gradient                   ...        0 min,  0.207 sec
 * total energy  :  -206.3648149 Eh     change       -0.1840710E-04 Eh
   gradient norm :     0.0021408 Eh/α   predicted    -0.1338370E-04 ( -27.29%)
   displ. norm   :     0.1094342 α      lambda       -0.3428498E-04
   maximum displ.:     0.0642027 α      in ANC's #13, #8, #37, ...

........................................................................
.............................. CYCLE   36 ..............................
........................................................................
   1   -209.9132111 -0.209913E+03  0.127E-03    1.03       0.0  T
   2   -209.9132112 -0.872090E-07  0.701E-04    1.03      13.0  T
   3   -209.9132112 -0.562467E-07  0.396E-04    1.03      23.0  T
   4   -209.9132112 -0.181570E-07  0.254E-04    1.03      36.0  T
   5   -209.9132112 -0.128050E-07  0.809E-05    1.03     112.9  T
   6   -209.9132112 -0.192347E-08  0.144E-05    1.03     635.1  T
     SCC iter.                  ...        0 min,  0.192 sec
     gradient                   ...        0 min,  0.208 sec
 * total energy  :  -206.3648409 Eh     change       -0.2598468E-04 Eh
   gradient norm :     0.0014186 Eh/α   predicted    -0.1734785E-04 ( -33.24%)
   displ. norm   :     0.1562477 α      lambda       -0.2499582E-04
   maximum displ.:     0.0956813 α      in ANC's #13, #8, #25, ...

........................................................................
.............................. CYCLE   37 ..............................
........................................................................
   1   -209.9139113 -0.209914E+03  0.131E-03    1.03       0.0  T
   2   -209.9139114 -0.133619E-06  0.844E-04    1.03      10.8  T
   3   -209.9139115 -0.115598E-06  0.392E-04    1.03      23.3  T
   4   -209.9139115 -0.210295E-08  0.289E-04    1.03      31.5  T
   5   -209.9139115 -0.180566E-07  0.113E-04    1.03      81.0  T
   6   -209.9139115 -0.332685E-08  0.205E-05    1.03     444.6  T
     SCC iter.                  ...        0 min,  0.193 sec
     gradient                   ...        0 min,  0.211 sec
 * total energy  :  -206.3648672 Eh     change       -0.2622733E-04 Eh
   gradient norm :     0.0016312 Eh/α   predicted    -0.1263631E-04 ( -51.82%)
   displ. norm   :     0.1169054 α      lambda       -0.1714944E-04
   maximum displ.:     0.0734928 α      in ANC's #13, #8, #4, ...

........................................................................
.............................. CYCLE   38 ..............................
........................................................................
   1   -209.9140523 -0.209914E+03  0.489E-04    1.03       0.0  T
   2   -209.9140523 -0.216491E-07  0.287E-04    1.03      31.8  T
   3   -209.9140523 -0.127457E-07  0.114E-04    1.03      79.9  T
   4   -209.9140523 -0.937433E-09  0.813E-05    1.03     112.3  T
     SCC iter.                  ...        0 min,  0.129 sec
     gradient                   ...        0 min,  0.219 sec
 * total energy  :  -206.3648888 Eh     change       -0.2161642E-04 Eh
   gradient norm :     0.0015159 Eh/α   predicted    -0.8629480E-05 ( -60.08%)
   displ. norm   :     0.1877310 α      lambda       -0.2501769E-04
   maximum displ.:     0.1135454 α      in ANC's #13, #8, #4, ...

........................................................................
.............................. CYCLE   39 ..............................
........................................................................
   1   -209.9134795 -0.209913E+03  0.902E-04    1.03       0.0  T
   2   -209.9134795 -0.352609E-07  0.433E-04    1.03      21.1  T
   3   -209.9134795 -0.199445E-07  0.263E-04    1.03      34.7  T
   4   -209.9134795 -0.187776E-07  0.150E-04    1.03      60.7  T
   5   -209.9134795 -0.382428E-08  0.339E-05    1.03     268.9  T
     SCC iter.                  ...        0 min,  0.161 sec
     gradient                   ...        0 min,  0.214 sec
 * total energy  :  -206.3649180 Eh     change       -0.2924533E-04 Eh
   gradient norm :     0.0013518 Eh/α   predicted    -0.1270672E-04 ( -56.55%)
   displ. norm   :     0.2290985 α      lambda       -0.2278820E-04
   maximum displ.:     0.1365586 α      in ANC's #13, #8, #4, ...

........................................................................
.............................. CYCLE   40 ..............................
........................................................................
   1   -209.9129013 -0.209913E+03  0.985E-04    1.03       0.0  T
   2   -209.9129013 -0.457788E-07  0.530E-04    1.03      17.2  T
   3   -209.9129014 -0.391526E-07  0.288E-04    1.03      31.6  T
   4   -209.9129014 -0.221990E-07  0.179E-04    1.03      51.1  T
   5   -209.9129014 -0.627392E-08  0.581E-05    1.03     157.0  T
     SCC iter.                  ...        0 min,  0.165 sec
     gradient                   ...        0 min,  0.208 sec
 * total energy  :  -206.3649424 Eh     change       -0.2443109E-04 Eh
   gradient norm :     0.0016182 Eh/α   predicted    -0.1166208E-04 ( -52.27%)
   displ. norm   :     0.2405811 α      lambda       -0.2093744E-04
   maximum displ.:     0.1402584 α      in ANC's #13, #8, #4, ...

........................................................................
.............................. CYCLE   41 ..............................
........................................................................
   1   -209.9121764 -0.209912E+03  0.865E-04    1.03       0.0  T
   2   -209.9121764 -0.344596E-07  0.575E-04    1.03      15.9  T
   3   -209.9121765 -0.708666E-07  0.278E-04    1.03      32.9  T
   4   -209.9121765 -0.114483E-07  0.179E-04    1.03      51.0  T
   5   -209.9121765 -0.501157E-08  0.777E-05    1.03     117.4  T
     SCC iter.                  ...        0 min,  0.161 sec
     gradient                   ...        0 min,  0.209 sec
 * total energy  :  -206.3649635 Eh     change       -0.2109688E-04 Eh
   gradient norm :     0.0015416 Eh/α   predicted    -0.1073860E-04 ( -49.10%)
   displ. norm   :     0.2063363 α      lambda       -0.1606830E-04
   maximum displ.:     0.1171717 α      in ANC's #13, #8, #4, ...

........................................................................
.............................. CYCLE   42 ..............................
........................................................................
   1   -209.9122561 -0.209912E+03  0.545E-04    1.03       0.0  T
   2   -209.9122561 -0.214011E-07  0.387E-04    1.03      23.6  T
   3   -209.9122561 -0.377225E-07  0.146E-04    1.03      62.5  T
   4   -209.9122561 -0.281659E-08  0.105E-04    1.03      86.6  T
     SCC iter.                  ...        0 min,  0.130 sec
     gradient                   ...        0 min,  0.209 sec
 * total energy  :  -206.3649832 Eh     change       -0.1962618E-04 Eh
   gradient norm :     0.0010413 Eh/α   predicted    -0.8187280E-05 ( -58.28%)
   displ. norm   :     0.2767833 α      lambda       -0.2060100E-04
   maximum displ.:     0.1562313 α      in ANC's #13, #8, #4, ...
 * RMSD in coord.:     0.3102685 α      energy gain  -0.1874837E-02 Eh

generating ANC from model Hessian ...
Using Lindh-Hessian (1995)
 Shifting diagonal of input Hessian by    1.0002366801221378E-002
 Lowest  eigenvalues of input Hessian
    0.010000    0.000000    0.000000    0.000000    0.000000    0.000000
    0.000000    0.010005    0.010008    0.010020    0.010028    0.010097
    0.010187    0.010209    0.010227    0.010456    0.010565    0.010606
 Highest eigenvalues
    2.214120    2.214209    2.366256    2.660251    2.900937    3.060741


........................................................................
.............................. CYCLE   43 ..............................
........................................................................
   1   -209.9125331 -0.209913E+03  0.617E-04    1.03       0.0  T
   2   -209.9125331 -0.221990E-07  0.421E-04    1.03      21.7  T
   3   -209.9125332 -0.459029E-07  0.174E-04    1.03      52.4  T
   4   -209.9125332 -0.619715E-08  0.114E-04    1.03      80.3  T
     SCC iter.                  ...        0 min,  0.131 sec
     gradient                   ...        0 min,  0.207 sec
 * total energy  :  -206.3650064 Eh     change       -0.2324028E-04 Eh
   gradient norm :     0.0010007 Eh/α   predicted     0.0000000E+00 (-100.00%)
   displ. norm   :     0.0262536 α      lambda       -0.5276097E-05
   maximum displ.:     0.0109385 α      in ANC's #22, #26, #21, ...

........................................................................
.............................. CYCLE   44 ..............................
........................................................................
   1   -209.9127951 -0.209913E+03  0.356E-04    1.03       0.0  T
   2   -209.9127951 -0.977118E-08  0.225E-04    1.03      40.5  T
   3   -209.9127951 -0.838102E-08  0.106E-04    1.03      86.0  T
   4   -209.9127951 -0.755307E-09  0.597E-05    1.03     153.0  T
     SCC iter.                  ...        0 min,  0.129 sec
     gradient                   ...        0 min,  0.209 sec
 * total energy  :  -206.3650124 Eh     change       -0.6021823E-05 Eh
   gradient norm :     0.0006667 Eh/α   predicted    -0.2751014E-05 ( -54.32%)
   displ. norm   :     0.1788745 α      lambda       -0.3086124E-04
   maximum displ.:     0.0741329 α      in ANC's #22, #21, #26, ...

........................................................................
.............................. CYCLE   45 ..............................
........................................................................
   1   -209.9139408 -0.209914E+03  0.202E-03    1.03       0.0  T
   2   -209.9139411 -0.302276E-06  0.126E-03    1.03       7.2  T
   3   -209.9139413 -0.265980E-06  0.605E-04    1.03      15.1  T
   4   -209.9139414 -0.306108E-07  0.398E-04    1.03      22.9  T
   5   -209.9139414 -0.599869E-08  0.215E-04    1.03      42.5  T
   6   -209.9139414 -0.180110E-07  0.337E-05    1.03     270.6  T
   7   -209.9139414 -0.216318E-09  0.147E-05    1.03     621.5  T
     SCC iter.                  ...        0 min,  0.225 sec
     gradient                   ...        0 min,  0.209 sec
 * total energy  :  -206.3649618 Eh     change        0.5060653E-04 Eh
   gradient norm :     0.0042239 Eh/α   predicted    -0.1565251E-04 (-130.93%)
   displ. norm   :     0.0332663 α      lambda       -0.8997203E-04
   maximum displ.:     0.0164472 α      in ANC's #18, #19, #37, ...

........................................................................
.............................. CYCLE   46 ..............................
........................................................................
   1   -209.9138490 -0.209914E+03  0.578E-04    1.03       0.0  T
   2   -209.9138491 -0.184367E-07  0.392E-04    1.03      23.3  T
   3   -209.9138491 -0.121038E-07  0.205E-04    1.03      44.5  T
   4   -209.9138491 -0.123811E-08  0.127E-04    1.03      71.7  T
   5   -209.9138491 -0.133582E-08  0.567E-05    1.03     161.1  T
     SCC iter.                  ...        0 min,  0.162 sec
     gradient                   ...        0 min,  0.208 sec
 * total energy  :  -206.3650197 Eh     change       -0.5784017E-04 Eh
   gradient norm :     0.0021112 Eh/α   predicted    -0.4503746E-04 ( -22.13%)
   displ. norm   :     0.0447909 α      lambda       -0.2761433E-04
   maximum displ.:     0.0164089 α      in ANC's #34, #38, #21, ...

........................................................................
.............................. CYCLE   47 ..............................
........................................................................
   1   -209.9131899 -0.209913E+03  0.937E-04    1.03       0.0  T
   2   -209.9131899 -0.560223E-07  0.556E-04    1.03      16.4  T
   3   -209.9131900 -0.326838E-07  0.299E-04    1.03      30.5  T
   4   -209.9131900 -0.806904E-08  0.178E-04    1.03      51.3  T
   5   -209.9131900 -0.136532E-08  0.880E-05    1.03     103.7  T
     SCC iter.                  ...        0 min,  0.164 sec
     gradient                   ...        0 min,  0.209 sec
 * total energy  :  -206.3650208 Eh     change       -0.1139159E-05 Eh
   gradient norm :     0.0013036 Eh/α   predicted    -0.1383632E-04 (1114.61%)
   displ. norm   :     0.0569106 α      lambda       -0.3448519E-04
   maximum displ.:     0.0323143 α      in ANC's #19, #11, #12, ...

........................................................................
.............................. CYCLE   48 ..............................
........................................................................
   1   -209.9124626 -0.209912E+03  0.805E-04    1.03       0.0  T
   2   -209.9124627 -0.434069E-07  0.464E-04    1.03      19.7  T
   3   -209.9124627 -0.211360E-07  0.243E-04    1.03      37.5  T
   4   -209.9124627 -0.515720E-08  0.142E-04    1.03      64.3  T
   5   -209.9124627 -0.534044E-09  0.554E-05    1.03     164.9  T
     SCC iter.                  ...        0 min,  0.164 sec
     gradient                   ...        0 min,  0.208 sec
 * total energy  :  -206.3649779 Eh     change        0.4285838E-04 Eh
   gradient norm :     0.0030345 Eh/α   predicted    -0.1727142E-04 (-140.30%)
   displ. norm   :     0.0545063 α      lambda       -0.8162758E-04
   maximum displ.:     0.0250536 α      in ANC's #19, #21, #38, ...

........................................................................
.............................. CYCLE   49 ..............................
........................................................................
   1   -209.9130506 -0.209913E+03  0.792E-04    1.03       0.0  T
   2   -209.9130507 -0.362719E-07  0.505E-04    1.03      18.1  T
   3   -209.9130507 -0.283403E-07  0.259E-04    1.03      35.2  T
   4   -209.9130507 -0.417668E-08  0.163E-04    1.03      56.0  T
   5   -209.9130507 -0.172756E-08  0.828E-05    1.03     110.2  T
     SCC iter.                  ...        0 min,  0.162 sec
     gradient                   ...        0 min,  0.208 sec
 * total energy  :  -206.3650254 Eh     change       -0.4746426E-04 Eh
   gradient norm :     0.0012090 Eh/α   predicted    -0.4093773E-04 ( -13.75%)
   displ. norm   :     0.0498577 α      lambda       -0.2881899E-04
   maximum displ.:     0.0192907 α      in ANC's #34, #9, #12, ...

........................................................................
.............................. CYCLE   50 ..............................
........................................................................
   1   -209.9130232 -0.209913E+03  0.307E-04    1.03       0.0  T
   2   -209.9130232 -0.259951E-08  0.210E-04    1.03      43.4  T
   3   -209.9130232 -0.351940E-08  0.115E-04    1.03      79.3  T
   4   -209.9130232 -0.589409E-09  0.726E-05    1.03     125.8  T
     SCC iter.                  ...        0 min,  0.130 sec
     gradient                   ...        0 min,  0.209 sec
 * total energy  :  -206.3650163 Eh     change        0.9147369E-05 Eh
   gradient norm :     0.0017296 Eh/α   predicted    -0.1442713E-04 (-257.72%)
   displ. norm   :     0.0375920 α      lambda       -0.2927121E-04
   maximum displ.:     0.0170925 α      in ANC's #34, #37, #10, ...

........................................................................
.............................. CYCLE   51 ..............................
........................................................................
   1   -209.9128679 -0.209913E+03  0.338E-04    1.03       0.0  T
   2   -209.9128679 -0.735588E-08  0.231E-04    1.03      39.5  T
   3   -209.9128679 -0.534661E-08  0.111E-04    1.03      82.4  T
   4   -209.9128679 -0.292317E-09  0.760E-05    1.03     120.1  T
     SCC iter.                  ...        0 min,  0.131 sec
     gradient                   ...        0 min,  0.207 sec
 * total energy  :  -206.3650331 Eh     change       -0.1683341E-04 Eh
   gradient norm :     0.0008316 Eh/α   predicted    -0.1464927E-04 ( -12.98%)
   displ. norm   :     0.0426000 α      lambda       -0.1472468E-04
   maximum displ.:     0.0150122 α      in ANC's #11, #6, #10, ...

........................................................................
.............................. CYCLE   52 ..............................
........................................................................
   1   -209.9127323 -0.209913E+03  0.146E-04    1.03       0.0  T
   2   -209.9127323 -0.661146E-09  0.878E-05    1.03     103.9  T
   3   -209.9127323 -0.104382E-08  0.502E-05    1.03     181.8  T
     SCC iter.                  ...        0 min,  0.099 sec
     gradient                   ...        0 min,  0.210 sec
 * total energy  :  -206.3650272 Eh     change        0.5872145E-05 Eh
   gradient norm :     0.0013521 Eh/α   predicted    -0.7369974E-05 (-225.51%)
   displ. norm   :     0.0251782 α      lambda       -0.1617067E-04
   maximum displ.:     0.0093549 α      in ANC's #12, #18, #22, ...

........................................................................
.............................. CYCLE   53 ..............................
........................................................................
   1   -209.9127995 -0.209913E+03  0.113E-04    1.03       0.0  T
   2   -209.9127995 -0.503746E-09  0.576E-05    1.03     158.6  T
   3   -209.9127995 -0.178630E-09  0.386E-05    1.03     236.7  T
     SCC iter.                  ...        0 min,  0.098 sec
     gradient                   ...        0 min,  0.209 sec
 * total energy  :  -206.3650395 Eh     change       -0.1223374E-04 Eh
   gradient norm :     0.0003748 Eh/α   predicted    -0.8089871E-05 ( -33.87%)
   displ. norm   :     0.0232306 α      lambda       -0.2979148E-05
   maximum displ.:     0.0093381 α      in ANC's #6, #14, #18, ...

........................................................................
.............................. CYCLE   54 ..............................
........................................................................
   1   -209.9126001 -0.209913E+03  0.158E-04    1.03       0.0  T
   2   -209.9126001 -0.210875E-08  0.933E-05    1.03      97.8  T
   3   -209.9126001 -0.150411E-08  0.418E-05    1.03     218.2  T
     SCC iter.                  ...        0 min,  0.099 sec
     gradient                   ...        0 min,  0.209 sec
 * total energy  :  -206.3650401 Eh     change       -0.6321567E-06 Eh
   gradient norm :     0.0004860 Eh/α   predicted    -0.1493932E-05 ( 136.32%)
   displ. norm   :     0.0239553 α      lambda       -0.2587545E-05
   maximum displ.:     0.0109906 α      in ANC's #22, #8, #4, ...

   *** GEOMETRY OPTIMIZATION CONVERGED AFTER 54 ITERATIONS ***

------------------------------------------------------------------------
 total energy gain   :        -2.6572814 Eh    -1667.4693 kcal/mol
 total RMSD          :         0.9022316 a0        0.4774 Å
 total power (kW/mol):      -129.1979904 (step) -248.1652 (real)
------------------------------------------------------------------------

 ANCopt (total)                0 d,  0 h,  0 min, 28.113 sec
 optimizer setup                ...        0 min,  0.000 sec (  0.001%)
 model hessian                  ...        0 min,  0.116 sec (  0.414%)
 ANC generation                 ...        0 min,  0.052 sec (  0.184%)
 coordinate transformation      ...        0 min,  0.005 sec (  0.019%)
 single point calculation       ...        0 min, 27.875 sec ( 99.155%)
 optimization log               ...        0 min,  0.035 sec (  0.125%)
 hessian update                 ...        0 min,  0.005 sec (  0.019%)
 rational function              ...        0 min,  0.020 sec (  0.070%)

================
 final structure:
================
120
 xtb: 6.5.1 (b24c23e)
C            5.25720940272407        0.08091076869836        0.03344430275760
C            5.86992815523796        1.30533094475798        0.26644534106551
C            5.22229000109400        2.55229017988892        0.49292995008795
C            6.18784172082034        3.49866892220046        0.69052510389451
C            7.45677182048181        2.85832545925465        0.59943709220289
N            7.21422573801627        1.54077045982927        0.33383353235334
C            8.72222169527326        3.44241007920078        0.72617886278806
C            8.75689600971534        4.89059056881820        1.03960621076633
C            9.35304389206743        5.80579932232153        0.17263950257902
C            9.35776919983741        7.15045535557140        0.50802457248950
N            8.81964655347983        7.61946905445357        1.62931865218686
C            8.25152204889539        6.75375833789886        2.46247883547751
C            8.19286924944494        5.39176722205360        2.21238274181852
C            9.93660467863083        2.76770160197673        0.58211133511802
C           11.23589055145960        3.38746484547336        0.77189115030058
C           12.15441910601134        2.42526143631893        0.54817616704051
N           10.08795432247410        1.45075077012262        0.27056383451526
C           11.41507668063421        1.21794009246978        0.23355584484246
C           12.04967670144041       -0.00585612499675       -0.06395229803140
C           11.41016736123088       -1.23134453620492       -0.33130907867146
C           12.04973983183130       -2.46059604696385       -0.64170690188834
C           11.07987055158683       -3.40874840220801       -0.81500815337674
C            9.81707031073262       -2.78721452271025       -0.60839026235486
N           10.06855607864785       -1.47031077945365       -0.32730386161613
C            8.55320641678472       -3.37949067346504       -0.70043968354226
C            8.51826520798797       -4.83198070926634       -0.99085266083615
C            9.10107332641988       -5.75771074575536       -0.12570769430591
C            9.04027329949041       -7.10662355107065       -0.43800217933381
N            8.45324022886786       -7.57003868156643       -1.53672201615931
C            7.89766723034898       -6.69436821796704       -2.36820507068066
C            7.90203453352108       -5.32747699688489       -2.13957209135809
C            7.33776829223866       -2.70616151172279       -0.53883396984684
C            6.03292078267149       -3.34725620428886       -0.59393068573122
C            5.12099881154348       -2.37509129000613       -0.39266739481892
C            5.86762520950264       -1.14381324707202       -0.20231934827614
N            7.19929777678261       -1.38264422517879       -0.28939715568881
H            4.17195517423137        0.09106541278254        0.04296761108616
H            4.15336566759260        2.69420844779733        0.49647418099291
H            6.04044698924825        4.55045090604503        0.87464636271573
H            7.93670551177036        0.84075475745963        0.20263737715348
H            9.79284834553925        5.47063353939320       -0.75906748508763
H            9.81262998359825        7.88226507406258       -0.15310717484231
H            7.82411876379810        7.16638984785738        3.37169694640782
H            7.73130020798712        4.72202267300217        2.92830706515649
H           11.40101718265387        4.41511430510533        1.05195269010250
H           13.22919394717381        2.49742307414353        0.59419770267757
H           13.11663696160309       -2.59155407703003       -0.72401924504381
H           11.22265995571192       -4.44534697533117       -1.07305915962349
H            9.34971444819613       -0.77686495680098       -0.14838635708125
H            9.57911868991261       -5.42735852727021        0.78888499633762
H            9.48211772124080       -7.84629234516608        0.22330320601563
H            7.42831280800133       -7.10321098883949       -3.25824054604800
H            7.44757602801346       -4.65004638236377       -2.85263241923148
H            5.86347788131275       -4.39996777664929       -0.75307808881234
H            4.04558307329298       -2.45350152811990       -0.36106602233222
C           33.15093994037368       -0.08670906870943       -0.00536299297042
C           32.53813921201250       -1.28207420944927       -0.35819056513782
C           33.18569663505480       -2.49486704843189       -0.72621834426631
C           32.22004921649363       -3.42639338561768       -0.98455730265616
C           30.95112697538886       -2.81470816389974       -0.77430352889575
N           31.19379491377687       -1.52171363045477       -0.40742399528255
C           29.68565744571285       -3.39143865582416       -0.93084649346367
C           29.65098892237057       -4.82238793548861       -1.31546422324147
C           29.05733548017056       -5.23871457502621       -2.50662072195026
C           29.05250165301892       -6.58772062777891       -2.82408602365180
N           29.58825413168534       -7.51838748031425       -2.04071330145390
C           30.15394541476550       -7.13055673800184       -0.90230764164856
C           30.21249398263443       -5.80522939286682       -0.50095180637904
C           28.47125887475432       -2.72532046269804       -0.75140673521780
C           27.17194906257436       -3.36277620072800       -0.86851437459163
C           26.25339324327466       -2.40504055313552       -0.62652059822563
N           28.31986935382290       -1.41207881207104       -0.42459982246212
C           26.99272946787032       -1.18812955080511       -0.35127570346311
C           26.35811116967665        0.03564607102707       -0.05371878692492
C           26.99765088474774        1.24711774027692        0.27121621075426
C           26.35811991118631        2.48156167636017        0.56036192881315
C           27.32809759603064        3.40371287314050        0.84044914208447
C           28.59092928402035        2.75694292399150        0.73740999773179
N           28.33933350271412        1.45782293594213        0.38318007898785
C           29.85485148277781        3.32584908282212        0.92558064322448
C           29.88989776107898        4.75010558712645        1.33259253696750
C           29.30956320066583        5.17646565891958        2.52696100916239
C           29.37040229487411        6.51865805864627        2.86699223947647
N           29.95519429431830        7.43412992038458        2.10117427798714
C           30.50838726704713        7.03681537409003        0.95970684149391
C           30.50379679928081        5.71698697743931        0.53695082445846
C           31.07031933681182        2.65359104451703        0.75992500418252
C           32.37517265677500        3.24920226026305        1.00337435718500
C           33.28713618022079        2.29266812234562        0.73772088782395
C           32.54053488251438        1.11045014666463        0.34442726136009
N           31.20884218893581        1.36251545669742        0.37648476833527
H           34.23618711472015       -0.10032426031064       -0.00092860834437
H           34.25464071558375       -2.62318708869668       -0.78659291229586
H           32.36737125456365       -4.44602098768008       -1.30161734741199
H           30.47140699797970       -0.83888348398969       -0.20466981244631
H           28.61953894195041       -4.51389949553191       -3.18249655756681
H           28.59970511197167       -6.93534210144526       -3.74802223330092
H           30.57942885064443       -7.91393795398806       -0.28189804995211
H           30.67207041787804       -5.53782698485315        0.44321504517388
H           27.00683193254820       -4.40429647876371       -1.09151767944229
H           25.17859259618253       -2.49006275631368       -0.61975130711849
H           25.29117460391479        2.63545836645599        0.54847310026495
H           27.18536883674650        4.44308416781727        1.08714128883123
H           29.05810526777228        0.75966172467931        0.22333859699343
H           28.83341441200558        4.46364424040984        3.18976132653956
H           28.93062552167125        6.87305582860662        3.79470343317618
H           30.97582457206522        7.80816214613044        0.35461854697597
H           30.95627837724340        5.44157576812425       -0.40819860041893
H           32.54456849045849        4.25832402609471        1.34281308687797
H           34.36256833591267        2.34812432670897        0.80124958208536
[...]
     1   6 C    3.925 --    35 C    1.367     2 C    1.347    37 H    0.971
     2   6 C    3.902 --     1 C    1.347     3 C    1.229     6 N    1.169
     3   6 C    3.954 --     4 C    1.596     2 C    1.229    38 H    0.976
     4   6 C    3.959 --     3 C    1.596     5 C    1.234    39 H    0.974
     5   6 C    3.897 --     7 C    1.302     4 C    1.234     6 N    1.178
     6   7 N    3.470 --     5 C    1.178     2 C    1.169    40 H    0.873
     7   6 C    3.939 --    14 C    1.336     5 C    1.302     8 C    1.030
     8   6 C    3.986 --    13 C    1.392     9 C    1.392     7 C    1.030
                            11 N    0.106
     9   6 C    3.987 --    10 C    1.442     8 C    1.392    41 H    0.973
                            12 C    0.108
    10   6 C    3.972 --     9 C    1.442    11 N    1.415    42 H    0.972
                            13 C    0.108
    11   7 N    3.029 --    12 C    1.416    10 C    1.415     8 C    0.106
    12   6 C    3.972 --    13 C    1.442    11 N    1.416    43 H    0.972
                             9 C    0.108
    13   6 C    3.986 --    12 C    1.442     8 C    1.392    44 H    0.973
                            10 C    0.108
    14   6 C    3.914 --     7 C    1.336    17 N    1.285    15 C    1.124
    15   6 C    3.965 --    16 C    1.711    14 C    1.124    45 H    0.973
    16   6 C    3.964 --    15 C    1.711    18 C    1.127    46 H    0.974
    17   7 N    3.022 --    18 C    1.346    14 C    1.285
    18   6 C    3.906 --    17 N    1.346    19 C    1.252    16 C    1.127
    19   6 C    3.938 --    18 C    1.252    20 C    1.251   111 C    1.194
    20   6 C    3.883 --    19 C    1.251    21 C    1.248    24 N    1.189
    21   6 C    3.959 --    22 C    1.584    20 C    1.248    47 H    0.975
    22   6 C    3.954 --    21 C    1.584    23 C    1.240    48 H    0.974
    23   6 C    3.899 --    25 C    1.309    22 C    1.240    24 N    1.165
    24   7 N    3.474 --    20 C    1.189    23 C    1.165    49 H    0.873
    25   6 C    3.925 --    32 C    1.320    23 C    1.309    26 C    1.031
    26   6 C    3.986 --    27 C    1.392    31 C    1.392    25 C    1.031
                            29 N    0.106
    27   6 C    3.986 --    28 C    1.442    26 C    1.392    50 H    0.973
                            30 C    0.108
    28   6 C    3.972 --    27 C    1.442    29 N    1.415    51 H    0.972
                            31 C    0.108
    29   7 N    3.029 --    28 C    1.415    30 C    1.415    26 C    0.106
    30   6 C    3.972 --    31 C    1.442    29 N    1.415    52 H    0.972
                            27 C    0.108
    31   6 C    3.986 --    30 C    1.442    26 C    1.392    53 H    0.973
                            28 C    0.108
    32   6 C    3.929 --    25 C    1.320    36 N    1.318    33 C    1.117
    33   6 C    3.967 --    34 C    1.724    32 C    1.117    54 H    0.973
    34   6 C    3.966 --    33 C    1.724    35 C    1.116    55 H    0.976
    35   6 C    3.928 --     1 C    1.367    36 N    1.300    34 C    1.116
    36   7 N    3.012 --    32 C    1.318    35 C    1.300
    37   1 H    1.002 --     1 C    0.971
    38   1 H    0.997 --     3 C    0.976
    39   1 H    1.004 --     4 C    0.974
    40   1 H    0.986 --     6 N    0.873
    41   1 H    1.004 --     9 C    0.973
    42   1 H    1.013 --    10 C    0.972
    43   1 H    1.013 --    12 C    0.972
    44   1 H    1.004 --    13 C    0.973
    45   1 H    1.004 --    15 C    0.973
    46   1 H    1.002 --    16 C    0.974
    47   1 H    1.002 --    21 C    0.975
    48   1 H    1.004 --    22 C    0.974
    49   1 H    0.987 --    24 N    0.873
    50   1 H    1.004 --    27 C    0.973
    51   1 H    1.013 --    28 C    0.972
    52   1 H    1.013 --    30 C    0.972
    53   1 H    1.004 --    31 C    0.973
    54   1 H    1.005 --    33 C    0.973
    55   1 H    0.998 --    34 C    0.976
    56   6 C    3.925 --    90 C    1.367    57 C    1.347    92 H    0.971
    57   6 C    3.902 --    56 C    1.347    58 C    1.229    61 N    1.169
    58   6 C    3.954 --    59 C    1.596    57 C    1.229    93 H    0.976
    59   6 C    3.959 --    58 C    1.596    60 C    1.234    94 H    0.974
    60   6 C    3.897 --    62 C    1.302    59 C    1.234    61 N    1.178
    61   7 N    3.470 --    60 C    1.178    57 C    1.169    95 H    0.873
    62   6 C    3.939 --    69 C    1.336    60 C    1.302    63 C    1.030
    63   6 C    3.986 --    68 C    1.392    64 C    1.392    62 C    1.030
                            66 N    0.106
    64   6 C    3.987 --    65 C    1.442    63 C    1.392    96 H    0.973
                            67 C    0.108
    65   6 C    3.972 --    64 C    1.442    66 N    1.415    97 H    0.972
                            68 C    0.108
    66   7 N    3.029 --    67 C    1.416    65 C    1.415    63 C    0.106
    67   6 C    3.972 --    68 C    1.442    66 N    1.416    98 H    0.972
                            64 C    0.108
    68   6 C    3.986 --    67 C    1.442    63 C    1.392    99 H    0.973
                            65 C    0.108
    69   6 C    3.914 --    62 C    1.336    72 N    1.285    70 C    1.124
    70   6 C    3.965 --    71 C    1.711    69 C    1.124   100 H    0.973
    71   6 C    3.964 --    70 C    1.711    73 C    1.127   101 H    0.974
    72   7 N    3.022 --    73 C    1.346    69 C    1.285
    73   6 C    3.906 --    72 N    1.346    74 C    1.252    71 C    1.127
    74   6 C    3.938 --    73 C    1.252    75 C    1.251   120 C    1.194
    75   6 C    3.883 --    74 C    1.251    76 C    1.248    79 N    1.189
    76   6 C    3.959 --    77 C    1.584    75 C    1.248   102 H    0.975
    77   6 C    3.954 --    76 C    1.584    78 C    1.240   103 H    0.974
    78   6 C    3.899 --    80 C    1.309    77 C    1.240    79 N    1.165
    79   7 N    3.474 --    75 C    1.189    78 C    1.165   104 H    0.873
    80   6 C    3.925 --    87 C    1.320    78 C    1.309    81 C    1.031
    81   6 C    3.986 --    82 C    1.392    86 C    1.392    80 C    1.031
                            84 N    0.106
    82   6 C    3.986 --    83 C    1.442    81 C    1.392   105 H    0.973
                            85 C    0.108
    83   6 C    3.972 --    82 C    1.442    84 N    1.415   106 H    0.972
                            86 C    0.108
    84   7 N    3.029 --    83 C    1.415    85 C    1.415    81 C    0.106
    85   6 C    3.972 --    86 C    1.442    84 N    1.415   107 H    0.972
                            82 C    0.108
    86   6 C    3.986 --    85 C    1.442    81 C    1.392   108 H    0.973
                            83 C    0.108
    87   6 C    3.929 --    80 C    1.320    91 N    1.318    88 C    1.117
    88   6 C    3.967 --    89 C    1.724    87 C    1.117   109 H    0.973
    89   6 C    3.966 --    88 C    1.724    90 C    1.116   110 H    0.976
    90   6 C    3.928 --    56 C    1.367    91 N    1.300    89 C    1.116
    91   7 N    3.012 --    87 C    1.318    90 C    1.300
    92   1 H    1.002 --    56 C    0.971
    93   1 H    0.997 --    58 C    0.976
    94   1 H    1.004 --    59 C    0.974
    95   1 H    0.986 --    61 N    0.873
    96   1 H    1.004 --    64 C    0.973
    97   1 H    1.013 --    65 C    0.972
    98   1 H    1.013 --    67 C    0.972
    99   1 H    1.004 --    68 C    0.973
   100   1 H    1.004 --    70 C    0.973
   101   1 H    1.002 --    71 C    0.974
   102   1 H    1.002 --    76 C    0.975
   103   1 H    1.004 --    77 C    0.974
   104   1 H    0.987 --    79 N    0.873
   105   1 H    1.004 --    82 C    0.973
   106   1 H    1.013 --    83 C    0.972
   107   1 H    1.013 --    85 C    0.972
   108   1 H    1.004 --    86 C    0.973
   109   1 H    1.005 --    88 C    0.973
   110   1 H    0.998 --    89 C    0.976
   111   6 C    3.871 --   112 C    2.431    19 C    1.194   114 C    0.184
   112   6 C    3.932 --   111 C    2.431   113 C    1.351
   113   6 C    3.879 --   114 C    2.319   112 C    1.351   116 C    0.178
   114   6 C    3.924 --   113 C    2.319   115 C    1.385   111 C    0.184
   115   6 C    3.892 --   116 C    2.296   114 C    1.385   118 C    0.178
   116   6 C    3.892 --   115 C    2.296   117 C    1.385   113 C    0.178
   117   6 C    3.924 --   118 C    2.319   116 C    1.385   120 C    0.184
   118   6 C    3.879 --   117 C    2.319   119 C    1.351   115 C    0.178
   119   6 C    3.932 --   120 C    2.431   118 C    1.351
   120   6 C    3.871 --   119 C    2.431    74 C    1.194   117 C    0.184
 ---------------------------------------------------------------------------

Topologies differ in total number of bonds
Writing topology from bond orders to xtbtopo.mol

 dipole moment from electron density (au)
     X       Y       Z   
   0.0003  -0.0229   0.0954  total (Debye):    0.250

           -------------------------------------------------
          |                Geometry Summary                 |
           -------------------------------------------------

      molecular mass/u    :     1047.1337000
   center of mass at/Å    :       19.2039906       0.0024703      -0.0080872
  moments of inertia/u·Å² :        0.1718092E+05   0.1093672E+06   0.1260028E+06
rotational constants/cm⁻¹ :        0.9811832E-03   0.1541379E-03   0.1337877E-03

 * 121 selected distances

     #   Z          #   Z                                           value/Å
     1   6 C        2   6 C                                       1.3888552
     2   6 C        3   6 C                                       1.4232492
     3   6 C        4   6 C                                       1.3663700
     4   6 C        5   6 C                                       1.4242615
     2   6 C        6   7 N                                       1.3664221
     5   6 C        6   7 N                                       1.3657692
     5   6 C        7   6 C                                       1.3994935
     8   6 C        9   6 C                                       1.3945003
     9   6 C       10   6 C                                       1.3858592
    10   6 C       11   7 N                                       1.3292293
    11   7 N       12   6 C                                       1.3290511
     8   6 C       13   6 C                                       1.3945284
    12   6 C       13   6 C                                       1.3860045
     7   6 C       14   6 C                                       1.3966794
    14   6 C       15   6 C                                       1.4519873
    15   6 C       16   6 C                                       1.3489177
    14   6 C       17   7 N                                       1.3617373
    16   6 C       18   6 C                                       1.4502546
    17   7 N       18   6 C                                       1.3478963
    18   6 C       19   6 C                                       1.4102857
    19   6 C       20   6 C                                       1.4079325
    20   6 C       21   6 C                                       1.4200209
    21   6 C       22   6 C                                       1.3673599
    22   6 C       23   6 C                                       1.4225541
    20   6 C       24   7 N                                       1.3627333
    23   6 C       24   7 N                                       1.3698505
    23   6 C       25   6 C                                       1.3987911
    26   6 C       27   6 C                                       1.3946747
    27   6 C       28   6 C                                       1.3859259
    28   6 C       29   7 N                                       1.3291151
    29   7 N       30   6 C                                       1.3292195
    26   6 C       31   6 C                                       1.3945657
    30   6 C       31   6 C                                       1.3858875
    25   6 C       32   6 C                                       1.3988491
    33   6 C       34   6 C                                       1.3480406
     1   6 C       35   6 C                                       1.3885753
    34   6 C       35   6 C                                       1.4524907
    32   6 C       36   7 N                                       1.3539170
    35   6 C       36   7 N                                       1.3557193
     1   6 C       37   1 H                                       1.0853436
     3   6 C       38   1 H                                       1.0783102
     4   6 C       39   1 H                                       1.0779014
     6   7 N       40   1 H                                       1.0145007
     9   6 C       41   1 H                                       1.0834400
    10   6 C       42   1 H                                       1.0860659
    12   6 C       43   1 H                                       1.0861013
    13   6 C       44   1 H                                       1.0835828
    15   6 C       45   1 H                                       1.0778520
    16   6 C       46   1 H                                       1.0781774
    21   6 C       47   1 H                                       1.0780515
    22   6 C       48   1 H                                       1.0777365
    24   7 N       49   1 H                                       1.0146980
    27   6 C       50   1 H                                       1.0835774
    28   6 C       51   1 H                                       1.0861222
    30   6 C       52   1 H                                       1.0860982
    31   6 C       53   1 H                                       1.0834667
    33   6 C       54   1 H                                       1.0780727
    34   6 C       55   1 H                                       1.0787335
    56   6 C       57   6 C                                       1.3888521
    57   6 C       58   6 C                                       1.4232505
    58   6 C       59   6 C                                       1.3663658
    59   6 C       60   6 C                                       1.4242645
    57   6 C       61   7 N                                       1.3664234
    60   6 C       61   7 N                                       1.3657685
    60   6 C       62   6 C                                       1.3994775
    63   6 C       64   6 C                                       1.3944915
    64   6 C       65   6 C                                       1.3858663
    65   6 C       66   7 N                                       1.3292271
    66   7 N       67   6 C                                       1.3290550
    63   6 C       68   6 C                                       1.3945236
    67   6 C       68   6 C                                       1.3860041
    62   6 C       69   6 C                                       1.3966661
    69   6 C       70   6 C                                       1.4519884
    70   6 C       71   6 C                                       1.3489120
    69   6 C       72   7 N                                       1.3617362
    71   6 C       73   6 C                                       1.4502588
    72   7 N       73   6 C                                       1.3478985
    73   6 C       74   6 C                                       1.4102864
    74   6 C       75   6 C                                       1.4079268
    75   6 C       76   6 C                                       1.4200202
    76   6 C       77   6 C                                       1.3673583
    77   6 C       78   6 C                                       1.4225585
    75   6 C       79   7 N                                       1.3627344
    78   6 C       79   7 N                                       1.3698512
    78   6 C       80   6 C                                       1.3987716
    81   6 C       82   6 C                                       1.3946639
    82   6 C       83   6 C                                       1.3859305
    83   6 C       84   7 N                                       1.3291155
    84   7 N       85   6 C                                       1.3292214
    81   6 C       86   6 C                                       1.3945529
    85   6 C       86   6 C                                       1.3858900
    80   6 C       87   6 C                                       1.3988335
    88   6 C       89   6 C                                       1.3480383
    56   6 C       90   6 C                                       1.3885741
    89   6 C       90   6 C                                       1.4524920 (max)
    87   6 C       91   7 N                                       1.3539171
    90   6 C       91   7 N                                       1.3557177
    56   6 C       92   1 H                                       1.0853417
    58   6 C       93   1 H                                       1.0783102
    59   6 C       94   1 H                                       1.0779014
    61   7 N       95   1 H                                       1.0145003 (min)
    64   6 C       96   1 H                                       1.0834348
    65   6 C       97   1 H                                       1.0860588
    67   6 C       98   1 H                                       1.0861080
    68   6 C       99   1 H                                       1.0835893
    70   6 C      100   1 H                                       1.0778492
    71   6 C      101   1 H                                       1.0781796
    76   6 C      102   1 H                                       1.0780529
    77   6 C      103   1 H                                       1.0777390
    79   7 N      104   1 H                                       1.0146977
    82   6 C      105   1 H                                       1.0835758
    83   6 C      106   1 H                                       1.0861168
    85   6 C      107   1 H                                       1.0860965
    86   6 C      108   1 H                                       1.0834660
    88   6 C      109   1 H                                       1.0780726
    89   6 C      110   1 H                                       1.0787334
   111   6 C      112   6 C                                       1.2251976
   113   6 C      114   6 C                                       1.2319504
   115   6 C      116   6 C                                       1.2336603
   117   6 C      118   6 C                                       1.2319637
   119   6 C      120   6 C                                       1.2252116

 * 4 distinct bonds (by element types)

   Z      Z             #   av. dist./Å        max./Å        min./Å
   1 H    6 C          34     1.0816841     1.0861222     1.0777365
   6 C    6 C          59     1.3851138     1.4524920     1.2251976
   1 H    7 N           4     1.0145992     1.0146980     1.0145003
   6 C    7 N          24     1.3500552     1.3698512     1.3290511


optimized geometry written to: xtbopt.xyz


           -------------------------------------------------
          | TOTAL ENERGY             -206.365040091238 Eh   |
          | GRADIENT NORM               0.000486000835 Eh/α |
          | HOMO-LUMO GAP               1.032236165835 eV   |
           -------------------------------------------------

------------------------------------------------------------------------
 * finished run on 2022/07/27 at 18:34:25.519     
------------------------------------------------------------------------
 total:
 * wall-time:     0 d,  0 h,  0 min, 29.457 sec
 *  cpu-time:     0 d,  0 h,  0 min, 29.268 sec
 * ratio c/w:     0.994 speedup
 SCF:
 * wall-time:     0 d,  0 h,  0 min,  0.767 sec
 *  cpu-time:     0 d,  0 h,  0 min,  0.763 sec
 * ratio c/w:     0.995 speedup
 ANC optimizer:
 * wall-time:     0 d,  0 h,  0 min, 28.552 sec
 *  cpu-time:     0 d,  0 h,  0 min, 28.410 sec
 * ratio c/w:     0.995 speedup

