140
 energy: -217.905628819548 gnorm: 29.255082972276 xtb: 6.5.1 (b24c23e)
Cu          15.93285300000000        1.95830900000000        1.63034600000000
C           12.18176200000000        0.06482500000000       -0.02929400000000
C           12.83139400000000        0.91802600000000        0.76781400000000
C           12.16668700000000        1.83666500000000        1.68415500000000
C           13.09689300000000        2.54982400000000        2.29142000000000
C           14.40912400000000        2.12883400000000        1.78130500000000
N           14.24732600000000        1.08465800000000        0.82041300000000
C           15.59453700000000        2.65912300000000        2.14788400000000
C           15.62839900000000        3.77260700000000        3.12377600000000
C           15.14059800000000        5.03971200000000        2.77310500000000
C           15.18879700000000        6.09156600000000        3.69181400000000
C           15.72985400000000        5.89711500000000        4.97259500000000
N           15.76630900000000        7.00043600000000        5.89658900000000
C           16.30772100000000        6.90289100000000        7.24811100000000
C           16.22527400000000        4.62483500000000        5.31808300000000
C           16.17567300000000        3.57306700000000        4.39869900000000
C           16.89367600000000        2.18060400000000        1.60627200000000
C           18.17047800000000        2.87468700000000        1.81408800000000
C           19.11493200000000        2.16495100000000        1.23081700000000
N           17.04983400000000        1.09096600000000        0.91876500000000
C           18.44794100000000        1.01043200000000        0.64156900000000
C           19.05472300000000       -0.00094000000000       -0.00065800000000
C           18.30410300000000       -1.13441600000000       -0.58515000000000
C           18.84583600000000       -2.30184200000000       -0.90853900000000
C           17.81377000000000       -3.09313500000000       -1.54995800000000
C           16.71081000000000       -2.35406100000000       -1.58025300000000
N           16.93047800000000       -1.08105600000000       -0.97057300000000
C           15.44025600000000       -2.76973800000000       -2.22787500000000
C           15.47880900000000       -3.87076500000000       -3.22108600000000
C           16.22452500000000       -3.72738800000000       -4.39974900000000
C           16.28155700000000       -4.76818900000000       -5.33109800000000
C           15.59567000000000       -5.97495100000000       -5.09387900000000
N           15.63441100000000       -7.06529900000000       -6.03306300000000
C           16.37113500000000       -7.01965300000000       -7.29178100000000
C           14.85810000000000       -6.11605600000000       -3.90790800000000
C           14.80239600000000       -5.07533000000000       -2.97706100000000
C           14.27149200000000       -2.16746700000000       -1.93549700000000
C           12.97111600000000       -2.46423700000000       -2.53404800000000
C           12.09881800000000       -1.68798200000000       -1.92048300000000
C           12.83357100000000       -0.88727900000000       -0.94256700000000
N           14.10045200000000       -1.15829600000000       -0.94245900000000
H           11.09816300000000        0.06780300000000       -0.01082400000000
H           11.10124700000000        1.92611000000000        1.85323800000000
H           12.89752800000000        3.30883000000000        3.03650200000000
H           14.72486900000000        5.21176000000000        1.78778900000000
H           14.80501400000000        7.06212600000000        3.40352500000000
H           15.38672900000000        7.92617900000000        5.59337600000000
H           17.38003500000000        6.61809000000000        7.20633600000000
H           15.73772000000000        6.14872100000000        7.83037000000000
H           16.22174900000000        7.88452700000000        7.76018300000000
H           16.65178700000000        4.43694000000000        6.29384200000000
H           16.56277100000000        2.60129300000000        4.68020600000000
H           18.33033400000000        3.80358900000000        2.34558700000000
H           20.16710600000000        2.41590000000000        1.21151100000000
H           19.87256400000000       -2.60459900000000       -0.75230500000000
H           17.93308900000000       -4.09070100000000       -1.95246900000000
H           16.75958700000000       -2.80666100000000       -4.59834900000000
H           16.86291100000000       -4.62316700000000       -6.23127900000000
H           15.10939400000000       -7.94182400000000       -5.81156500000000
H           15.98276400000000       -6.19654800000000       -7.92768700000000
H           16.24460000000000       -7.97856000000000       -7.83741000000000
H           17.45240300000000       -6.86615600000000       -7.09177800000000
H           14.32683900000000       -7.03690700000000       -3.70247900000000
H           14.23531700000000       -5.20874800000000       -2.06387800000000
H           12.74080100000000       -3.16986400000000       -3.32132400000000
H           11.03559000000000       -1.65624900000000       -2.11917200000000
Cu          32.72044100000000       -2.02015100000000       -1.55681300000000
C           36.47153200000000        0.01265600000000       -0.07108700000000
C           35.82189900000000       -0.95141300000000       -0.72980100000000
C           36.48660600000000       -2.04612000000000       -1.42636000000000
C           35.55640000000000       -2.79436300000000       -1.98982900000000
C           34.24416900000000       -2.20468000000000       -1.69029100000000
N           34.40596800000000       -1.03910400000000       -0.88094100000000
C           33.05875700000000       -2.67813600000000       -2.12781400000000
C           33.02489400000000       -3.87347400000000       -3.00152900000000
C           33.51269500000000       -3.80773500000000       -4.31461900000000
C           33.46449700000000       -4.93382000000000       -5.14066500000000
C           32.92344000000000       -6.14131100000000       -4.67143400000000
N           32.88698500000000       -7.28378500000000       -5.54655500000000
C           32.34557200000000       -8.58145600000000       -5.15645900000000
C           32.42801900000000       -6.20086300000000       -3.35442600000000
C           32.47762000000000       -5.07413700000000       -2.52861000000000
C           31.75961800000000       -2.04516100000000       -1.77900500000000
C           30.48281500000000       -2.39941800000000       -2.41101800000000
C           29.53836200000000       -1.67533800000000       -1.84565300000000
N           31.60345900000000       -1.13646200000000       -0.86563600000000
C           30.20535200000000       -0.84837300000000       -0.84752700000000
C           29.59857000000000       -0.00094000000000       -0.00065800000000
C           30.34919000000000        0.81679200000000        0.97797000000000
C           29.80745700000000        1.38712100000000        2.04670300000000
C           30.83952300000000        2.18574400000000        2.67897200000000
C           31.94248300000000        2.05404300000000        1.95109600000000
N           31.72281600000000        1.18128500000000        0.84179700000000
C           33.21303700000000        2.77676000000000        2.21544600000000
C           33.17448400000000        3.98628300000000        3.07322400000000
C           32.42876800000000        5.10526000000000        2.67611900000000
C           32.37173600000000        6.24127000000000        3.48862100000000
C           33.05762400000000        6.27308100000000        4.71806600000000
N           33.01888300000000        7.42754800000000        5.57721300000000
C           32.28215800000000        8.64597600000000        5.25801400000000
C           33.79519400000000        5.14647600000000        5.11454900000000
C           33.85089800000000        4.01097300000000        4.30201100000000
C           34.38180100000000        2.36001200000000        1.69148400000000
C           35.68217700000000        3.00889600000000        1.85050000000000
C           36.55447500000000        2.24073700000000        1.22682900000000
C           35.81972200000000        1.11167100000000        0.65879900000000
N           34.55284100000000        1.17070200000000        0.92331000000000
H           37.55513100000000       -0.00601900000000       -0.06996300000000
H           37.55204599999999       -2.23064600000000       -1.47675600000000
H           35.75576499999999       -3.68710700000000       -2.56797000000000
H           33.92842400000000       -2.88370100000000       -4.69751600000000
H           33.84827900000000       -4.86425400000000       -6.15074300000000
H           33.26656400000000       -7.18987400000000       -6.51615200000000
H           31.27325800000000       -8.47854400000000       -4.88763600000000
H           32.91557400000000       -8.98512600000000       -4.29341200000000
H           32.43154400000000       -9.29538100000000       -6.00270700000000
H           32.00150700000000       -7.11211200000000       -2.95814700000000
H           32.09052200000000       -5.13682000000000       -1.51882600000000
H           30.32295900000000       -3.12079700000000       -3.20156500000000
H           28.48618799999999       -1.71125400000000       -2.09476800000000
H           28.78072900000000        1.30071200000000        2.37625500000000
H           30.72020400000000        2.79622400000000        3.56467300000000
H           31.89370600000000        5.09817200000000        1.73424300000000
H           31.79038299999999        7.08811700000000        3.15067500000000
H           33.54390000000000        7.40264500000000        6.48094700000000
H           32.67052900000000        9.08695800000000        4.31598900000000
H           32.40869300000000        9.38769100000000        6.07476000000000
H           31.20089000000000        8.41730000000000        5.15185700000000
H           34.32645400000000        5.14692600000000        6.05803700000000
H           34.41797700000000        3.14890500000000        4.63147100000000
H           35.91249200000000        3.93116900000000        2.36734100000000
H           37.61770299999999        2.42771400000000        1.15250600000000
C           19.82275300000000        0.01551500000000        0.01085300000000
C           21.28097900000000       -0.00632100000000       -0.00702000000000
C           22.41490800000000       -0.02707500000000       -0.00851100000000
C           23.77628900000000       -0.03966500000000       -0.01070200000000
C           25.05050800000000       -0.02935800000000       -0.01546700000000
C           26.23897100000000       -0.01056000000000       -0.02162400000000
C           27.59133100000000        0.01422400000000       -0.00575600000000
C           28.69159900000000        0.01551500000000        0.01085300000000
140
 energy: -230.605041334432 gnorm: 5.591657091071 xtb: 6.5.1 (b24c23e)
Cu          15.86493231334383        1.77772926956204        1.52547848295869
C           12.18178777100281        0.06393725107553       -0.03014199750517
C           12.83190994092327        0.91847030858294        0.76823497648050
C           12.16625392545015        1.83608813314938        1.68363994733912
C           13.09722829066547        2.55000025358215        2.29167245109304
C           14.39719280952599        2.12848465174598        1.78159328131733
N           14.24550719515016        1.08488831991994        0.82053702526022
C           15.52124939414268        2.81003566098465        2.26002226752209
C           15.62768452134609        3.77416958613188        3.12472538952603
C           15.14060195645941        5.04005044471930        2.77343763712706
C           15.18880653537420        6.09141039753262        3.69173275140030
C           15.72989404881541        5.89762143464741        4.97308634638428
N           15.76614282117993        7.00028940282383        5.89603226932490
C           16.30772756958715        6.90287280336169        7.24811144572043
C           16.22521825280192        4.62478610471696        5.31794138821629
C           16.17564546371756        3.57338330683542        4.39890164599402
C           17.04208648130212        2.21493680506693        1.60274522496242
C           18.17131473802969        2.87540785004630        1.81442360077474
C           19.11549340427475        2.16384928757653        1.23007170145651
N           17.05546710077173        1.08585044208908        0.91442217335303
C           18.44483439110719        1.01283681643150        0.64316130366741
C           18.98622343382677       -0.00357458997786       -0.00233751476461
C           18.30087284885759       -1.13450224783678       -0.58580284823173
C           18.84606940331538       -2.30319203014459       -0.90905792158593
C           17.81525921903850       -3.09349715005173       -1.54973281517809
C           16.70964630360178       -2.35304700389883       -1.58030164474721
N           16.93118348186706       -1.08150260285171       -0.97058107783766
C           15.44108961968032       -2.76959478585614       -2.22760814735089
C           15.47890094030470       -3.87076664215986       -3.22101110851326
C           16.22445787874009       -3.72766534140508       -4.39977582273544
C           16.28146901382301       -4.76817810388755       -5.33095613741125
C           15.59572005735371       -5.97535204410179       -5.09428814675187
N           15.63418265738279       -7.06520524219673       -6.03258699786543
C           16.37113050411121       -7.01963834216216       -7.29175921130920
C           14.85814239596744       -6.11591390318477       -3.90787230573284
C           14.80246923535661       -5.07537615849410       -2.97732256020147
C           14.27108089136183       -2.16708874834035       -1.93520206401971
C           12.97154335739923       -2.46449291855169       -2.53422059194927
C           12.09828877661196       -1.68760368076301       -1.92019691932623
C           12.83275424568758       -0.88682407970703       -0.94217686121288
N           14.10082285750686       -1.15881102880203       -0.94292822772882
H           11.09815154837937        0.06778773593260       -0.01086457455500
H           11.10126612832105        1.92602970891618        1.85315702596850
H           12.89770228666883        3.30884905028464        3.03649344791570
H           14.72487059588511        5.21173895174802        1.78778872054110
H           14.80501646015702        7.06214320645489        3.40353568313761
H           15.38692822284718        7.92564274331767        5.59349732342327
H           17.37985040945793        6.61812092202798        7.20638025816262
H           15.73784921153569        6.14884087040723        7.83029463619547
H           16.22174516409413        7.88432251877547        7.76001909821257
H           16.65178869599650        4.43695845478932        6.29385728053201
H           16.56276799579887        2.60127659766275        4.68019399578729
H           18.33019746528486        3.80362575978639        2.34563745977789
H           20.16709036062322        2.41578111682493        1.21142846501012
H           19.87255855389098       -2.60463014284806       -0.75229604371227
H           17.93313953385625       -4.09069110621254       -1.95242441808623
H           16.75957965223943       -2.80666222405044       -4.59833528054263
H           16.86291244420499       -4.62318845541640       -6.23130590265369
H           15.10967237784707       -7.94131321367761       -5.81164537381393
H           15.98286781447784       -6.19667963699517       -7.92760267794502
H           16.24459869515105       -7.97836255122397       -7.83724967527623
H           17.45222982391528       -6.86616202351398       -7.09185138459043
H           14.32683913268630       -7.03693538155673       -3.70249221678391
H           14.23532485664575       -5.20873542734264       -2.06387604558638
H           12.74092376701834       -3.16986882226009       -3.32130759181717
H           11.03557290170824       -1.65617909723437       -2.11910754115902
Cu          32.78827388986821       -1.87842647421351       -1.40348589418749
C           36.47148172428267        0.01368203545952       -0.07040194976474
C           35.82140340530137       -0.95191431301750       -0.73012618372613
C           36.48702388605201       -2.04550560301241       -1.42591837956623
C           35.55611378869607       -2.79464090458590       -1.98994312708613
C           34.25604548632995       -2.20478862009569       -1.68982827804167
N           34.40780829503769       -1.03932482674286       -0.88118112945560
C           33.13206523005273       -2.82052199687895       -2.25063761000935
C           33.02560703250838       -3.87472809643177       -3.00283688966215
C           33.51269339577438       -3.80813481983391       -4.31488171255217
C           33.46448784358900       -4.93370744253682       -5.14053049436361
C           32.92339953141703       -6.14189366386932       -4.67181442048796
N           32.88715141473671       -7.28321777404524       -5.54654021398217
C           32.34556605665462       -8.58145064477276       -5.15644178713406
C           32.42807567160816       -6.20071360611338       -3.35440965815349
C           32.47764707005292       -5.07441138364677       -2.52887311195236
C           31.61130141329186       -2.04919646589345       -1.81324418159523
C           30.48182280606865       -2.39984672810180       -2.41161221202226
C           29.53784038082771       -1.67455515154385       -1.84493717391328
N           31.59780717892509       -1.13106669030001       -0.86159666500492
C           30.20756942069125       -0.84975946675592       -0.84878868057201
C           29.63187656319143       -0.00067534651849       -0.00004111527898
C           30.35161409611674        0.81689101943843        0.97722959410025
C           29.80732775292061        1.38806312217927        2.04805391564786
C           30.83791836134169        2.18559888501572        2.67940869323852
C           31.94379564723929        2.05393033746549        1.95010660100216
N           31.72212839470085        1.18138146357077        0.84227291830311
C           33.21206756049156        2.77645760793117        2.21537903638060
C           33.17439876868813        3.98621006521568        3.07324889685783
C           32.42883637914870        5.10534441760662        2.67638230737529
C           32.37182489411192        6.24112933459174        3.48864274315844
C           33.05757345192182        6.27356454853994        4.71836514337520
N           33.01911160927077        7.42706571354493        5.57722743269165
C           32.28216287220432        8.64595079928927        5.25800463980614
C           33.79515121613210        5.14641118418570        5.11441893845073
C           33.85082426345294        4.01123925141219        4.30199846560607
C           34.38227969957028        2.35958458868061        1.69111834868725
C           35.68173419563600        3.00911993909443        1.85071301648166
C           36.55501275055572        2.24036041068640        1.22651494304349
C           35.82058985793161        1.11118207812809        0.65842619673983
N           34.55243206912029        1.17131694803400        0.92374918716970
H           37.55514355316924       -0.00597433192977       -0.06995938172046
H           37.55202790933944       -2.23055013133014       -1.47669447684469
H           35.75559113032679       -3.68710208130002       -2.56798984068800
H           33.92842165769228       -2.88369576055383       -4.69749640186424
H           33.84827652035853       -4.86426830052807       -6.15075810214919
H           33.26636443291220       -7.18987560834914       -6.51560191495436
H           31.27344216224187       -8.47859421840587       -4.88765625061180
H           32.91544478485923       -8.98507906810230       -4.29354496462421
H           32.43154773876986       -9.29517694331398       -6.00254336906457
H           32.00150482984800       -7.11213122027244       -2.95816188334222
H           32.09052501832112       -5.13680408396138       -1.51881324383984
H           30.32309811456236       -3.12086151668918       -3.20159540132219
H           28.48620697332423       -1.71115958321481       -2.09468302754029
H           28.78073941106226        1.30071594923186        2.37629713293294
H           30.72016083910517        2.79618490852275        3.56467975745641
H           31.89371353717574        5.09815836475726        1.73424749307134
H           31.79038138704095        7.08814792368208        3.15069014713405
H           33.54362149305951        7.40261204640826        6.48043096181665
H           32.67042513642011        9.08690460388177        4.31613567001509
H           32.40869424673511        9.38749174406330        6.07460241105768
H           31.20106300224836        8.41737299790968        5.15184677288117
H           34.32645394572086        5.14694525121742        6.05806224431183
H           34.41796919164508        3.14890043429047        4.63145954347049
H           35.91236912888954        3.93115367296895        2.36734901496299
H           37.61772053952161        2.42763574036877        1.15245121084875
C           19.89558098923806        0.01646038102317        0.01141172386174
C           21.27668974697007       -0.00624419056887       -0.00702879448528
C           22.42028715269942       -0.02714858557567       -0.00850723975074
C           23.77550824260830       -0.03966324201584       -0.01070678463068
C           25.04763624743542       -0.02939436671925       -0.01546159177009
C           26.24246329951542       -0.01050142211211       -0.02160912061613
C           27.58051299619813        0.01423696277795       -0.00587600809260
C           28.66553617001510        0.01647450187498        0.01159750842493
140
 energy: -232.101162570133 gnorm: 3.372557971323 xtb: 6.5.1 (b24c23e)
Cu          15.80359352025769        1.74373798031931        1.51888338798938
C           12.18259209067301        0.05813720453419       -0.03566804234052
C           12.83429119681496        0.91954995698386        0.77101746211755
C           12.16255944782037        1.83276921460608        1.68068871181398
C           13.09328491951220        2.55145044370603        2.29602128385193
C           14.34682732292427        2.13573885704988        1.78618266887737
N           14.23096904003591        1.09076605583529        0.82183005890585
C           15.53068328566680        2.79611585289307        2.24784606157981
C           15.62880283187198        3.78556623239157        3.13349384581562
C           15.13928086139983        5.04671534332268        2.77695961091322
C           15.18913629361574        6.09126475233923        3.69158184389610
C           15.73020590111180        5.90111910563327        4.97644102018580
N           15.76506720241943        6.99940815372796        5.89251057109160
C           16.30752783044380        6.90270439638834        7.24735518605973
C           16.22491595910935        4.62514777418235        5.31745610606830
C           16.17752945178463        3.57713752776775        4.40383300412135
C           17.09647867330909        2.24947320898364        1.61869552744171
C           18.17635506393412        2.88892124065025        1.82207538962275
C           19.12260377684226        2.15509155678374        1.22348360480151
N           17.09443728082547        1.07279419486013        0.90147247040073
C           18.42898024598988        1.03059251511892        0.65281552341067
C           18.88614903708304       -0.01425169926657       -0.00928744827136
C           18.27662000388615       -1.13615493614386       -0.59078350723620
C           18.84633429940727       -2.31368748419064       -0.91352708070019
C           17.82570185648742       -3.09618029956364       -1.54859943625713
C           16.70230875064876       -2.34637926221031       -1.58100571395836
N           16.93322704396418       -1.08560585655581       -0.97152445656486
C           15.44729016854996       -2.76784325993230       -2.22528599112534
C           15.48006704315207       -3.87071654585223       -3.22007357085039
C           16.22394359646894       -3.72994351640549       -4.39981260339979
C           16.28062285364096       -4.76859904349574       -5.33009099686774
C           15.59599119253016       -5.97842242699697       -5.09726524271536
N           15.63263893368637       -7.06413200024675       -6.02906873133979
C           16.37074997182358       -7.01939592483874       -7.29093259855210
C           14.85861238786532       -6.11499962606872       -3.90807789681312
C           14.80300738710127       -5.07552144387494       -2.97943222230708
C           14.26869724347454       -2.16446990432503       -1.93315794919379
C           12.97408189145937       -2.46570709177812       -2.53493755008578
C           12.09428437923769       -1.68487795179850       -1.91811864807815
C           12.82721600456196       -0.88421650597056       -0.93963421508307
N           14.10240909898631       -1.16262849852530       -0.94658991514200
H           11.09824658085168        0.06761321854540       -0.01157775534852
H           11.10088553580105        1.92499783138983        1.85200160353407
H           12.89923544957376        3.30951315799274        3.03686689769023
H           14.72506130004297        5.21161234644668        1.78811350974963
H           14.80512276234080        7.06239689462470        3.40366826753389
H           15.38871134075924        7.92070183753795        5.59440056368153
H           17.37809952139269        6.61840967604511        7.20685532712811
H           15.73916029374564        6.14999306161357        7.82960771578533
H           16.22171265783607        7.88237687497727        7.75838223184280
H           16.65170412179246        4.43715027984419        6.29401328736517
H           16.56254336167340        2.60142276398428        4.68007048414499
H           18.33021343289135        3.80582846469357        2.34710299064644
H           20.16822187798319        2.41365030756375        1.20979617319767
H           19.87275396065711       -2.60515008347733       -0.75215916492319
H           17.93406020574566       -4.09101572877710       -1.95203680795836
H           16.75935626182330       -2.80694579067185       -4.59816714213785
H           16.86279749851871       -4.62337353896737       -6.23138977072766
H           15.11208341681804       -7.93655041257851       -5.81212264590837
H           15.98387219011066       -6.19793672692906       -7.92676187863422
H           16.24449974038673       -7.97641779803487       -7.83558134214496
H           17.45050652372697       -6.86618576739183       -7.09256808058586
H           14.32688827413979       -7.03702858842065       -3.70258708789491
H           14.23553798783299       -5.20858614679180       -2.06409603230954
H           12.74236953312720       -3.17002032563623       -3.32121299202373
H           11.03489436454572       -1.65532085101437       -2.11842524962596
Cu          32.84946978956977       -1.86480981699565       -1.37195232250889
C           36.47066957353235        0.02047309156665       -0.06586011862154
C           35.81896986939181       -0.95502286594591       -0.73060943020065
C           36.49076303391924       -2.04184474477495       -1.42328052382653
C           35.56001130715340       -2.79922728131052       -1.99036785262793
C           34.30650763046604       -2.21084591950789       -1.69585422336888
N           34.42251284452011       -1.04167612341757       -0.88669611714745
C           33.12242303446092       -2.80567899286520       -2.23972997929469
C           33.02447897394955       -3.88565890189288       -3.01199382786398
C           33.51405478464861       -3.81301339927549       -4.32064297046067
C           33.46413152834403       -4.93352390666650       -5.14041414749363
C           32.92308354747304       -6.14591067304183       -4.67446563222780
N           32.88822747662611       -7.27962537381988       -5.54648206776088
C           32.34576800107751       -8.58067228475105       -5.15644519706669
C           32.42839949105296       -6.20031868425250       -3.35489101317131
C           32.47574052738012       -5.08003435949899       -2.53142884148673
C           31.55739380571746       -2.07204251254466       -1.84311329543863
C           30.47569134562013       -2.41011907149528       -2.42324512409155
C           29.53064879498039       -1.66670984045681       -1.83831704183453
N           31.55902321473406       -1.11539518457964       -0.85171533943156
C           30.22565755611478       -0.86032071250455       -0.86074420567152
C           29.74949350785836        0.00368468537017        0.00585991494314
C           30.37556188114386        0.81972252349629        0.97514953397715
C           29.80708832510211        1.39496322331217        2.05728761732315
C           30.82688151557734        2.18489577419381        2.68230808230629
C           31.95147934281056        2.05296800491754        1.94304979656092
N           31.72063914490127        1.18345372843435        0.84658295003219
C           33.20576799609338        2.77384975072032        2.21416626045647
C           33.17323778989511        3.98530105092446        3.07342086275037
C           32.42935260533447        5.10588090504966        2.67859710086602
C           32.37266890570056        6.24037838035075        3.48924410473359
C           33.05730241909077        6.27714233911287        4.72071313825558
N           33.02065559055467        7.42339663878886        5.57694680962247
C           32.28254308138924        8.64509179334291        5.25794788345380
C           33.79468237823149        5.14641452749105        5.11348446724713