183
 energy: -322.927494556067 gnorm: 0.000602787159 xtb: 6.5.1 (b24c23e)
Zn          34.54654387488984        0.01493422693262        0.00248426411937
C           31.13342866683395        0.05841756736385       -0.04921081581194
C           31.76613596930100        1.28711511998065        0.09433977923852
C           31.09506619936274        2.54535542013211        0.26593249592362
C           32.05612725237935        3.49565680278030        0.37819976644323
C           33.32712841433109        2.82991126679791        0.26281272885168
N           33.11607230538163        1.49205093206721        0.10388236730210
C           34.58138098381004        3.44964469302995        0.32028716802130
C           34.60375281492165        4.92308661909824        0.47755631714320
C           35.21306789542220        5.50254615725018        1.59535669364356
C           35.22931321667039        6.87499772641795        1.74961909910296
C           34.64257870675955        7.70241316226187        0.78608730656936
C           34.67386430099794        9.16385762110186        0.97290490950739
O           35.17628849553464        9.70674275306738        1.92372985410108
C           34.03807137798443        7.12575588616679       -0.33373045646075
C           34.01666130399226        5.75066741144989       -0.48398848954717
C           35.81927975414606        2.79967354118005        0.24415918706124
C           37.09511321807073        3.45821952779263        0.20641847618744
C           38.04074774607197        2.48896643462715        0.11725945142645
N           36.01435684410144        1.44730426346163        0.16142429454101
C           37.35703727286791        1.22997731517005        0.10107798902878
C           37.99112271449683       -0.02787104676396        0.03665475753442
C           37.33019890936036       -1.27099481235315       -0.03825066120678
C           37.98703302177329       -2.54245171103572       -0.10908787479533
C           37.01987460115787       -3.48888283674300       -0.21074357851311
C           35.75687446545366       -2.80510045721620       -0.18721064118896
N           35.98250040392971       -1.45866421889721       -0.08210989811031
C           34.50461897471444       -3.42008355170327       -0.30063610325459
C           34.48401778015455       -4.89689944472280       -0.43594884855415
C           33.97086049759808       -5.48841913023634       -1.59386222894527
C           33.94922041832792       -6.86505627128593       -1.72839068983486
C           34.43521535867227       -7.67972411831802       -0.70277250453886
C           34.41844444740296       -9.14885748734135       -0.81894904525706
O           34.82093861943497       -9.89316361706595        0.03841881630579
C           34.94577923769906       -7.08848654048463        0.45774679962742
C           34.97258193389388       -5.71338747305852        0.58845844040798
C           33.26666371239919       -2.76603739251636       -0.29893795226090
C           31.98088367480816       -3.40995145674720       -0.36410790739448
C           31.04094254655727       -2.43494977969229       -0.29321580795169
C           31.73951090706051       -1.18547173980608       -0.17562125125815
N           33.08474663825181       -1.41967115582055       -0.18176090927322
H           30.04793458374972        0.07021951835153       -0.05081180640789
H           30.02446921901491        2.67217906835680        0.30276260159597
H           31.92074427317538        4.55336571393701        0.53784918988600
H           35.65810091801204        4.86345095946041        2.34974495501138
H           35.69379794665614        7.33101992567536        2.61736865328305
H           34.18773089855083        9.73854768716375        0.15577542568161
H           33.58532118889170        7.76044338943931       -1.08864069455361
H           33.55867033949386        5.30714709685380       -1.36098897222244
H           37.24652441566167        4.52538747604262        0.22468848240301
H           39.10873889978028        2.61340048159928        0.05075921762677
H           39.05405206417975       -2.68928104417292       -0.08382811115433
H           37.15051210423231       -4.55494453335042       -0.30287915347986
H           33.60334305030641       -4.85806962129354       -2.39589373352941
H           33.55478670692575       -7.31509492947670       -2.63370025079388
H           33.99755595287720       -9.52554785028400       -1.77566899280254
H           35.31691942829593       -7.72903316148351        1.25060669657902
H           35.35699559065578       -5.25884148750293        1.49459053497609
H           31.82238310052994       -4.47379326420646       -0.43978319200116
H           29.96758752609992       -2.54096808217335       -0.30986542819143
Zn          56.41110502867448       -0.04729412980041       -0.01081977176173
C           59.82241292423321       -0.06589267748253       -0.07947012670735
C           59.19646444560740       -1.30613405138023       -0.10211054408672
C           59.87510516963220       -2.57190340577063       -0.11796003954923
C           58.91983750935669       -3.53449325237175       -0.10894078431078
C           57.64434180761001       -2.86727864118665       -0.09669477317159
N           57.84768031731126       -1.51883871630174       -0.08844664850726
C           56.39558286877583       -3.49925062933262       -0.04923309766292
C           56.38721524559175       -4.98159859723461       -0.06604310865554
C           55.85695747850617       -5.70178966493611        1.00908534864781
C           55.84728244439770       -7.08296452362886        0.98781689352387
C           56.36374804913315       -7.77785644598651       -0.11110341641837
C           56.33610609572550       -9.25112455418711       -0.11326540449238
O           55.89434311328586       -9.91425436174324        0.79032546332940
C           56.89477145988509       -7.06005554519433       -1.18569225189738
C           56.90828432646601       -5.67699407983300       -1.16116460413084
C           55.15410738716889       -2.85490339560507        0.01248920137270
C           53.87818854611676       -3.51499859029395        0.03026305456666
C           52.92838619016260       -2.54625987724243        0.06263083091282
N           54.95359729613991       -1.50068466988062        0.02182151944261
C           53.60982255941320       -1.28571005188685        0.04928222036568
C           52.97145804975832       -0.02922032030643        0.04605191018259
C           53.62213260842594        1.22072025772919        0.02949241567621
C           52.95481781918553        2.48791314607933       -0.02415873937981
C           53.91596358536777        3.44613689240534       -0.02536311124945
C           55.18376142114469        2.77260609208846        0.03038569282124
N           54.96831246695158        1.42089861510503        0.04984502221766
C           56.43331879057810        3.40421216136170        0.02937560360689
C           56.44188965749104        4.88622984390785        0.04953048453383
C           57.02755698860607        5.60463269564722       -0.99705328498680
C           57.03834458893891        6.98785663781361       -0.97922578480818
C           56.46823115137267        7.68245028043578        0.09048681066875
C           56.47404697008253        9.15558392557663        0.13735876909869
O           56.00529607934958        9.79866243110719        1.04152030904092
C           55.88277771174553        6.96453733303330        1.13879540225825
C           55.86696418723752        5.58343455259139        1.11693469231757
C           57.67612496186094        2.75887536903087        0.00947754717352
C           58.95889102357967        3.41017876851808        0.05865280679904
C           59.90337811930119        2.43755001264938        0.02369477550403
C           59.21051817435006        1.18091167290770       -0.03634329707298
N           57.86420551878975        1.40889969775521       -0.03622473112398
H           60.90796190351109       -0.07185881266331       -0.08513175964152
H           60.94662812773042       -2.69594578834387       -0.12659857021617
H           59.06202700515922       -4.60325195947162       -0.09720004161312
H           55.46759464599904       -5.16697600556200        1.86806951380021
H           55.44120668391213       -7.64829093760591        1.81979247807827
H           56.76314543076282       -9.71372979774214       -1.02868606481414
H           57.29517889213943       -7.59086142711577       -2.04338561443254
H           57.30815444819209       -5.12274089140768       -2.00292382207239
H           53.72718743305077       -4.58213526464435        0.00960043185592
H           51.85836718026432       -2.67070705752396        0.09398695865345
H           51.88640146823875        2.62281931577408       -0.06930990387060
H           53.77954203120714        4.51422055643350       -0.07738075932956
H           57.45974551579165        5.06890222216666       -1.83482664834452
H           57.49030667755538        7.53686359477776       -1.79901288154470
H           56.95432648414052        9.63756448669025       -0.74094875373647
H           55.44519887913748        7.51196179115011        1.96675456931195
H           55.42415027733134        5.02994914437209        1.93736025277069
H           59.11281335692438        4.47522349092509        0.12614816780605
H           60.97614455763370        2.54874096462148        0.04428716129294
C           39.40206409005128       -0.03991510062398        0.03980199737221
C           40.62011935896383       -0.04152914107715        0.04784493049662
C           50.34360182635486       -0.02406475610619        0.04166811046979
C           51.56108295229603       -0.02380853149057        0.04607856140878
Zn          45.48323374537707       -0.02984664977782        0.03649215286740
C           42.03076351361906       -0.04056159450941        0.04923671487708
C           42.67805269961312        1.13831729819573        0.47302988156792
C           42.00572453012071        2.33178114286103        0.89192721933514
C           42.96205824645266        3.24382240444630        1.20084589833425
C           44.23242283183210        2.60843196136335        0.99181308590396
N           44.02370544753961        1.33094651189480        0.54550702124849
C           45.47878709543646        3.21266110578040        1.19044549884876
C           45.47880566310499        4.61796170819751        1.66569057670194
C           46.02390513720118        5.62822826679339        0.86725778597963
C           46.01512920236481        6.94045039574520        1.29881087709586
C           45.46769647985597        7.27246729467170        2.54252392564162
C           45.46939066506834        8.68061579869529        2.97944026282447
O           45.91913708858162        9.58401045971979        2.32213871999214
C           44.92950476784526        6.26318616152311        3.34447564881625
C           44.93278823263050        4.94999071010029        2.90848243440673
C           46.72715652358394        2.61719409562806        0.97861294735082
C           47.99431271725690        3.22851272801369        1.26631253807174
C           48.95399295017312        2.32050922609972        0.95484270820990
N           46.93949602360284        1.34969755082500        0.50844178974317
C           48.28501962354028        1.14790285628813        0.47463638640303
C           48.93370323777977       -0.02435380199879        0.03783195321526
C           48.28821201336662       -1.19578750775089       -0.40661716449894
C           48.96070083433928       -2.35890952938199       -0.90399806380071
C           48.00406411640709       -3.26525744952591       -1.22960163895903
C           46.73512967257879       -2.66374352635661       -0.93026160369675
N           46.94337787695861       -1.40247253784200       -0.44151167772973
C           45.48876595141612       -3.26248956762763       -1.14539262668195
C           45.49309354797077       -4.65505669609043       -1.65637412935120
C           46.05303115127963       -5.68296941008669       -0.89248963030666
C           46.05571890139959       -6.98436193804155       -1.36183060904632
C           45.50445225332939       -7.28296675583059       -2.61027826224783
C           45.49970710541777       -8.65990216538752       -3.13633299596956
O           45.04285229186029       -8.96509503503668       -4.20833126930786
C           44.94775837331667       -6.25387411779336       -3.37708254804591
C           44.93907314523371       -4.95580458204327       -2.90433253586237
C           44.24038522366315       -2.66986882042307       -0.92651960856254
C           42.97256182707154       -3.31352584232858       -1.12599935546901
C           42.01307017714459       -2.41193033073646       -0.79693536309159
C           42.68135421400083       -1.21579968957458       -0.37897540788645
N           44.02745655596884       -1.39835641818046       -0.46584862427831
H           40.93665004426488        2.45379456128620        0.94278465494166
H           42.81912323995615        4.25928502826857        1.53306635986698
H           46.43841273013135        5.37500150711654       -0.10208390605171
H           46.42856578023510        7.73094453203014        0.68167489227923
H           45.01582530242894        8.84847211454567        3.97950983207495
H           44.50791678973888        6.51134738804448        4.31313924637126
H           44.52453242301555        4.16723983700641        3.53791257686074
H           48.13055478677778        4.21857511632390        1.67048419635099
H           50.02214346814643        2.42666100588957        1.05236157491517
H           50.02884064746303       -2.45957573609529       -1.00594175223469
H           48.14416235602435       -4.24770702288773       -1.65071770451334
H           46.47223735116955       -5.45516865803787        0.08115332880320
H           46.48618693115690       -7.77715984691066       -0.75869437981167
H           45.95580682001354       -9.40983608304951       -2.45543044625970
H           44.52601843319217       -6.49440155728731       -4.34710729642550
H           44.51744651364486       -4.15860163234479       -3.50613523448063
H           42.83399237089797       -4.32735091599281       -1.46501348531680
H           40.94434630878857       -2.54285819714988       -0.83245965786447
