      -----------------------------------------------------------      
     |                   =====================                   |     
     |                           x T B                           |     
     |                   =====================                   |     
     |                         S. Grimme                         |     
     |          Mulliken Center for Theoretical Chemistry        |     
     |                    University of Bonn                     |     
      -----------------------------------------------------------      

   * xtb version 6.5.1 (b24c23e) compiled by 'conda@728c89f4b128' on 2022-07-12

   xtb is free software: you can redistribute it and/or modify it under
   the terms of the GNU Lesser General Public License as published by
   the Free Software Foundation, either version 3 of the License, or
   (at your option) any later version.
   
   xtb is distributed in the hope that it will be useful,
   but WITHOUT ANY WARRANTY; without even the implied warranty of
   MERCHANTABILITY or FITNESS FOR A PARTICULAR PURPOSE.  See the
   GNU Lesser General Public License for more details.
   
   Cite this work as:
   * C. Bannwarth, E. Caldeweyher, S. Ehlert, A. Hansen, P. Pracht,
     J. Seibert, S. Spicher, S. Grimme, WIREs Comput. Mol. Sci., 2020, 11,
     e01493. DOI: 10.1002/wcms.1493
   
   for GFN2-xTB:
   * C. Bannwarth, S. Ehlert and S. Grimme., J. Chem. Theory Comput., 2019,
     15, 1652-1671. DOI: 10.1021/acs.jctc.8b01176
   for GFN1-xTB:
   * S. Grimme, C. Bannwarth, P. Shushkov, J. Chem. Theory Comput., 2017,
     13, 1989-2009. DOI: 10.1021/acs.jctc.7b00118
   for GFN0-xTB:
   * P. Pracht, E. Caldeweyher, S. Ehlert, S. Grimme, ChemRxiv, 2019, preprint.
     DOI: 10.26434/chemrxiv.8326202.v1
   for GFN-FF:
   * S. Spicher and S. Grimme, Angew. Chem. Int. Ed., 2020, 59, 15665-15673.
     DOI: 10.1002/anie.202004239
   
   for ALPB and GBSA implicit solvation:
   * S. Ehlert, M. Stahn, S. Spicher, S. Grimme, J. Chem. Theory Comput.,
     2021, 17, 4250-4261. DOI: 10.1021/acs.jctc.1c00471
   
   for DFT-D4:
   * E. Caldeweyher, C. Bannwarth and S. Grimme, J. Chem. Phys., 2017,
     147, 034112. DOI: 10.1063/1.4993215
   * E. Caldeweyher, S. Ehlert, A. Hansen, H. Neugebauer, S. Spicher,
     C. Bannwarth and S. Grimme, J. Chem. Phys., 2019, 150, 154122.
     DOI: 10.1063/1.5090222
   * E. Caldeweyher, J.-M. Mewes, S. Ehlert and S. Grimme, Phys. Chem. Chem. Phys.
     2020, 22, 8499-8512. DOI: 10.1039/D0CP00502A
   
   for sTDA-xTB:
   * S. Grimme and C. Bannwarth, J. Chem. Phys., 2016, 145, 054103.
     DOI: 10.1063/1.4959605
   
   in the mass-spec context:
   * V. Asgeirsson, C. Bauer and S. Grimme, Chem. Sci., 2017, 8, 4879.
     DOI: 10.1039/c7sc00601b
   * J. Koopman and S. Grimme, ACS Omega 2019, 4, 12, 15120-15133.
     DOI: 10.1021/acsomega.9b02011
   
   for metadynamics refer to:
   * S. Grimme, J. Chem. Theory Comput., 2019, 155, 2847-2862
     DOI: 10.1021/acs.jctc.9b00143
   
   for SPH calculations refer to:
   * S. Spicher and S. Grimme, J. Chem. Theory Comput., 2021, 17, 1701-1714
     DOI: 10.1021/acs.jctc.0c01306
   
   with help from (in alphabetical order)
   P. Atkinson, C. Bannwarth, F. Bohle, G. Brandenburg, E. Caldeweyher
   M. Checinski, S. Dohm, S. Ehlert, S. Ehrlich, I. Gerasimov, C. Hölzer
   A. Katbashev, J. Koopman, C. Lavigne, S. Lehtola, F. März, M. Müller,
   F. Musil, H. Neugebauer, J. Pisarek, C. Plett, P. Pracht, F. Pultar,
   J. Seibert, P. Shushkov, S. Spicher, M. Stahn, M. Steiner, T. Strunk,
   J. Stückrath, T. Rose, and J. Unsleber
   
 * started run on 2022/07/30 at 06:22:52.822     

           -------------------------------------------------
          |                Calculation Setup                |
           -------------------------------------------------

          program call               : xtb Ni_p-CP_C4_4.xyz --gfn 1 --opt -T 48
          hostname                   : cx3-14-28.cx3.hpc.ic.ac.uk
          coordinate file            : Ni_p-CP_C4_4.xyz
          omp threads                :                     1

   ID    Z sym.   atoms
    1   28 Ni     1, 63, 137, 198
    2    6 C      2-6, 8-11, 13-24, 27-32, 35-39, 42, 43, 64-68, 70-73,
                  75-86, 89-94, 97-101, 104, 105, 125-136, 138-142, 144-147,
                  149-160, 163-168, 171-175, 178, 179, 199-203, 205-208,
                  210-221, 224-229, 232-236, 239, 240
    3    7 N      7, 12, 33, 34, 69, 74, 95, 96, 143, 148, 169, 170, 204,
                  209, 230, 231
    4    8 O      25, 26, 40, 41, 87, 88, 102, 103, 161, 162, 176, 177, 222,
                  223, 237, 238
    5    1 H      44-62, 106-124, 180-197, 241-258

molecular fragmentation (1/2 indicates fragments):
111111111111111111111111111111111111111111111111111111111111112222222222
222222222222222222222222222222222222222222222222222222222222222222222222
222222222222222222222222222222222222222222222222222222222222222222222222
222222222222222222222222222222222222222222
# atoms in fragment 1/2:    62   196
 fragment masses (1/2) :      606.23     1960.81
CMA distance (Bohr)    :  54.128
constraining FC (au)   :  0.0500
########################################################################
[WARNING] Please study the warnings concerning your input carefully
-1- prog_main_parseArguments: Unknown option '-T' provided
########################################################################

           -------------------------------------------------
          |                 G F N 1 - x T B                 |
           -------------------------------------------------

        Reference                      10.1021/acs.jctc.7b00118
      * Hamiltonian:
        H0-scaling (s, p, d)           1.850000    2.250000    2.000000
        zeta-weighting                 0.000000
      * Dispersion:
        s8                             2.400000
        a1                             0.630000
        a2                             5.000000
        s9                             0.000000
      * Repulsion:
        kExp                           1.500000
        rExp                           1.000000
      * Coulomb:
        alpha                          2.000000
        third order                    atomic
        anisotropic                    false
      * Halogen bond correction:
        rad-scale                      1.300000
        damping                        0.440000


          ...................................................
          :                      SETUP                      :
          :.................................................:
          :  # basis functions                 908          :
          :  # atomic orbitals                 904          :
          :  # shells                          520          :
          :  # electrons                       882          :
          :  # halogen bonds                     0          :
          :  max. iterations                   250          :
          :  Hamiltonian                  GFN1-xTB          :
          :  restarted?                      false          :
          :  GBSA solvation                  false          :
          :  PC potential                    false          :
          :  electronic temp.          300.0000000     K    :
          :  accuracy                    1.0000000          :
          :  -> integral cutoff          0.2500000E+02      :
          :  -> integral neglect         0.1000000E-07      :
          :  -> SCF convergence          0.1000000E-05 Eh   :
          :  -> wf. convergence          0.2000000E-04 e    :
          :  Broyden damping             0.4000000          :
          ...................................................

 iter      E             dE          RMSdq      gap      omega  full diag
   1   -499.0755297 -0.499076E+03  0.106E+01    0.25       0.0  T
   2   -427.3729340  0.717026E+02  0.991E+00    0.21       1.0  T
   3   -233.5652522  0.193808E+03  0.115E+01    0.02       1.0  T
   4    488.2373407  0.721803E+03  0.140E+01    0.03       1.0  T
   5   2427.0929432  0.193886E+04  0.191E+01    0.07       1.0  T
   6   1884.5849916 -0.542508E+03  0.169E+01    0.03       1.0  T
   7      7.3897471 -0.187720E+04  0.100E+01    0.01       1.0  T
   8   -289.7174040 -0.297107E+03  0.821E+00    0.01       1.0  T
   9   -450.3365812 -0.160619E+03  0.577E+00    0.04       1.0  T
  10   -493.1884726 -0.428519E+02  0.406E+00    0.05       1.0  T
  11   -497.6838276 -0.449536E+01  0.319E+00    0.01       1.0  T
  12   -496.2546858  0.142914E+01  0.340E+00    0.06       1.0  T
  13   -497.4155722 -0.116089E+01  0.294E+00    0.23       1.0  T
  14   -496.9866698  0.428902E+00  0.294E+00    0.07       1.0  T
  15   -498.1305002 -0.114383E+01  0.266E+00    0.08       1.0  T
  16   -497.8150984  0.315402E+00  0.237E+00    0.07       1.0  T
  17   -499.4311378 -0.161604E+01  0.201E+00    0.11       1.0  T
  18   -499.4979986 -0.668608E-01  0.193E+00    0.08       1.0  T
  19   -499.5649978 -0.669992E-01  0.183E+00    0.07       1.0  T
  20   -500.0551025 -0.490105E+00  0.109E+00    0.04       1.0  T
  21   -500.6792820 -0.624180E+00  0.873E-01    0.02       1.0  T
  22   -500.8172550 -0.137973E+00  0.800E-01    0.26       1.0  T
  23   -500.8522860 -0.350311E-01  0.693E-01    0.16       1.0  T
  24   -500.9080008 -0.557148E-01  0.521E-01    0.22       1.0  T
  25   -500.9153237 -0.732289E-02  0.452E-01    0.28       1.0  T
  26   -500.9286048 -0.132811E-01  0.410E-01    0.33       1.0  T
  27   -500.9398071 -0.112023E-01  0.377E-01    0.26       1.0  T
  28   -500.9462550 -0.644794E-02  0.344E-01    0.18       1.0  T
  29   -500.9472296 -0.974518E-03  0.320E-01    0.14       1.0  T
  30   -500.9677439 -0.205144E-01  0.246E-01    0.16       1.0  T
  31   -500.9604405  0.730344E-02  0.246E-01    0.11       1.0  T
  32   -500.9824924 -0.220519E-01  0.183E-01    0.15       1.0  T
  33   -500.9811856  0.130673E-02  0.176E-01    0.13       1.0  T
  34   -500.9912282 -0.100426E-01  0.133E-01    0.15       1.0  T
  35   -501.0022196 -0.109913E-01  0.895E-02    0.19       1.0  T
  36   -501.0042322 -0.201262E-02  0.822E-02    0.21       1.0  T
  37   -501.0069494 -0.271723E-02  0.720E-02    0.21       1.0  T
  38   -501.0090855 -0.213611E-02  0.616E-02    0.22       1.0  T
  39   -501.0101356 -0.105006E-02  0.551E-02    0.23       1.0  T
  40   -501.0120323 -0.189675E-02  0.361E-02    0.26       1.0  T
  41   -501.0126568 -0.624496E-03  0.269E-02    0.27       1.0  T
  42   -501.0130005 -0.343665E-03  0.225E-02    0.28       1.0  T
  43   -501.0131656 -0.165121E-03  0.213E-02    0.27       1.0  T
  44   -501.0133584 -0.192742E-03  0.187E-02    0.26       1.0  T
  45   -501.0135015 -0.143111E-03  0.160E-02    0.24       1.0  T
  46   -501.0136289 -0.127406E-03  0.127E-02    0.23       1.0  T
  47   -501.0136871 -0.582593E-04  0.108E-02    0.22       1.0  T
  48   -501.0137437 -0.565440E-04  0.854E-03    0.21       1.0  T
  49   -501.0137780 -0.343337E-04  0.577E-03    0.21       1.1  T
  50   -501.0137930 -0.150208E-04  0.446E-03    0.20       1.4  T
  51   -501.0137998 -0.674816E-05  0.329E-03    0.20       1.9  T
  52   -501.0138033 -0.355448E-05  0.215E-03    0.20       2.9  T
  53   -501.0138059 -0.260731E-05  0.141E-03    0.20       4.4  T
  54   -501.0138062 -0.263605E-06  0.101E-03    0.20       6.2  T
  55   -501.0138061  0.769261E-07  0.868E-04    0.20       7.2  T
  56   -501.0138069 -0.743314E-06  0.684E-04    0.20       9.1  T
  57   -501.0138073 -0.474569E-06  0.523E-04    0.20      11.9  T
  58   -501.0138076 -0.205351E-06  0.435E-04    0.20      14.3  T
  59   -501.0138079 -0.390251E-06  0.351E-04    0.20      17.7  T
  60   -501.0138082 -0.209902E-06  0.280E-04    0.20      22.2  T
  61   -501.0138083 -0.163195E-06  0.188E-04    0.20      33.2  T
  62   -501.0138084 -0.757985E-07  0.111E-04    0.20      55.9  T

   *** convergence criteria satisfied after 62 iterations ***

         #    Occupation            Energy/Eh            Energy/eV
      -------------------------------------------------------------
         1        2.0000           -0.8201827             -22.3183
       ...           ...                  ...                  ...
       435        2.0000           -0.4000402             -10.8856
       436        2.0000           -0.3997804             -10.8786
       437        2.0000           -0.3988874             -10.8543
       438        2.0000           -0.3973910             -10.8136
       439        2.0000           -0.3942921             -10.7292
       440        2.0000           -0.3888036             -10.5799
       441        1.9497           -0.3806953             -10.3592 (HOMO)
       442        0.0317           -0.3732987             -10.1580 (LUMO)
       443        0.0186           -0.3727832             -10.1439
       444                         -0.3574535              -9.7268
       445                         -0.3553134              -9.6686
       446                         -0.3524535              -9.5907
       ...                                ...                  ...
       904                          1.2455486              33.8931
      -------------------------------------------------------------
                  HL-Gap            0.0073966 Eh            0.2013 eV
             Fermi-level           -0.3772202 Eh          -10.2647 eV

 SCC (total)                   0 d,  0 h,  0 min, 28.626 sec
 SCC setup                      ...        0 min,  0.027 sec (  0.095%)
 Dispersion                     ...        0 min,  0.018 sec (  0.064%)
 classical contributions        ...        0 min,  0.005 sec (  0.019%)
 integral evaluation            ...        0 min,  0.521 sec (  1.821%)
 iterations                     ...        0 min, 26.693 sec ( 93.250%)
 molecular gradient             ...        0 min,  1.270 sec (  4.436%)
 printout                       ...        0 min,  0.090 sec (  0.315%)

         :::::::::::::::::::::::::::::::::::::::::::::::::::::
         ::                     SUMMARY                     ::
         :::::::::::::::::::::::::::::::::::::::::::::::::::::
         :: total energy            -494.432544797573 Eh    ::
         :: gradient norm              0.827867839149 Eh/a0 ::
         :: HOMO-LUMO gap              0.201272491831 eV    ::
         ::.................................................::
         :: SCC energy              -501.013808390761 Eh    ::
         :: -> electrostatic           0.974633980729 Eh    ::
         :: repulsion energy           6.809679464742 Eh    ::
         :: dispersion energy         -0.228415871553 Eh    ::
         :: halogen bond corr.         0.000000000000 Eh    ::
         :: add. restraining           0.000000000000 Eh    ::
         :: total charge              -0.000000000002 e     ::
         :::::::::::::::::::::::::::::::::::::::::::::::::::::

      ----------------------------------------------------------- 
     |                   =====================                   |
     |                        A N C O P T                        |
     |                   =====================                   |
     |               Approximate Normal Coordinate               |
     |                Rational Function Optimizer                |
      ----------------------------------------------------------- 

          ...................................................
          :                      SETUP                      :
          :.................................................:
          :   optimization level            normal          :
          :   max. optcycles                   774          :
          :   ANC micro-cycles                  20          :
          :   degrees of freedom               768          :
          :.................................................:
          :   RF solver                   davidson          :
          :   write xtbopt.log                true          :
          :   linear?                        false          :
          :   energy convergence         0.5000000E-05 Eh   :
          :   grad. convergence          0.1000000E-02 Eh/α :
          :   maximium RF displ.         1.0000000          :
          :   Hlow (freq-cutoff)         0.1000000E-01      :
          :   Hmax (freq-cutoff)         5.0000000          :
          :   S6 in model hess.         20.0000000          :
          ...................................................

generating ANC from model Hessian ...
Using Lindh-Hessian (1995)
 Shifting diagonal of input Hessian by    1.0025553131619094E-002
 Lowest  eigenvalues of input Hessian
    0.010000    0.010005    0.010005    0.010011    0.010012    0.010015
    0.010019    0.010019    0.010022    0.010023    0.010024    0.010025
    0.000000    0.000000    0.000000    0.000000    0.000000    0.000000
 Highest eigenvalues
    2.099019    2.101392    2.101392    2.443858    2.530907    2.538448


........................................................................
.............................. CYCLE    1 ..............................
........................................................................
   1   -501.0138084 -0.501014E+03  0.801E-05    0.20       0.0  T
   2   -501.0138084  0.229581E-07  0.165E-04    0.20      37.8  T
   3   -501.0138084 -0.247932E-07  0.939E-05    0.20      66.3  T
     SCC iter.                  ...        0 min,  1.223 sec
     gradient                   ...        0 min,  1.241 sec
 * total energy  :  -494.4325448 Eh     change       -0.7029200E-08 Eh
   gradient norm :     0.8278701 Eh/α   predicted     0.0000000E+00 (-100.00%)
   displ. norm   :     0.5384447 α      lambda       -0.3874008E+00
   maximum displ.:     0.1294928 α      in ANC's #627, #748, #631, ...

........................................................................
.............................. CYCLE    2 ..............................
........................................................................
   1   -501.2700218 -0.501270E+03  0.136E-01    0.28       0.0  T
   2   -501.2731533 -0.313151E-02  0.902E-02    0.27       1.0  T
   3   -501.2756397 -0.248639E-02  0.658E-02    0.28       1.0  T
   4   -501.2773472 -0.170750E-02  0.360E-02    0.27       1.0  T
   5   -501.2773876 -0.404396E-04  0.226E-02    0.27       1.0  T
   6   -501.2775866 -0.198932E-03  0.118E-02    0.27       1.0  T
   7   -501.2776374 -0.508863E-04  0.289E-03    0.28       2.2  T
   8   -501.2776413 -0.387774E-05  0.164E-03    0.27       3.8  T
   9   -501.2776425 -0.116822E-05  0.882E-04    0.27       7.1  T
  10   -501.2776428 -0.324447E-06  0.263E-04    0.27      23.7  T
  11   -501.2776429 -0.367295E-07  0.138E-04    0.27      45.0  T
  12   -501.2776429 -0.805323E-08  0.513E-05    0.27     121.3  T
     SCC iter.                  ...        0 min,  5.003 sec
     gradient                   ...        0 min,  1.294 sec
 * total energy  :  -494.7528874 Eh     change       -0.3203426E+00 Eh
   gradient norm :     0.5166281 Eh/α   predicted    -0.2498775E+00 ( -22.00%)
   displ. norm   :     0.6297818 α      lambda       -0.2900269E+00
   maximum displ.:     0.1401736 α      in ANC's #627, #453, #748, ...

........................................................................
.............................. CYCLE    3 ..............................
........................................................................
   1   -501.6314533 -0.501631E+03  0.161E-01    0.34       0.0  T
   2   -501.6293926  0.206078E-02  0.150E-01    0.40       1.0  T
   3   -501.6373101 -0.791753E-02  0.961E-02    0.37       1.0  T
   4   -501.6416590 -0.434893E-02  0.406E-02    0.39       1.0  T
   5   -501.6420451 -0.386038E-03  0.214E-02    0.38       1.0  T
   6   -501.6422549 -0.209863E-03  0.888E-03    0.39       1.0  T
   7   -501.6422970 -0.420917E-04  0.486E-03    0.39       1.3  T
   8   -501.6423078 -0.107567E-04  0.178E-03    0.39       3.5  T
   9   -501.6423093 -0.150290E-05  0.524E-04    0.39      11.9  T
  10   -501.6423094 -0.103819E-06  0.249E-04    0.39      25.0  T
  11   -501.6423094 -0.477729E-07  0.873E-05    0.39      71.3  T
  12   -501.6423094 -0.541053E-08  0.386E-05    0.39     161.4  T
     SCC iter.                  ...        0 min,  5.531 sec
     gradient                   ...        0 min,  1.264 sec
 * total energy  :  -494.9009640 Eh     change       -0.1480766E+00 Eh
   gradient norm :     0.3006715 Eh/α   predicted    -0.2025488E+00 (  36.79%)
   displ. norm   :     0.5610039 α      lambda       -0.9562405E-01
   maximum displ.:     0.1469015 α      in ANC's #302, #78, #80, ...

........................................................................
.............................. CYCLE    4 ..............................
........................................................................
   1   -501.6706277 -0.501671E+03  0.678E-02    0.49       0.0  T
   2   -501.6685335  0.209418E-02  0.895E-02    0.44       1.0  T
   3   -501.6724185 -0.388492E-02  0.258E-02    0.48       1.0  T
   4   -501.6725897 -0.171274E-03  0.169E-02    0.47       1.0  T
   5   -501.6726430 -0.532968E-04  0.861E-03    0.47       1.0  T
   6   -501.6726634 -0.203793E-04  0.383E-03    0.47       1.6  T
   7   -501.6726695 -0.604702E-05  0.159E-03    0.47       3.9  T
   8   -501.6726712 -0.172160E-05  0.484E-04    0.47      12.9  T
   9   -501.6726713 -0.131536E-06  0.166E-04    0.47      37.5  T
  10   -501.6726713 -0.107215E-07  0.792E-05    0.47      78.6  T
     SCC iter.                  ...        0 min,  4.257 sec
     gradient                   ...        0 min,  1.302 sec
 * total energy  :  -494.9620092 Eh     change       -0.6104513E-01 Eh
   gradient norm :     0.1164565 Eh/α   predicted    -0.6285971E-01 (   2.97%)
   displ. norm   :     0.7009332 α      lambda       -0.4944836E-01
   maximum displ.:     0.1864043 α      in ANC's #78, #80, #302, ...

........................................................................
.............................. CYCLE    5 ..............................
........................................................................
   1   -501.7359727 -0.501736E+03  0.591E-02    0.57       0.0  T
   2   -501.7362343 -0.261533E-03  0.467E-02    0.56       1.0  T
   3   -501.7370527 -0.818411E-03  0.240E-02    0.57       1.0  T
   4   -501.7372492 -0.196533E-03  0.113E-02    0.58       1.0  T
   5   -501.7372788 -0.295691E-04  0.767E-03    0.57       1.0  T
   6   -501.7373012 -0.224071E-04  0.249E-03    0.58       2.5  T
   7   -501.7373042 -0.307152E-05  0.921E-04    0.58       6.8  T
   8   -501.7373048 -0.586119E-06  0.410E-04    0.58      15.2  T
   9   -501.7373049 -0.831380E-07  0.152E-04    0.58      41.1  T
  10   -501.7373049 -0.930146E-08  0.794E-05    0.58      78.4  T
     SCC iter.                  ...        0 min,  4.312 sec
     gradient                   ...        0 min,  1.276 sec
 * total energy  :  -495.0009374 Eh     change       -0.3892819E-01 Eh
   gradient norm :     0.0739216 Eh/α   predicted    -0.3687188E-01 (  -5.28%)
   displ. norm   :     0.8101380 α      lambda       -0.3717899E-01
   maximum displ.:     0.2617083 α      in ANC's #78, #25, #80, ...

........................................................................
.............................. CYCLE    6 ..............................
........................................................................
   1   -501.7681644 -0.501768E+03  0.477E-02    0.82       0.0  T
   2   -501.7684054 -0.241021E-03  0.440E-02    0.79       1.0  T
   3   -501.7690855 -0.680089E-03  0.124E-02    0.82       1.0  T
   4   -501.7690907 -0.520395E-05  0.830E-03    0.82       1.0  T
   5   -501.7691042 -0.134968E-04  0.586E-03    0.82       1.1  T
   6   -501.7691171 -0.128988E-04  0.165E-03    0.83       3.8  T
   7   -501.7691188 -0.174397E-05  0.750E-04    0.82       8.3  T
   8   -501.7691193 -0.411832E-06  0.278E-04    0.82      22.4  T
   9   -501.7691193 -0.453473E-07  0.119E-04    0.82      52.5  T
  10   -501.7691193 -0.578035E-08  0.506E-05    0.82     123.0  T
     SCC iter.                  ...        0 min,  4.129 sec
     gradient                   ...        0 min,  1.261 sec
 * total energy  :  -495.0332718 Eh     change       -0.3233444E-01 Eh
   gradient norm :     0.0609990 Eh/α   predicted    -0.3079021E-01 (  -4.78%)
   displ. norm   :     0.9078480 α      lambda       -0.3617999E-01
   maximum displ.:     0.3074235 α      in ANC's #78, #25, #54, ...

........................................................................
.............................. CYCLE    7 ..............................
........................................................................
   1   -501.7724778 -0.501772E+03  0.495E-02    1.14       0.0  T
   2   -501.7728273 -0.349515E-03  0.539E-02    1.14       1.0  T
   3   -501.7735855 -0.758182E-03  0.158E-02    1.14       1.0  T
   4   -501.7735431  0.423674E-04  0.110E-02    1.14       1.0  T
   5   -501.7735837 -0.405534E-04  0.552E-03    1.14       1.1  T
   6   -501.7735992 -0.155102E-04  0.167E-03    1.14       3.7  T
   7   -501.7736012 -0.207812E-05  0.547E-04    1.14      11.4  T
   8   -501.7736014 -0.143423E-06  0.218E-04    1.14      28.6  T
   9   -501.7736014 -0.162858E-07  0.142E-04    1.14      43.9  T
  10   -501.7736014 -0.156371E-07  0.430E-05    1.14     144.7  T
     SCC iter.                  ...        0 min,  4.219 sec
     gradient                   ...        0 min,  1.302 sec
 * total energy  :  -495.0677520 Eh     change       -0.3448017E-01 Eh
   gradient norm :     0.0686317 Eh/α   predicted    -0.3299959E-01 (  -4.29%)
   displ. norm   :     0.9442725 α      lambda       -0.4034965E-01
   maximum displ.:     0.3135846 α      in ANC's #78, #25, #54, ...

........................................................................
.............................. CYCLE    8 ..............................
........................................................................
   1   -501.7616161 -0.501762E+03  0.544E-02    1.13       0.0  T
   2   -501.7621788 -0.562705E-03  0.558E-02    1.13       1.0  T
   3   -501.7627060 -0.527128E-03  0.224E-02    1.13       1.0  T
   4   -501.7625888  0.117131E-03  0.155E-02    1.13       1.0  T
   5   -501.7626915 -0.102644E-03  0.560E-03    1.13       1.1  T
   6   -501.7627197 -0.282140E-04  0.159E-03    1.13       3.9  T
   7   -501.7627214 -0.171174E-05  0.698E-04    1.13       8.9  T
   8   -501.7627218 -0.368526E-06  0.274E-04    1.13      22.7  T
   9   -501.7627218 -0.485919E-07  0.137E-04    1.13      45.6  T
  10   -501.7627218 -0.108982E-07  0.428E-05    1.13     145.6  T
     SCC iter.                  ...        0 min,  4.658 sec
     gradient                   ...        0 min,  1.243 sec
 * total energy  :  -495.1051579 Eh     change       -0.3740590E-01 Eh
   gradient norm :     0.0886983 Eh/α   predicted    -0.3816372E-01 (   2.03%)
   displ. norm   :     0.8803789 α      lambda       -0.4068151E-01
   maximum displ.:     0.2784790 α      in ANC's #78, #25, #54, ...

........................................................................
.............................. CYCLE    9 ..............................
........................................................................
   1   -501.7597710 -0.501760E+03  0.605E-02    1.13       0.0  T
   2   -501.7604155 -0.644492E-03  0.583E-02    1.13       1.0  T
   3   -501.7608867 -0.471176E-03  0.259E-02    1.13       1.0  T
   4   -501.7606285  0.258255E-03  0.222E-02    1.13       1.0  T
   5   -501.7608806 -0.252161E-03  0.562E-03    1.13       1.1  T
   6   -501.7609042 -0.236034E-04  0.166E-03    1.13       3.7  T
   7   -501.7609064 -0.220210E-05  0.680E-04    1.13       9.2  T
   8   -501.7609068 -0.369592E-06  0.252E-04    1.13      24.7  T
   9   -501.7609068 -0.322563E-07  0.135E-04    1.13      46.1  T
  10   -501.7609068 -0.130201E-07  0.486E-05    1.13     128.1  T
     SCC iter.                  ...        0 min,  4.287 sec
     gradient                   ...        0 min,  1.306 sec
 * total energy  :  -495.1351432 Eh     change       -0.2998528E-01 Eh
   gradient norm :     0.0997581 Eh/α   predicted    -0.3610625E-01 (  20.41%)
   displ. norm   :     0.7630453 α      lambda       -0.3242704E-01
   maximum displ.:     0.2836654 α      in ANC's #25, #54, #78, ...

........................................................................
.............................. CYCLE   10 ..............................
........................................................................
   1   -501.8001750 -0.501800E+03  0.259E-02    1.14       0.0  T
   2   -501.8002196 -0.445799E-04  0.260E-02    1.14       1.0  T
   3   -501.8003122 -0.926490E-04  0.130E-02    1.14       1.0  T
   4   -501.8002459  0.663546E-04  0.100E-02    1.14       1.0  T
   5   -501.8003127 -0.668656E-04  0.187E-03    1.14       3.3  T
   6   -501.8003154 -0.260360E-05  0.451E-04    1.14      13.8  T
   7   -501.8003155 -0.995609E-07  0.245E-04    1.14      25.4  T
   8   -501.8003155 -0.513933E-07  0.725E-05    1.14      85.9  T
   9   -501.8003155 -0.314151E-08  0.373E-05    1.14     166.7  T
     SCC iter.                  ...        0 min,  3.890 sec
     gradient                   ...        0 min,  1.278 sec
 * total energy  :  -495.1648099 Eh     change       -0.2966674E-01 Eh
   gradient norm :     0.0704580 Eh/α   predicted    -0.2565366E-01 ( -13.53%)
   displ. norm   :     0.8198884 α      lambda       -0.3496193E-01
   maximum displ.:     0.3235261 α      in ANC's #25, #54, #78, ...

........................................................................
.............................. CYCLE   11 ..............................
........................................................................
   1   -501.8645092 -0.501865E+03  0.385E-02    1.16       0.0  T
   2   -501.8646051 -0.959081E-04  0.347E-02    1.16       1.0  T
   3   -501.8648726 -0.267506E-03  0.154E-02    1.16       1.0  T
   4   -501.8647429  0.129670E-03  0.152E-02    1.16       1.0  T
   5   -501.8648910 -0.148074E-03  0.367E-03    1.16       1.7  T
   6   -501.8648967 -0.570822E-05  0.747E-04    1.16       8.3  T
   7   -501.8648970 -0.312486E-06  0.421E-04    1.16      14.8  T
   8   -501.8648972 -0.173804E-06  0.118E-04    1.16      52.6  T
   9   -501.8648972 -0.700459E-08  0.562E-05    1.16     110.7  T
     SCC iter.                  ...        0 min,  3.716 sec
     gradient                   ...        0 min,  1.264 sec
 * total energy  :  -495.1900158 Eh     change       -0.2520588E-01 Eh
   gradient norm :     0.0577032 Eh/α   predicted    -0.2923200E-01 (  15.97%)
   displ. norm   :     0.8841443 α      lambda       -0.2688891E-01
   maximum displ.:     0.3744771 α      in ANC's #25, #54, #78, ...

........................................................................
.............................. CYCLE   12 ..............................
........................................................................
   1   -501.9013531 -0.501901E+03  0.329E-02    1.16       0.0  T
   2   -501.9015415 -0.188398E-03  0.221E-02    1.16       1.0  T
   3   -501.9016885 -0.146960E-03  0.974E-03    1.16       1.0  T
   4   -501.9017074 -0.188829E-04  0.895E-03    1.16       1.0  T
   5   -501.9017490 -0.416746E-04  0.245E-03    1.16       2.5  T
   6   -501.9017503 -0.122021E-05  0.968E-04    1.16       6.4  T
   7   -501.9017511 -0.830173E-06  0.333E-04    1.16      18.7  T
   8   -501.9017512 -0.967383E-07  0.119E-04    1.16      52.4  T
   9   -501.9017512 -0.542389E-08  0.587E-05    1.16     106.1  T
     SCC iter.                  ...        0 min,  3.793 sec
     gradient                   ...        0 min,  1.313 sec
 * total energy  :  -495.2104785 Eh     change       -0.2046268E-01 Eh
   gradient norm :     0.0546562 Eh/α   predicted    -0.2395413E-01 (  17.06%)
   displ. norm   :     0.8341169 α      lambda       -0.2354560E-01
   maximum displ.:     0.3977649 α      in ANC's #25, #54, #19, ...

........................................................................
.............................. CYCLE   13 ..............................
........................................................................
   1   -501.9374947 -0.501937E+03  0.140E-02    1.15       0.0  T
   2   -501.9375159 -0.212568E-04  0.113E-02    1.15       1.0  T
   3   -501.9375367 -0.208115E-04  0.526E-03    1.15       1.2  T
   4   -501.9375209  0.158574E-04  0.493E-03    1.15       1.3  T
   5   -501.9375389 -0.179952E-04  0.114E-03    1.15       5.5  T
   6   -501.9375397 -0.789266E-06  0.268E-04    1.15      23.3  T
   7   -501.9375397 -0.397495E-07  0.151E-04    1.15      41.1  T
   8   -501.9375397 -0.230300E-07  0.378E-05    1.15     164.6  T
     SCC iter.                  ...        0 min,  3.796 sec
     gradient                   ...        0 min,  1.206 sec
 * total energy  :  -495.2281121 Eh     change       -0.1763366E-01 Eh
   gradient norm :     0.0601082 Eh/α   predicted    -0.1996376E-01 (  13.21%)
   displ. norm   :     0.8561326 α      lambda       -0.2529491E-01
   maximum displ.:     0.3725613 α      in ANC's #25, #54, #19, ...

........................................................................
.............................. CYCLE   14 ..............................
........................................................................
   1   -501.9987590 -0.501999E+03  0.362E-02    1.15       0.0  T
   2   -501.9990074 -0.248437E-03  0.169E-02    1.15       1.0  T
   3   -501.9990550 -0.475880E-04  0.109E-02    1.15       1.0  T
   4   -501.9991219 -0.668745E-04  0.675E-03    1.15       1.0  T
   5   -501.9991417 -0.198330E-04  0.235E-03    1.15       2.6  T
   6   -501.9991431 -0.134358E-05  0.102E-03    1.15       6.1  T
   7   -501.9991441 -0.101509E-05  0.307E-04    1.15      20.3  T
   8   -501.9991442 -0.865788E-07  0.112E-04    1.15      55.7  T
   9   -501.9991442 -0.429952E-08  0.537E-05    1.15     115.8  T
     SCC iter.                  ...        0 min,  3.858 sec
     gradient                   ...        0 min,  1.314 sec
 * total energy  :  -495.2427433 Eh     change       -0.1463122E-01 Eh
   gradient norm :     0.0833891 Eh/α   predicted    -0.2191761E-01 (  49.80%)
   displ. norm   :     0.7536905 α      lambda       -0.2183778E-01
   maximum displ.:     0.3820181 α      in ANC's #25, #19, #54, ...

........................................................................
.............................. CYCLE   15 ..............................
........................................................................
   1   -502.0432990 -0.502043E+03  0.176E-02    1.16       0.0  T
   2   -502.0433434 -0.444498E-04  0.113E-02    1.16       1.0  T
   3   -502.0433715 -0.280235E-04  0.589E-03    1.16       1.1  T
   4   -502.0433679  0.355821E-05  0.540E-03    1.16       1.2  T
   5   -502.0433887 -0.207793E-04  0.143E-03    1.16       4.4  T
   6   -502.0433897 -0.102918E-05  0.671E-04    1.16       9.3  T
   7   -502.0433902 -0.484869E-06  0.159E-04    1.16      39.2  T
   8   -502.0433902 -0.200556E-07  0.530E-05    1.16     117.4  T
     SCC iter.                  ...        0 min,  3.460 sec
     gradient                   ...        0 min,  1.288 sec
 * total energy  :  -495.2590163 Eh     change       -0.1627293E-01 Eh
   gradient norm :     0.0470307 Eh/α   predicted    -0.1712136E-01 (   5.21%)
   displ. norm   :     0.8724400 α      lambda       -0.1845374E-01
   maximum displ.:     0.4726120 α      in ANC's #25, #54, #19, ...

........................................................................
.............................. CYCLE   16 ..............................
........................................................................
   1   -502.0575886 -0.502058E+03  0.250E-02    1.15       0.0  T
   2   -502.0576555 -0.669247E-04  0.183E-02    1.15       1.0  T
   3   -502.0577174 -0.619045E-04  0.815E-03    1.15       1.0  T
   4   -502.0576964  0.210609E-04  0.788E-03    1.15       1.0  T
   5   -502.0577341 -0.377584E-04  0.212E-03    1.15       2.9  T
   6   -502.0577363 -0.214148E-05  0.516E-04    1.15      12.1  T
   7   -502.0577365 -0.243505E-06  0.223E-04    1.15      27.9  T
   8   -502.0577365 -0.486360E-07  0.553E-05    1.15     112.5  T
   9   -502.0577365 -0.860666E-09  0.277E-05    1.15     224.7  T
     SCC iter.                  ...        0 min,  3.817 sec
     gradient                   ...        0 min,  1.237 sec
 * total energy  :  -495.2722299 Eh     change       -0.1321365E-01 Eh
   gradient norm :     0.0462187 Eh/α   predicted    -0.1624992E-01 (  22.98%)
   displ. norm   :     0.8296068 α      lambda       -0.1765375E-01
   maximum displ.:     0.4589015 α      in ANC's #25, #19, #54, ...

........................................................................
.............................. CYCLE   17 ..............................
........................................................................
   1   -502.0936121 -0.502094E+03  0.147E-02    1.14       0.0  T
   2   -502.0936286 -0.164286E-04  0.143E-02    1.14       1.0  T
   3   -502.0936649 -0.362860E-04  0.659E-03    1.14       1.0  T
   4   -502.0936394  0.254883E-04  0.606E-03    1.14       1.0  T
   5   -502.0936652 -0.258696E-04  0.127E-03    1.14       4.9  T
   6   -502.0936666 -0.133122E-05  0.376E-04    1.14      16.6  T
   7   -502.0936667 -0.148218E-06  0.124E-04    1.14      50.1  T
   8   -502.0936667 -0.171550E-07  0.314E-05    1.14     198.1  T
     SCC iter.                  ...        0 min,  3.341 sec
     gradient                   ...        0 min,  1.280 sec
 * total energy  :  -495.2857961 Eh     change       -0.1356616E-01 Eh
   gradient norm :     0.0443834 Eh/α   predicted    -0.1490196E-01 (   9.85%)
   displ. norm   :     0.8644245 α      lambda       -0.1411272E-01
   maximum displ.:     0.5189714 α      in ANC's #25, #19, #54, ...

........................................................................
.............................. CYCLE   18 ..............................
........................................................................
   1   -502.1387064 -0.502139E+03  0.143E-02    1.14       0.0  T
   2   -502.1387446 -0.381292E-04  0.776E-03    1.14       1.0  T
   3   -502.1387503 -0.571940E-05  0.440E-03    1.14       1.4  T
   4   -502.1387493  0.940513E-06  0.376E-03    1.14       1.7  T
   5   -502.1387584 -0.903299E-05  0.123E-03    1.14       5.0  T
   6   -502.1387593 -0.976030E-06  0.419E-04    1.14      14.9  T
   7   -502.1387595 -0.152827E-06  0.134E-04    1.14      46.5  T
   8   -502.1387595 -0.169952E-07  0.451E-05    1.14     138.0  T
     SCC iter.                  ...        0 min,  3.488 sec
     gradient                   ...        0 min,  1.274 sec
 * total energy  :  -495.2982651 Eh     change       -0.1246899E-01 Eh
   gradient norm :     0.0204026 Eh/α   predicted    -0.1232907E-01 (  -1.12%)
   displ. norm   :     0.9127876 α      lambda       -0.1309460E-01
   maximum displ.:     0.5690879 α      in ANC's #25, #19, #17, ...

........................................................................
.............................. CYCLE   19 ..............................
........................................................................
   1   -502.1843069 -0.502184E+03  0.137E-02    1.15       0.0  T
   2   -502.1843202 -0.133243E-04  0.127E-02    1.15       1.0  T
   3   -502.1843531 -0.328969E-04  0.508E-03    1.15       1.2  T
   4   -502.1843333  0.198356E-04  0.567E-03    1.15       1.1  T
   5   -502.1843546 -0.213244E-04  0.125E-03    1.15       5.0  T
   6   -502.1843556 -0.987179E-06  0.373E-04    1.15      16.7  T
   7   -502.1843557 -0.153381E-06  0.116E-04    1.15      53.5  T
   8   -502.1843557 -0.130015E-07  0.348E-05    1.15     179.0  T
     SCC iter.                  ...        0 min,  3.817 sec
     gradient                   ...        0 min,  1.217 sec
 * total energy  :  -495.3082938 Eh     change       -0.1002871E-01 Eh
   gradient norm :     0.0445268 Eh/α   predicted    -0.1200239E-01 (  19.68%)
   displ. norm   :     0.8371188 α      lambda       -0.1283873E-01
   maximum displ.:     0.5293508 α      in ANC's #25, #19, #17, ...

........................................................................
.............................. CYCLE   20 ..............................
........................................................................
   1   -502.2045096 -0.502205E+03  0.137E-02    1.14       0.0  T
   2   -502.2045303 -0.207541E-04  0.127E-02    1.14       1.0  T
   3   -502.2045543 -0.239687E-04  0.564E-03    1.14       1.1  T
   4   -502.2045409  0.133640E-04  0.442E-03    1.14       1.4  T
   5   -502.2045544 -0.134530E-04  0.949E-04    1.14       6.6  T
   6   -502.2045551 -0.697077E-06  0.279E-04    1.14      22.3  T
   7   -502.2045551 -0.591251E-07  0.134E-04    1.14      46.6  T
   8   -502.2045552 -0.182396E-07  0.432E-05    1.14     144.2  T
     SCC iter.                  ...        0 min,  3.464 sec
     gradient                   ...        0 min,  1.321 sec
 * total energy  :  -495.3191994 Eh     change       -0.1090565E-01 Eh
   gradient norm :     0.0201182 Eh/α   predicted    -0.1091785E-01 (   0.11%)
   displ. norm   :     0.8964774 α      lambda       -0.1057069E-01
   maximum displ.:     0.5873064 α      in ANC's #25, #19, #17, ...
 * RMSD in coord.:     0.7971623 α      energy gain  -0.8866546E+00 Eh

generating ANC from model Hessian ...
Using Lindh-Hessian (1995)
 Shifting diagonal of input Hessian by    1.0016483745638145E-002
 Lowest  eigenvalues of input Hessian
    0.010000    0.010002    0.010003    0.010005    0.010012    0.010013
    0.010013    0.010014    0.010014    0.000000    0.000000    0.000000
    0.000000    0.000000    0.000000    0.010028    0.010040    0.010060
 Highest eigenvalues
    2.398969    2.399965    2.399982    2.582369    2.617779    2.623031


........................................................................
.............................. CYCLE   21 ..............................
........................................................................
   1   -502.2316816 -0.502232E+03  0.826E-03    1.14       0.0  T
   2   -502.2316888 -0.723263E-05  0.539E-03    1.14       1.2  T
   3   -502.2316954 -0.661751E-05  0.249E-03    1.14       2.5  T
   4   -502.2316944  0.107437E-05  0.187E-03    1.14       3.3  T
   5   -502.2316962 -0.180886E-05  0.611E-04    1.14      10.2  T
   6   -502.2316965 -0.322115E-06  0.115E-04    1.14      54.4  T
   7   -502.2316965 -0.826543E-08  0.528E-05    1.14     117.9  T
     SCC iter.                  ...        0 min,  3.026 sec
     gradient                   ...        0 min,  1.298 sec
 * total energy  :  -495.3285392 Eh     change       -0.9339814E-02 Eh
   gradient norm :     0.0198943 Eh/α   predicted     0.0000000E+00 (-100.00%)
   displ. norm   :     0.6018555 α      lambda       -0.7127164E-02
   maximum displ.:     0.4852261 α      in ANC's #32, #18, #34, ...

........................................................................
.............................. CYCLE   22 ..............................
........................................................................
   1   -502.2505977 -0.502251E+03  0.370E-03    1.14       0.0  T
   2   -502.2505986 -0.885470E-06  0.244E-03    1.14       2.6  T
   3   -502.2506000 -0.136699E-05  0.135E-03    1.14       4.6  T
   4   -502.2505999  0.741404E-07  0.943E-04    1.14       6.6  T
   5   -502.2506005 -0.570229E-06  0.202E-04    1.14      30.9  T
   6   -502.2506005 -0.249602E-07  0.884E-05    1.14      70.4  T
   7   -502.2506005 -0.733905E-08  0.309E-05    1.14     201.7  T
     SCC iter.                  ...        0 min,  2.905 sec
     gradient                   ...        0 min,  1.267 sec
 * total energy  :  -495.3350640 Eh     change       -0.6524717E-02 Eh
   gradient norm :     0.0132303 Eh/α   predicted    -0.4854427E-02 ( -25.60%)
   displ. norm   :     0.8040405 α      lambda       -0.8579049E-02
   maximum displ.:     0.6049508 α      in ANC's #32, #18, #34, ...

........................................................................
.............................. CYCLE   23 ..............................
........................................................................
   1   -502.2736702 -0.502274E+03  0.543E-03    1.14       0.0  T
   2   -502.2736727 -0.252638E-05  0.329E-03    1.14       1.9  T
   3   -502.2736753 -0.263979E-05  0.191E-03    1.14       3.3  T
   4   -502.2736753  0.239372E-07  0.127E-03    1.14       4.9  T
   5   -502.2736762 -0.919505E-06  0.341E-04    1.14      18.3  T
   6   -502.2736763 -0.883413E-07  0.110E-04    1.14      56.5  T
   7   -502.2736763 -0.100283E-07  0.456E-05    1.14     136.5  T
     SCC iter.                  ...        0 min,  2.934 sec
     gradient                   ...        0 min,  1.283 sec
 * total energy  :  -495.3430172 Eh     change       -0.7953218E-02 Eh
   gradient norm :     0.0138777 Eh/α   predicted    -0.7062665E-02 ( -11.20%)
   displ. norm   :     0.8504809 α      lambda       -0.8359394E-02
   maximum displ.:     0.6351016 α      in ANC's #32, #18, #34, ...

........................................................................
.............................. CYCLE   24 ..............................
........................................................................
   1   -502.2932491 -0.502293E+03  0.570E-03    1.14       0.0  T
   2   -502.2932518 -0.273584E-05  0.303E-03    1.15       2.1  T
   3   -502.2932544 -0.257651E-05  0.207E-03    1.14       3.0  T
   4   -502.2932546 -0.168646E-06  0.114E-03    1.14       5.5  T
   5   -502.2932553 -0.735205E-06  0.361E-04    1.14      17.2  T
   6   -502.2932554 -0.113765E-06  0.786E-05    1.14      79.2  T
   7   -502.2932554 -0.423807E-08  0.367E-05    1.14     169.8  T
     SCC iter.                  ...        0 min,  3.089 sec
     gradient                   ...        0 min,  1.296 sec
 * total energy  :  -495.3509088 Eh     change       -0.7891645E-02 Eh
   gradient norm :     0.0160008 Eh/α   predicted    -0.7202946E-02 (  -8.73%)
   displ. norm   :     0.8604370 α      lambda       -0.8092711E-02
   maximum displ.:     0.6411800 α      in ANC's #32, #18, #34, ...

........................................................................
.............................. CYCLE   25 ..............................
........................................................................
   1   -502.3094627 -0.502309E+03  0.534E-03    1.14       0.0  T
   2   -502.3094651 -0.241902E-05  0.277E-03    1.14       2.2  T
   3   -502.3094675 -0.236874E-05  0.194E-03    1.14       3.2  T
   4   -502.3094675 -0.298828E-07  0.855E-04    1.14       7.3  T
   5   -502.3094680 -0.529817E-06  0.340E-04    1.14      18.3  T
   6   -502.3094682 -0.123417E-06  0.603E-05    1.14     103.2  T
   7   -502.3094682 -0.271280E-08  0.243E-05    1.14     256.0  T
     SCC iter.                  ...        0 min,  3.286 sec
     gradient                   ...        0 min,  1.226 sec
 * total energy  :  -495.3582727 Eh     change       -0.7363924E-02 Eh
   gradient norm :     0.0169627 Eh/α   predicted    -0.7042084E-02 (  -4.37%)
   displ. norm   :     0.8443495 α      lambda       -0.8078985E-02
   maximum displ.:     0.6294253 α      in ANC's #32, #18, #34, ...

........................................................................
.............................. CYCLE   26 ..............................
........................................................................
   1   -502.3250382 -0.502325E+03  0.503E-03    1.14       0.0  T
   2   -502.3250401 -0.184314E-05  0.278E-03    1.14       2.2  T
   3   -502.3250420 -0.196083E-05  0.184E-03    1.14       3.4  T
   4   -502.3250420  0.583503E-07  0.875E-04    1.14       7.1  T
   5   -502.3250426 -0.648910E-06  0.252E-04    1.14      24.7  T
   6   -502.3250427 -0.640409E-07  0.634E-05    1.14      98.1  T
   7   -502.3250427 -0.387570E-08  0.234E-05    1.14     265.5  T
     SCC iter.                  ...        0 min,  3.016 sec
     gradient                   ...        0 min,  1.321 sec
 * total energy  :  -495.3654362 Eh     change       -0.7163468E-02 Eh
   gradient norm :     0.0135178 Eh/α   predicted    -0.6919356E-02 (  -3.41%)
   displ. norm   :     0.8504560 α      lambda       -0.7447555E-02
   maximum displ.:     0.6385844 α      in ANC's #32, #18, #34, ...

........................................................................
.............................. CYCLE   27 ..............................
........................................................................
   1   -502.3432550 -0.502343E+03  0.471E-03    1.14       0.0  T
   2   -502.3432566 -0.163806E-05  0.247E-03    1.14       2.5  T
   3   -502.3432575 -0.830315E-06  0.175E-03    1.14       3.6  T
   4   -502.3432576 -0.113078E-06  0.803E-04    1.14       7.8  T
   5   -502.3432579 -0.349815E-06  0.354E-04    1.14      17.6  T
   6   -502.3432581 -0.118082E-06  0.522E-05    1.14     119.2  T
   7   -502.3432581 -0.163732E-08  0.265E-05    1.14     235.2  T
     SCC iter.                  ...        0 min,  3.039 sec
     gradient                   ...        0 min,  1.303 sec
 * total energy  :  -495.3722423 Eh     change       -0.6806090E-02 Eh
   gradient norm :     0.0118263 Eh/α   predicted    -0.6417096E-02 (  -5.72%)
   displ. norm   :     0.8457057 α      lambda       -0.6818942E-02
   maximum displ.:     0.6344286 α      in ANC's #32, #18, #34, ...

........................................................................
.............................. CYCLE   28 ..............................
........................................................................
   1   -502.3619786 -0.502362E+03  0.439E-03    1.13       0.0  T
   2   -502.3619800 -0.141653E-05  0.231E-03    1.13       2.7  T
   3   -502.3619806 -0.598878E-06  0.162E-03    1.13       3.8  T
   4   -502.3619809 -0.227122E-06  0.988E-04    1.13       6.3  T
   5   -502.3619814 -0.579664E-06  0.372E-04    1.13      16.7  T
   6   -502.3619816 -0.149137E-06  0.449E-05    1.13     138.5  T
   7   -502.3619816 -0.109230E-08  0.256E-05    1.13     243.1  T
     SCC iter.                  ...        0 min,  2.931 sec
     gradient                   ...        0 min,  1.264 sec
 * total energy  :  -495.3787586 Eh     change       -0.6516322E-02 Eh
   gradient norm :     0.0107818 Eh/α   predicted    -0.5847983E-02 ( -10.26%)
   displ. norm   :     0.8522048 α      lambda       -0.6495689E-02
   maximum displ.:     0.6382494 α      in ANC's #32, #18, #34, ...

........................................................................
.............................. CYCLE   29 ..............................
........................................................................
   1   -502.3786577 -0.502379E+03  0.426E-03    1.13       0.0  T
   2   -502.3786593 -0.155314E-05  0.245E-03    1.13       2.5  T
   3   -502.3786607 -0.140484E-05  0.148E-03    1.13       4.2  T
   4   -502.3786607 -0.247883E-07  0.987E-04    1.13       6.3  T
   5   -502.3786613 -0.600977E-06  0.355E-04    1.13      17.6  T
   6   -502.3786615 -0.145231E-06  0.613E-05    1.13     101.6  T
   7   -502.3786615 -0.341930E-08  0.245E-05    1.13     254.2  T
     SCC iter.                  ...        0 min,  2.931 sec
     gradient                   ...        0 min,  1.282 sec
 * total energy  :  -495.3849146 Eh     change       -0.6155968E-02 Eh
   gradient norm :     0.0103315 Eh/α   predicted    -0.5606605E-02 (  -8.92%)
   displ. norm   :     0.8512227 α      lambda       -0.6220181E-02
   maximum displ.:     0.6341306 α      in ANC's #32, #18, #34, ...

........................................................................
.............................. CYCLE   30 ..............................
........................................................................
   1   -502.3944148 -0.502394E+03  0.411E-03    1.13       0.0  T
   2   -502.3944165 -0.166206E-05  0.239E-03    1.13       2.6  T
   3   -502.3944179 -0.147160E-05  0.145E-03    1.13       4.3  T
   4   -502.3944178  0.754401E-07  0.921E-04    1.13       6.8  T
   5   -502.3944184 -0.579085E-06  0.334E-04    1.13      18.7  T
   6   -502.3944186 -0.137817E-06  0.623E-05    1.13      99.9  T
   7   -502.3944186 -0.325429E-08  0.265E-05    1.13     234.9  T
     SCC iter.                  ...        0 min,  3.017 sec
     gradient                   ...        0 min,  1.299 sec
 * total energy  :  -495.3908256 Eh     change       -0.5911039E-02 Eh
   gradient norm :     0.0093441 Eh/α   predicted    -0.5363603E-02 (  -9.26%)
   displ. norm   :     0.8541396 α      lambda       -0.5834645E-02
   maximum displ.:     0.6368461 α      in ANC's #32, #18, #34, ...

........................................................................
.............................. CYCLE   31 ..............................
........................................................................
   1   -502.4117968 -0.502412E+03  0.387E-03    1.13       0.0  T
   2   -502.4117980 -0.123708E-05  0.197E-03    1.13       3.2  T
   3   -502.4117988 -0.782543E-06  0.147E-03    1.13       4.2  T
   4   -502.4117989 -0.841430E-07  0.627E-04    1.13       9.9  T
   5   -502.4117991 -0.265353E-06  0.278E-04    1.13      22.4  T
   6   -502.4117992 -0.103597E-06  0.418E-05    1.13     148.9  T
   7   -502.4117993 -0.117444E-08  0.225E-05    1.13     276.5  T
     SCC iter.                  ...        0 min,  3.434 sec
     gradient                   ...        0 min,  1.298 sec
 * total energy  :  -495.3964580 Eh     change       -0.5632347E-02 Eh
   gradient norm :     0.0081700 Eh/α   predicted    -0.5045664E-02 ( -10.42%)
   displ. norm   :     0.8557420 α      lambda       -0.5530189E-02
   maximum displ.:     0.6366248 α      in ANC's #32, #18, #34, ...

........................................................................
.............................. CYCLE   32 ..............................
........................................................................
   1   -502.4276209 -0.502428E+03  0.387E-03    1.13       0.0  T
   2   -502.4276222 -0.130667E-05  0.183E-03    1.13       3.4  T
   3   -502.4276229 -0.703919E-06  0.146E-03    1.13       4.3  T
   4   -502.4276231 -0.255192E-06  0.297E-04    1.13      21.0  T
   5   -502.4276231  0.344505E-08  0.186E-04    1.13      33.5  T
   6   -502.4276232 -0.341335E-07  0.376E-05    1.13     165.5  T
     SCC iter.                  ...        0 min,  2.555 sec
     gradient                   ...        0 min,  1.326 sec
 * total energy  :  -495.4017802 Eh     change       -0.5322207E-02 Eh
   gradient norm :     0.0071045 Eh/α   predicted    -0.4789961E-02 ( -10.00%)
   displ. norm   :     0.8581403 α      lambda       -0.5219140E-02
   maximum displ.:     0.6358289 α      in ANC's #32, #18, #34, ...

........................................................................
.............................. CYCLE   33 ..............................
........................................................................
   1   -502.4434327 -0.502443E+03  0.384E-03    1.12       0.0  T
   2   -502.4434339 -0.118198E-05  0.186E-03    1.12       3.3  T
   3   -502.4434347 -0.795601E-06  0.142E-03    1.12       4.4  T
   4   -502.4434349 -0.179604E-06  0.431E-04    1.12      14.4  T
   5   -502.4434349 -0.523769E-07  0.255E-04    1.12      24.4  T
   6   -502.4434350 -0.736311E-07  0.298E-05    1.12     209.1  T
   7   -502.4434350 -0.367095E-09  0.156E-05    1.12     398.0  T
     SCC iter.                  ...        0 min,  3.037 sec
     gradient                   ...        0 min,  1.299 sec
 * total energy  :  -495.4068089 Eh     change       -0.5028752E-02 Eh
   gradient norm :     0.0064036 Eh/α   predicted    -0.4531276E-02 (  -9.89%)
   displ. norm   :     0.8602227 α      lambda       -0.4908666E-02
   maximum displ.:     0.6342017 α      in ANC's #32, #18, #34, ...

........................................................................
.............................. CYCLE   34 ..............................
........................................................................
   1   -502.4582043 -0.502458E+03  0.374E-03    1.12       0.0  T
   2   -502.4582054 -0.113709E-05  0.187E-03    1.12       3.3  T
   3   -502.4582063 -0.834363E-06  0.136E-03    1.12       4.6  T
   4   -502.4582064 -0.160189E-06  0.388E-04    1.12      16.1  T
   5   -502.4582065 -0.478533E-07  0.214E-04    1.12      29.0  T
   6   -502.4582065 -0.510396E-07  0.251E-05    1.12     247.7  T
   7   -502.4582065 -0.259263E-09  0.143E-05    1.12     436.9  T
     SCC iter.                  ...        0 min,  3.000 sec
     gradient                   ...        0 min,  1.238 sec
 * total energy  :  -495.4115361 Eh     change       -0.4727163E-02 Eh
   gradient norm :     0.0060793 Eh/α   predicted    -0.4270499E-02 (  -9.66%)
   displ. norm   :     0.8613333 α      lambda       -0.4625025E-02
   maximum displ.:     0.6314324 α      in ANC's #32, #18, #34, ...

........................................................................
.............................. CYCLE   35 ..............................
........................................................................
   1   -502.4728444 -0.502473E+03  0.353E-03    1.12       0.0  T
   2   -502.4728456 -0.112479E-05  0.184E-03    1.12       3.4  T
   3   -502.4728463 -0.773909E-06  0.128E-03    1.12       4.9  T
   4   -502.4728465 -0.146881E-06  0.318E-04    1.12      19.6  T
   5   -502.4728465 -0.234828E-07  0.194E-04    1.12      32.1  T
   6   -502.4728465 -0.385158E-07  0.228E-05    1.12     273.1  T
     SCC iter.                  ...        0 min,  2.508 sec
     gradient                   ...        0 min,  1.284 sec
 * total energy  :  -495.4159645 Eh     change       -0.4428404E-02 Eh
   gradient norm :     0.0059246 Eh/α   predicted    -0.4028155E-02 (  -9.04%)
   displ. norm   :     0.8632859 α      lambda       -0.4341485E-02
   maximum displ.:     0.6284637 α      in ANC's #32, #18, #34, ...

........................................................................
.............................. CYCLE   36 ..............................
........................................................................
   1   -502.4879123 -0.502488E+03  0.342E-03    1.12       0.0  T
   2   -502.4879134 -0.104319E-05  0.186E-03    1.12       3.4  T
   3   -502.4879142 -0.780250E-06  0.123E-03    1.12       5.0  T
   4   -502.4879142 -0.586474E-07  0.436E-04    1.12      14.3  T
   5   -502.4879143 -0.114321E-06  0.212E-04    1.12      29.4  T
   6   -502.4879144 -0.565020E-07  0.256E-05    1.12     243.2  T
   7   -502.4879144 -0.263356E-09  0.173E-05    1.12     359.5  T
     SCC iter.                  ...        0 min,  2.976 sec
     gradient                   ...        0 min,  1.329 sec
 * total energy  :  -495.4201198 Eh     change       -0.4155270E-02 Eh
   gradient norm :     0.0053706 Eh/α   predicted    -0.3788511E-02 (  -8.83%)
   displ. norm   :     0.8657554 α      lambda       -0.4035184E-02
   maximum displ.:     0.6268849 α      in ANC's #32, #18, #34, ...

........................................................................
.............................. CYCLE   37 ..............................
........................................................................
   1   -502.5018870 -0.502502E+03  0.329E-03    1.11       0.0  T
   2   -502.5018880 -0.100799E-05  0.180E-03    1.11       3.5  T
   3   -502.5018888 -0.731062E-06  0.118E-03    1.11       5.3  T
   4   -502.5018888 -0.384567E-07  0.454E-04    1.11      13.7  T
   5   -502.5018889 -0.117113E-06  0.221E-04    1.11      28.2  T
   6   -502.5018890 -0.637115E-07  0.264E-05    1.11     235.7  T
   7   -502.5018890 -0.365105E-09  0.165E-05    1.11     378.2  T
     SCC iter.                  ...        0 min,  3.312 sec
     gradient                   ...        0 min,  1.217 sec
 * total energy  :  -495.4239868 Eh     change       -0.3867069E-02 Eh
   gradient norm :     0.0049091 Eh/α   predicted    -0.3529840E-02 (  -8.72%)
   displ. norm   :     0.8695463 α      lambda       -0.3764973E-02
   maximum displ.:     0.6260184 α      in ANC's #32, #18, #34, ...

........................................................................
.............................. CYCLE   38 ..............................
........................................................................
   1   -502.5166792 -0.502517E+03  0.329E-03    1.11       0.0  T
   2   -502.5166803 -0.110232E-05  0.178E-03    1.11       3.5  T
   3   -502.5166810 -0.662065E-06  0.116E-03    1.11       5.4  T
   4   -502.5166811 -0.593952E-07  0.487E-04    1.11      12.8  T
   5   -502.5166812 -0.982542E-07  0.242E-04    1.11      25.7  T
   6   -502.5166812 -0.739974E-07  0.297E-05    1.11     209.5  T
   7   -502.5166812 -0.426269E-09  0.194E-05    1.11     321.0  T
     SCC iter.                  ...        0 min,  2.997 sec
     gradient                   ...        0 min,  1.311 sec
 * total energy  :  -495.4275709 Eh     change       -0.3584104E-02 Eh
   gradient norm :     0.0049209 Eh/α   predicted    -0.3305861E-02 (  -7.76%)
   displ. norm   :     0.8732602 α      lambda       -0.3498958E-02
   maximum displ.:     0.6242585 α      in ANC's #32, #18, #34, ...

........................................................................
.............................. CYCLE   39 ..............................
........................................................................
   1   -502.5298910 -0.502530E+03  0.328E-03    1.11       0.0  T
   2   -502.5298923 -0.129080E-05  0.175E-03    1.11       3.6  T
   3   -502.5298929 -0.626208E-06  0.115E-03    1.11       5.4  T
   4   -502.5298930 -0.781140E-07  0.437E-04    1.11      14.2  T
   5   -502.5298931 -0.375077E-07  0.254E-04    1.11      24.5  T
   6   -502.5298931 -0.816073E-07  0.318E-05    1.11     195.6  T
   7   -502.5298931 -0.454065E-09  0.197E-05    1.11     316.1  T
     SCC iter.                  ...        0 min,  3.029 sec
     gradient                   ...        0 min,  1.304 sec
 * total energy  :  -495.4308825 Eh     change       -0.3311553E-02 Eh
   gradient norm :     0.0044154 Eh/α   predicted    -0.3083605E-02 (  -6.88%)
   displ. norm   :     0.8776881 α      lambda       -0.3215002E-02
   maximum displ.:     0.6242984 α      in ANC's #32, #18, #34, ...

........................................................................
.............................. CYCLE   40 ..............................
........................................................................
   1   -502.5441666 -0.502544E+03  0.325E-03    1.11       0.0  T
   2   -502.5441679 -0.126192E-05  0.175E-03    1.11       3.6  T
   3   -502.5441685 -0.607250E-06  0.113E-03    1.11       5.5  T
   4   -502.5441686 -0.798676E-07  0.444E-04    1.11      14.0  T
   5   -502.5441686 -0.476254E-07  0.240E-04    1.11      25.9  T
   6   -502.5441687 -0.662889E-07  0.282E-05    1.11     220.4  T
   7   -502.5441687 -0.286320E-09  0.155E-05    1.11     401.5  T
     SCC iter.                  ...        0 min,  3.025 sec
     gradient                   ...        0 min,  1.295 sec
 * total energy  :  -495.4339174 Eh     change       -0.3034869E-02 Eh
   gradient norm :     0.0045303 Eh/α   predicted    -0.2845817E-02 (  -6.23%)
   displ. norm   :     0.8836205 α      lambda       -0.2949904E-02
   maximum displ.:     0.6240664 α      in ANC's #32, #18, #34, ...

........................................................................
.............................. CYCLE   41 ..............................
........................................................................
   1   -502.5565603 -0.502557E+03  0.332E-03    1.11       0.0  T
   2   -502.5565618 -0.157806E-05  0.174E-03    1.11       3.6  T
   3   -502.5565624 -0.577833E-06  0.113E-03    1.11       5.5  T
   4   -502.5565625 -0.101008E-06  0.402E-04    1.11      15.5  T
   5   -502.5565625  0.298655E-09  0.243E-04    1.11      25.6  T
   6   -502.5565626 -0.679166E-07  0.332E-05    1.11     187.8  T
   7   -502.5565626 -0.506702E-09  0.142E-05    1.11     437.6  T
     SCC iter.                  ...        0 min,  2.881 sec
     gradient                   ...        0 min,  1.288 sec
 * total energy  :  -495.4366752 Eh     change       -0.2757874E-02 Eh
   gradient norm :     0.0045823 Eh/α   predicted    -0.2626573E-02 (  -4.76%)
   displ. norm   :     0.8904319 α      lambda       -0.2687971E-02
   maximum displ.:     0.6250609 α      in ANC's #32, #18, #34, ...

........................................................................
.............................. CYCLE   42 ..............................
........................................................................
   1   -502.5706259 -0.502571E+03  0.331E-03    1.10       0.0  T
   2   -502.5706275 -0.153959E-05  0.176E-03    1.10       3.5  T
   3   -502.5706280 -0.561674E-06  0.113E-03    1.10       5.5  T
   4   -502.5706281 -0.918710E-07  0.460E-04    1.10      13.5  T
   5   -502.5706282 -0.267597E-07  0.263E-04    1.10      23.7  T
   6   -502.5706282 -0.761914E-07  0.321E-05    1.10     194.2  T
   7   -502.5706282 -0.403418E-09  0.152E-05    1.10     409.3  T
     SCC iter.                  ...        0 min,  2.939 sec
     gradient                   ...        0 min,  1.328 sec
 * total energy  :  -495.4391740 Eh     change       -0.2498803E-02 Eh
   gradient norm :     0.0043389 Eh/α   predicted    -0.2409580E-02 (  -3.57%)
   displ. norm   :     0.8954466 α      lambda       -0.2401921E-02
   maximum displ.:     0.6246077 α      in ANC's #32, #18, #34, ...
 * RMSD in coord.:     1.1397882 α      energy gain  -0.1199746E+00 Eh

generating ANC from model Hessian ...
Using Lindh-Hessian (1995)
 Shifting diagonal of input Hessian by    1.0020260278477208E-002
 Lowest  eigenvalues of input Hessian
    0.010000    0.010003    0.010007    0.010007    0.010012    0.010013
    0.010015    0.010017    0.010020    0.000000    0.000000    0.000000
    0.000000    0.000000    0.000000    0.010036    0.010041    0.010049
 Highest eigenvalues
    2.400075    2.400889    2.400973    2.809953    2.824424    2.827157


........................................................................
.............................. CYCLE   43 ..............................
........................................................................
   1   -502.5819304 -0.502582E+03  0.323E-03    1.10       0.0  T
   2   -502.5819319 -0.151167E-05  0.172E-03    1.10       3.6  T
   3   -502.5819325 -0.547937E-06  0.108E-03    1.10       5.8  T
   4   -502.5819326 -0.869712E-07  0.389E-04    1.10      16.0  T
   5   -502.5819326  0.761418E-09  0.235E-04    1.10      26.5  T
   6   -502.5819326 -0.574809E-07  0.331E-05    1.10     188.1  T
   7   -502.5819326 -0.496755E-09  0.139E-05    1.10     446.9  T
     SCC iter.                  ...        0 min,  3.253 sec
     gradient                   ...        0 min,  1.213 sec
 * total energy  :  -495.4413874 Eh     change       -0.2213372E-02 Eh
   gradient norm :     0.0040610 Eh/α   predicted     0.0000000E+00 (-100.00%)
   displ. norm   :     0.2143585 α      lambda       -0.5414241E-03
   maximum displ.:     0.1456717 α      in ANC's #32, #18, #34, ...

........................................................................
.............................. CYCLE   44 ..............................
........................................................................
   1   -502.5856154 -0.502586E+03  0.850E-04    1.10       0.0  T
   2   -502.5856155 -0.118051E-06  0.449E-04    1.10      13.9  T
   3   -502.5856155 -0.139059E-07  0.293E-04    1.10      21.3  T
   4   -502.5856155 -0.522601E-08  0.182E-04    1.10      34.3  T
   5   -502.5856155 -0.193603E-07  0.647E-05    1.10      96.2  T
     SCC iter.                  ...        0 min,  2.213 sec
     gradient                   ...        0 min,  1.276 sec
 * total energy  :  -495.4418855 Eh     change       -0.4981256E-03 Eh
   gradient norm :     0.0028914 Eh/α   predicted    -0.2834148E-03 ( -43.10%)
   displ. norm   :     0.4327012 α      lambda       -0.9807856E-03
   maximum displ.:     0.2857945 α      in ANC's #32, #18, #34, ...

........................................................................
.............................. CYCLE   45 ..............................
........................................................................
   1   -502.5922298 -0.502592E+03  0.157E-03    1.10       0.0  T
   2   -502.5922302 -0.415797E-06  0.843E-04    1.10       7.4  T
   3   -502.5922303 -0.949494E-07  0.521E-04    1.10      12.0  T
   4   -502.5922303 -0.894067E-08  0.269E-04    1.10      23.1  T
   5   -502.5922303 -0.238261E-07  0.129E-04    1.10      48.4  T
   6   -502.5922303 -0.179920E-07  0.211E-05    1.10     294.8  T
     SCC iter.                  ...        0 min,  2.601 sec
     gradient                   ...        0 min,  1.336 sec
 * total energy  :  -495.4428145 Eh     change       -0.9289514E-03 Eh
   gradient norm :     0.0044115 Eh/α   predicted    -0.5822124E-03 ( -37.33%)
   displ. norm   :     0.6526366 α      lambda       -0.1440882E-02
   maximum displ.:     0.4229186 α      in ANC's #32, #18, #34, ...

........................................................................
.............................. CYCLE   46 ..............................
........................................................................
   1   -502.6005064 -0.502601E+03  0.199E-03    1.10       0.0  T
   2   -502.6005070 -0.602694E-06  0.116E-03    1.10       5.4  T
   3   -502.6005073 -0.298916E-06  0.632E-04    1.10       9.9  T
   4   -502.6005073  0.476621E-08  0.287E-04    1.10      21.7  T
   5   -502.6005074 -0.234426E-07  0.151E-04    1.10      41.2  T
   6   -502.6005074 -0.275058E-07  0.253E-05    1.10     245.7  T
     SCC iter.                  ...        0 min,  2.605 sec
     gradient                   ...        0 min,  1.310 sec
 * total energy  :  -495.4440549 Eh     change       -0.1240395E-02 Eh
   gradient norm :     0.0069115 Eh/α   predicted    -0.1027302E-02 ( -17.18%)
   displ. norm   :     0.7402343 α      lambda       -0.1556440E-02
   maximum displ.:     0.4831692 α      in ANC's #18, #32, #34, ...

........................................................................
.............................. CYCLE   47 ..............................
........................................................................
   1   -502.6082562 -0.502608E+03  0.241E-03    1.10       0.0  T
   2   -502.6082569 -0.703606E-06  0.134E-03    1.10       4.7  T
   3   -502.6082572 -0.332030E-06  0.814E-04    1.10       7.6  T
   4   -502.6082573 -0.312731E-07  0.321E-04    1.10      19.4  T
   5   -502.6082573 -0.218806E-07  0.178E-04    1.10      34.9  T
   6   -502.6082573 -0.364932E-07  0.212E-05    1.10     293.9  T
     SCC iter.                  ...        0 min,  2.533 sec
     gradient                   ...        0 min,  1.257 sec
 * total energy  :  -495.4454509 Eh     change       -0.1395976E-02 Eh
   gradient norm :     0.0036568 Eh/α   predicted    -0.1204643E-02 ( -13.71%)
   displ. norm   :     0.8137535 α      lambda       -0.1394614E-02
   maximum displ.:     0.5390460 α      in ANC's #18, #32, #34, ...

........................................................................
.............................. CYCLE   48 ..............................
........................................................................
   1   -502.6169554 -0.502617E+03  0.249E-03    1.10       0.0  T
   2   -502.6169562 -0.832779E-06  0.139E-03    1.10       4.5  T
   3   -502.6169567 -0.436985E-06  0.798E-04    1.10       7.8  T
   4   -502.6169567 -0.749947E-08  0.393E-04    1.10      15.9  T
   5   -502.6169567 -0.533943E-07  0.191E-04    1.10      32.6  T
   6   -502.6169568 -0.417555E-07  0.247E-05    1.10     251.9  T
     SCC iter.                  ...        0 min,  2.510 sec
     gradient                   ...        0 min,  1.297 sec
 * total energy  :  -495.4466900 Eh     change       -0.1239181E-02 Eh
   gradient norm :     0.0032891 Eh/α   predicted    -0.1159061E-02 (  -6.47%)
   displ. norm   :     0.8052206 α      lambda       -0.1265161E-02
   maximum displ.:     0.5370672 α      in ANC's #18, #32, #34, ...

........................................................................
.............................. CYCLE   49 ..............................
........................................................................
   1   -502.6260505 -0.502626E+03  0.226E-03    1.09       0.0  T
   2   -502.6260512 -0.677736E-06  0.129E-03    1.09       4.8  T
   3   -502.6260516 -0.421314E-06  0.691E-04    1.09       9.0  T
   4   -502.6260516  0.641137E-08  0.331E-04    1.09      18.8  T
   5   -502.6260516 -0.377987E-07  0.159E-04    1.09      39.3  T
   6   -502.6260517 -0.281279E-07  0.222E-05    1.09     279.8  T
     SCC iter.                  ...        0 min,  2.572 sec
     gradient                   ...        0 min,  1.336 sec
 * total energy  :  -495.4476598 Eh     change       -0.9697407E-03 Eh
   gradient norm :     0.0049982 Eh/α   predicted    -0.1042733E-02 (   7.53%)
   displ. norm   :     0.7004397 α      lambda       -0.1031987E-02
   maximum displ.:     0.4744905 α      in ANC's #18, #32, #34, ...

........................................................................
.............................. CYCLE   50 ..............................
........................................................................
   1   -502.6349213 -0.502635E+03  0.201E-03    1.09       0.0  T
   2   -502.6349217 -0.457647E-06  0.109E-03    1.09       5.7  T
   3   -502.6349220 -0.205341E-06  0.677E-04    1.09       9.2  T
   4   -502.6349220 -0.214807E-07  0.282E-04    1.09      22.1  T
   5   -502.6349220 -0.239027E-07  0.145E-04    1.09      42.9  T
   6   -502.6349220 -0.221740E-07  0.191E-05    1.09     325.5  T
     SCC iter.                  ...        0 min,  2.874 sec
     gradient                   ...        0 min,  1.220 sec
 * total energy  :  -495.4484650 Eh     change       -0.8051962E-03 Eh
   gradient norm :     0.0038933 Eh/α   predicted    -0.7691500E-03 (  -4.48%)
   displ. norm   :     0.6545815 α      lambda       -0.8642082E-03
   maximum displ.:     0.4501816 α      in ANC's #18, #32, #34, ...

........................................................................
.............................. CYCLE   51 ..............................
........................................................................
   1   -502.6418981 -0.502642E+03  0.169E-03    1.09       0.0  T
   2   -502.6418985 -0.382399E-06  0.104E-03    1.09       6.0  T
   3   -502.6418988 -0.274438E-06  0.508E-04    1.09      12.3  T
   4   -502.6418988  0.255236E-07  0.278E-04    1.09      22.4  T
   5   -502.6418988 -0.425671E-07  0.105E-04    1.09      59.6  T
   6   -502.6418988 -0.113589E-07  0.175E-05    1.09     355.9  T
     SCC iter.                  ...        0 min,  2.567 sec
     gradient                   ...        0 min,  1.316 sec
 * total energy  :  -495.4489278 Eh     change       -0.4628201E-03 Eh
   gradient norm :     0.0056104 Eh/α   predicted    -0.6172566E-03 (  33.37%)
   displ. norm   :     0.4672510 α      lambda       -0.6930681E-03
   maximum displ.:     0.3266141 α      in ANC's #18, #32, #15, ...

........................................................................
.............................. CYCLE   52 ..............................
........................................................................
   1   -502.6471927 -0.502647E+03  0.138E-03    1.09       0.0  T
   2   -502.6471930 -0.220999E-06  0.802E-04    1.09       7.8  T
   3   -502.6471930 -0.550267E-07  0.522E-04    1.09      11.9  T
   4   -502.6471930 -0.269407E-07  0.292E-04    1.09      21.3  T
   5   -502.6471931 -0.517544E-07  0.100E-04    1.09      62.2  T
   6   -502.6471931 -0.100951E-07  0.180E-05    1.09     346.3  T
     SCC iter.                  ...        0 min,  2.612 sec
     gradient                   ...        0 min,  1.328 sec
 * total energy  :  -495.4494265 Eh     change       -0.4987366E-03 Eh
   gradient norm :     0.0037033 Eh/α   predicted    -0.4221933E-03 ( -15.35%)
   displ. norm   :     0.4417073 α      lambda       -0.4032757E-03
   maximum displ.:     0.3205420 α      in ANC's #18, #32, #15, ...

........................................................................
.............................. CYCLE   53 ..............................
........................................................................
   1   -502.6517917 -0.502652E+03  0.117E-03    1.09       0.0  T
   2   -502.6517920 -0.308577E-06  0.664E-04    1.09       9.4  T
   3   -502.6517921 -0.893554E-07  0.344E-04    1.09      18.1  T
   4   -502.6517921  0.555872E-09  0.168E-04    1.09      37.0  T
   5   -502.6517921  0.718671E-09  0.999E-05    1.09      62.3  T
     SCC iter.                  ...        0 min,  2.176 sec
     gradient                   ...        0 min,  1.311 sec
 * total energy  :  -495.4497558 Eh     change       -0.3292567E-03 Eh
   gradient norm :     0.0019607 Eh/α   predicted    -0.2409824E-03 ( -26.81%)
   displ. norm   :     0.4884704 α      lambda       -0.2398171E-03
   maximum displ.:     0.3687976 α      in ANC's #18, #32, #15, ...

........................................................................
.............................. CYCLE   54 ..............................
........................................................................
   1   -502.6562783 -0.502656E+03  0.102E-03    1.09       0.0  T
   2   -502.6562785 -0.132583E-06  0.602E-04    1.09      10.3  T
   3   -502.6562785 -0.636168E-07  0.331E-04    1.09      18.8  T
   4   -502.6562785  0.820324E-08  0.175E-04    1.09      35.5  T
   5   -502.6562785 -0.189856E-07  0.685E-05    1.09      90.9  T
     SCC iter.                  ...        0 min,  2.074 sec
     gradient                   ...        0 min,  1.282 sec
 * total energy  :  -495.4500862 Eh     change       -0.3303785E-03 Eh
   gradient norm :     0.0018099 Eh/α   predicted    -0.1326278E-03 ( -59.86%)
   displ. norm   :     0.3541541 α      lambda       -0.1954185E-03
   maximum displ.:     0.2774256 α      in ANC's #18, #32, #15, ...

........................................................................
.............................. CYCLE   55 ..............................
........................................................................
   1   -502.6583215 -0.502658E+03  0.548E-04    1.09       0.0  T
   2   -502.6583216 -0.495663E-07  0.325E-04    1.09      19.2  T
   3   -502.6583216 -0.198351E-07  0.172E-04    1.09      36.3  T
   4   -502.6583216  0.302930E-08  0.128E-04    1.09      48.7  T
     SCC iter.                  ...        0 min,  1.681 sec
     gradient                   ...        0 min,  1.299 sec
 * total energy  :  -495.4503621 Eh     change       -0.2759275E-03 Eh
   gradient norm :     0.0015089 Eh/α   predicted    -0.1031598E-03 ( -62.61%)
   displ. norm   :     0.3877741 α      lambda       -0.2287738E-03
   maximum displ.:     0.2933905 α      in ANC's #18, #34, #15, ...

........................................................................
.............................. CYCLE   56 ..............................
........................................................................
   1   -502.6590602 -0.502659E+03  0.473E-04    1.09       0.0  T
   2   -502.6590602 -0.424486E-07  0.275E-04    1.09      22.6  T
   3   -502.6590603 -0.213401E-07  0.145E-04    1.09      43.0  T
   4   -502.6590603 -0.822672E-08  0.109E-04    1.09      57.0  T
     SCC iter.                  ...        0 min,  1.697 sec
[...]
    12   7 N       13   6 C                                       1.3686341
    13   6 C       14   6 C                                       1.3955961
    14   6 C       15   6 C                                       1.3956372
    15   6 C       16   6 C                                       1.4285677
    16   6 C       17   6 C                                       1.3541707
    17   6 C       18   6 C                                       1.4319131
    18   6 C       19   6 C                                       1.3884001
    20   6 C       21   6 C                                       1.3970893
    21   6 C       22   6 C                                       1.3827643
    22   6 C       23   6 C                                       1.3961411
    24   6 C       25   8 O                                       1.3415767
    24   6 C       26   8 O                                       1.2047067
    23   6 C       27   6 C                                       1.3951681
    20   6 C       28   6 C                                       1.3969227
    27   6 C       28   6 C                                       1.3839727
    19   6 C       29   6 C                                       1.3886255
    29   6 C       30   6 C                                       1.4339654
    30   6 C       31   6 C                                       1.3531407
     2   6 C       32   6 C                                       1.3789066
    31   6 C       32   6 C                                       1.4312131
    29   6 C       33   7 N                                       1.3721484
    32   6 C       33   7 N                                       1.3726544
    15   6 C       34   7 N                                       1.3684716
    18   6 C       34   7 N                                       1.3760858
    35   6 C       36   6 C                                       1.3967559
    36   6 C       37   6 C                                       1.3828699
    37   6 C       38   6 C                                       1.3960837
    39   6 C       40   8 O                                       1.3414870
    39   6 C       41   8 O                                       1.2047020
    38   6 C       42   6 C                                       1.3950982
    35   6 C       43   6 C                                       1.3965389
    42   6 C       43   6 C                                       1.3841218
     2   6 C       44   1 H                                       1.0837269
     4   6 C       45   1 H                                       1.0783159
     5   6 C       46   1 H                                       1.0778392
    10   6 C       47   1 H                                       1.0776330
    11   6 C       48   1 H                                       1.0779830
    16   6 C       49   1 H                                       1.0780184
    17   6 C       50   1 H                                       1.0776579
    21   6 C       51   1 H                                       1.0840455
    22   6 C       52   1 H                                       1.0844785
    25   8 O       53   1 H                                       0.9709858 (min)
    27   6 C       54   1 H                                       1.0835710
    28   6 C       55   1 H                                       1.0841681
    30   6 C       56   1 H                                       1.0778469
    31   6 C       57   1 H                                       1.0783133
    36   6 C       58   1 H                                       1.0840289
    37   6 C       59   1 H                                       1.0844727
    40   8 O       60   1 H                                       0.9710051
    42   6 C       61   1 H                                       1.0835618
    43   6 C       62   1 H                                       1.0841392
    64   6 C       65   6 C                                       1.3791227
    65   6 C       66   6 C                                       1.4312474
    66   6 C       67   6 C                                       1.3530784
    67   6 C       68   6 C                                       1.4341037
    65   6 C       69   7 N                                       1.3724492
    68   6 C       69   7 N                                       1.3723821
    68   6 C       70   6 C                                       1.3883393
    70   6 C       71   6 C                                       1.3883112
    71   6 C       72   6 C                                       1.4318866
    72   6 C       73   6 C                                       1.3540660
    71   6 C       74   7 N                                       1.3762454
    73   6 C       75   6 C                                       1.4286638
    74   7 N       75   6 C                                       1.3684951
    75   6 C       76   6 C                                       1.3959497
    76   6 C       77   6 C                                       1.3959785
    77   6 C       78   6 C                                       1.4285272
    78   6 C       79   6 C                                       1.3542852
    79   6 C       80   6 C                                       1.4318589
    80   6 C       81   6 C                                       1.3884971
    82   6 C       83   6 C                                       1.3971555
    83   6 C       84   6 C                                       1.3827348
    84   6 C       85   6 C                                       1.3961371
    86   6 C       87   8 O                                       1.3413954
    86   6 C       88   8 O                                       1.2047116
    85   6 C       89   6 C                                       1.3951511
    82   6 C       90   6 C                                       1.3969634
    89   6 C       90   6 C                                       1.3839730
    81   6 C       91   6 C                                       1.3888142
    91   6 C       92   6 C                                       1.4339639
    92   6 C       93   6 C                                       1.3532144
    64   6 C       94   6 C                                       1.3790006
    93   6 C       94   6 C                                       1.4312113
    91   6 C       95   7 N                                       1.3721006
    94   6 C       95   7 N                                       1.3726893
    77   6 C       96   7 N                                       1.3683626
    80   6 C       96   7 N                                       1.3761447
    97   6 C       98   6 C                                       1.3967861
    98   6 C       99   6 C                                       1.3828314
    99   6 C      100   6 C                                       1.3961084
   101   6 C      102   8 O                                       1.3415170
   101   6 C      103   8 O                                       1.2047584
   100   6 C      104   6 C                                       1.3951190
    97   6 C      105   6 C                                       1.3965108
   104   6 C      105   6 C                                       1.3841444
    64   6 C      106   1 H                                       1.0837205
    66   6 C      107   1 H                                       1.0783204
    67   6 C      108   1 H                                       1.0778501
    72   6 C      109   1 H                                       1.0776402
    73   6 C      110   1 H                                       1.0779923
    78   6 C      111   1 H                                       1.0780026
    79   6 C      112   1 H                                       1.0776763
    83   6 C      113   1 H                                       1.0840523
    84   6 C      114   1 H                                       1.0844778
    87   8 O      115   1 H                                       0.9709985
    89   6 C      116   1 H                                       1.0835688
    90   6 C      117   1 H                                       1.0841616
    92   6 C      118   1 H                                       1.0778438
    93   6 C      119   1 H                                       1.0783101
    98   6 C      120   1 H                                       1.0840352
    99   6 C      121   1 H                                       1.0844743
   102   8 O      122   1 H                                       0.9709925
   104   6 C      123   1 H                                       1.0835639
   105   6 C      124   1 H                                       1.0841293
   125   6 C      126   6 C                                       1.2203823
   127   6 C      128   6 C                                       1.2204750
   129   6 C      130   6 C                                       1.2214708
   131   6 C      132   6 C                                       1.2214951
   133   6 C      134   6 C                                       1.2206232
   135   6 C      136   6 C                                       1.2205439
   138   6 C      139   6 C                                       1.3965357
   139   6 C      140   6 C                                       1.4282956
   140   6 C      141   6 C                                       1.3550150
   141   6 C      142   6 C                                       1.4313616
   139   6 C      143   7 N                                       1.3685429
   142   6 C      143   7 N                                       1.3755661
   142   6 C      144   6 C                                       1.3892771
   144   6 C      145   6 C                                       1.3888855
   145   6 C      146   6 C                                       1.4313204
   146   6 C      147   6 C                                       1.3551073
   145   6 C      148   7 N                                       1.3762060
   147   6 C      149   6 C                                       1.4280377
   148   7 N      149   6 C                                       1.3676802
   149   6 C      150   6 C                                       1.3977662
   150   6 C      151   6 C                                       1.3978225
   151   6 C      152   6 C                                       1.4279624
   152   6 C      153   6 C                                       1.3551636
   153   6 C      154   6 C                                       1.4313180
   154   6 C      155   6 C                                       1.3889288
   156   6 C      157   6 C                                       1.3974591
   157   6 C      158   6 C                                       1.3826166
   158   6 C      159   6 C                                       1.3961515
   160   6 C      161   8 O                                       1.3414502
   160   6 C      162   8 O                                       1.2047228
   159   6 C      163   6 C                                       1.3951831
   156   6 C      164   6 C                                       1.3972323
   163   6 C      164   6 C                                       1.3838757
   155   6 C      165   6 C                                       1.3894373
   165   6 C      166   6 C                                       1.4313189
   166   6 C      167   6 C                                       1.3550981
   138   6 C      168   6 C                                       1.3965397
   167   6 C      168   6 C                                       1.4282129
   165   6 C      169   7 N                                       1.3755250
   168   6 C      169   7 N                                       1.3685501
   151   6 C      170   7 N                                       1.3676108
   154   6 C      170   7 N                                       1.3762837
   171   6 C      172   6 C                                       1.3973845
   172   6 C      173   6 C                                       1.3826481
   173   6 C      174   6 C                                       1.3961092
   175   6 C      176   8 O                                       1.3412486
   175   6 C      177   8 O                                       1.2045800
   174   6 C      178   6 C                                       1.3951097
   171   6 C      179   6 C                                       1.3971295
   178   6 C      179   6 C                                       1.3839392
   140   6 C      180   1 H                                       1.0779987
   141   6 C      181   1 H                                       1.0777143
   146   6 C      182   1 H                                       1.0776957
   147   6 C      183   1 H                                       1.0780139
   152   6 C      184   1 H                                       1.0780213
   153   6 C      185   1 H                                       1.0776982
   157   6 C      186   1 H                                       1.0840537
   158   6 C      187   1 H                                       1.0844844
   161   8 O      188   1 H                                       0.9710170
   163   6 C      189   1 H                                       1.0835701
   164   6 C      190   1 H                                       1.0841785
   166   6 C      191   1 H                                       1.0777372
   167   6 C      192   1 H                                       1.0780233
   172   6 C      193   1 H                                       1.0840569
   173   6 C      194   1 H                                       1.0844722
   176   8 O      195   1 H                                       0.9710357
   178   6 C      196   1 H                                       1.0835652
   179   6 C      197   1 H                                       1.0841659
   199   6 C      200   6 C                                       1.3978765
   200   6 C      201   6 C                                       1.4280222
   201   6 C      202   6 C                                       1.3551930
   202   6 C      203   6 C                                       1.4313141
   200   6 C      204   7 N                                       1.3675801
   203   6 C      204   7 N                                       1.3763195
   203   6 C      205   6 C                                       1.3888891
   205   6 C      206   6 C                                       1.3894730
   206   6 C      207   6 C                                       1.4312546
   207   6 C      208   6 C                                       1.3552023
   206   6 C      209   7 N                                       1.3754701
   208   6 C      210   6 C                                       1.4282016
   209   7 N      210   6 C                                       1.3684803
   210   6 C      211   6 C                                       1.3968968
   211   6 C      212   6 C                                       1.3968366
   212   6 C      213   6 C                                       1.4281671
   213   6 C      214   6 C                                       1.3551812
   214   6 C      215   6 C                                       1.4312980
   215   6 C      216   6 C                                       1.3894914
   217   6 C      218   6 C                                       1.3974844
   218   6 C      219   6 C                                       1.3826207
   219   6 C      220   6 C                                       1.3961377
   221   6 C      222   8 O                                       1.3413435
   221   6 C      223   8 O                                       1.2047303
   220   6 C      224   6 C                                       1.3951419
   217   6 C      225   6 C                                       1.3972141
   224   6 C      225   6 C                                       1.3839002
   216   6 C      226   6 C                                       1.3890524
   226   6 C      227   6 C                                       1.4312956
   227   6 C      228   6 C                                       1.3552330
   199   6 C      229   6 C                                       1.3979265
   228   6 C      229   6 C                                       1.4279820
   226   6 C      230   7 N                                       1.3762462
   229   6 C      230   7 N                                       1.3676362
   212   6 C      231   7 N                                       1.3684298
   215   6 C      231   7 N                                       1.3756305
   232   6 C      233   6 C                                       1.3973504
   233   6 C      234   6 C                                       1.3827054
   234   6 C      235   6 C                                       1.3961260
   236   6 C      237   8 O                                       1.3413388
   236   6 C      238   8 O                                       1.2046240
   235   6 C      239   6 C                                       1.3951524
   232   6 C      240   6 C                                       1.3972287
   239   6 C      240   6 C                                       1.3838289
   201   6 C      241   1 H                                       1.0780249
   202   6 C      242   1 H                                       1.0777002
   207   6 C      243   1 H                                       1.0777518
   208   6 C      244   1 H                                       1.0780155
   213   6 C      245   1 H                                       1.0780242
   214   6 C      246   1 H                                       1.0777182
   218   6 C      247   1 H                                       1.0840694
   219   6 C      248   1 H                                       1.0844860
   222   8 O      249   1 H                                       0.9710163
   224   6 C      250   1 H                                       1.0835895
   225   6 C      251   1 H                                       1.0841764
   227   6 C      252   1 H                                       1.0777075
   228   6 C      253   1 H                                       1.0780255
   233   6 C      254   1 H                                       1.0840462
   234   6 C      255   1 H                                       1.0844794
   237   8 O      256   1 H                                       0.9710103
   239   6 C      257   1 H                                       1.0835564
   240   6 C      258   1 H                                       1.0841720

 * 5 distinct bonds (by element types)

   Z      Z             #   av. dist./Å        max./Å        min./Å
   1 H    6 C          66     1.0810699     1.0844860     1.0776330
   6 C    6 C         134     1.3887214     1.4341050     1.2203823
   6 C    7 N          32     1.3721775     1.3763195     1.3675801
   1 H    8 O           8     0.9710076     0.9710357     0.9709858
   6 C    8 O          16     1.2730558     1.3415767     1.2045800


optimized geometry written to: xtbopt.xyz


           -------------------------------------------------
          | TOTAL ENERGY             -495.455716789732 Eh   |
          | GRADIENT NORM               0.000696160375 Eh/α |
          | HOMO-LUMO GAP               1.081735044908 eV   |
           -------------------------------------------------

------------------------------------------------------------------------
 * finished run on 2022/07/30 at 06:30:46.658     
------------------------------------------------------------------------
 total:
 * wall-time:     0 d,  0 h,  7 min, 53.836 sec
 *  cpu-time:     0 d,  0 h,  7 min, 50.949 sec
 * ratio c/w:     0.994 speedup
 SCF:
 * wall-time:     0 d,  0 h,  0 min, 28.628 sec
 *  cpu-time:     0 d,  0 h,  0 min, 28.453 sec
 * ratio c/w:     0.994 speedup
 ANC optimizer:
 * wall-time:     0 d,  0 h,  7 min, 24.728 sec
 *  cpu-time:     0 d,  0 h,  7 min, 22.024 sec
 * ratio c/w:     0.994 speedup

