142
 energy: -228.302515913121 gnorm: 0.501741821775 xtb: 6.5.1 (b24c23e)
Cu          14.16252400000000       -0.00543800000000       -0.00640500000000
C           10.80383500000000        0.19782200000000       -0.24171500000000
C           11.46815500000000        1.29865900000000        0.11976000000000
C           10.81850600000000        2.54214700000000        0.51720600000000
C           11.76122000000000        3.41798700000000        0.80735800000000
C           13.06694100000000        2.77722000000000        0.60004600000000
N           12.88777600000000        1.42866300000000        0.16697400000000
C           14.26211400000000        3.37272700000000        0.78632000000000
C           15.55743100000000        2.68126600000000        0.55849800000000
C           16.85420100000000        3.36790800000000        0.55939500000000
C           17.78738400000000        2.46494100000000        0.34232800000000
N           15.69030100000000        1.40701800000000        0.34655300000000
C           17.09375800000000        1.18993700000000        0.19903600000000
C           17.68534700000000       -0.00017400000000        0.00004800000000
C           16.92677900000000       -1.26664900000000       -0.14106100000000
C           17.48396700000000       -2.47117300000000       -0.12474600000000
C           16.43673100000000       -3.43675700000000       -0.38472100000000
C           15.30256300000000       -2.76242500000000       -0.53952400000000
C           14.00061000000000       -3.38697400000000       -0.89815700000000
C           13.97554300000000       -4.82876800000000       -1.23272200000000
C           13.90906700000000       -5.24182000000000       -2.57098200000000
C           13.90442500000000       -6.60773000000000       -2.89048600000000
C           13.79864300000000       -7.04760000000000       -4.32081300000000
C           13.93223100000000       -7.55976700000000       -1.85953200000000
C           13.98929400000000       -7.15467500000000       -0.51769100000000
C           14.05603900000000       -8.18526200000000        0.57084000000000
C           14.02083200000000       -5.78627900000000       -0.20922000000000
C           12.84746500000000       -2.69257500000000       -0.91201500000000
C           11.52679500000000       -3.23301600000000       -1.23053700000000
C           10.67154100000000       -2.24851100000000       -1.04110000000000
C           11.43522400000000       -1.08057200000000       -0.60549400000000
N           12.70544300000000       -1.32756400000000       -0.52632700000000
N           15.52278200000000       -1.35721100000000       -0.39254100000000
C           14.31164600000000        4.78299200000000        1.23102000000000
C           13.99616300000000        5.81848300000000        0.33924000000000
C           14.03914800000000        7.15475900000000        0.76252700000000
C           13.71900400000000        8.26377500000000       -0.19601400000000
C           14.43978500000000        7.45287000000000        2.07355500000000
C           14.78081300000000        6.42431200000000        2.96460100000000
C           15.16314400000000        6.74508300000000        4.37926200000000
C           14.69969700000000        5.08942600000000        2.54258300000000
H            9.72088500000000        0.23480200000000       -0.25999400000000
H            9.75389100000000        2.72870000000000        0.57658200000000
H           11.57528700000000        4.43067200000000        1.13998800000000
H           17.03412500000000        4.42481800000000        0.70585800000000
H           18.84962200000000        2.66245400000000        0.28758600000000
H           18.52960600000000       -2.70263600000000        0.02543800000000
H           16.57229300000000       -4.50644200000000       -0.47116500000000
H           13.86498200000000       -4.50041200000000       -3.36078800000000
H           14.30114200000000       -8.02736300000000       -4.46837000000000
H           12.72832200000000       -7.14405500000000       -4.59833800000000
H           14.28316700000000       -6.30894500000000       -4.99494400000000
H           13.91109500000000       -8.61623200000000       -2.10102700000000
H           13.88747600000000       -7.73004200000000        1.57115600000000
H           13.27727000000000       -8.96019800000000        0.40736300000000
H           15.05521800000000       -8.66930200000000        0.56166400000000
H           14.07759900000000       -5.46256400000000        0.82420100000000
H           11.27294500000000       -4.23637000000000       -1.54563500000000
H            9.59994100000000       -2.31002300000000       -1.17826800000000
H           13.71213700000000        5.58298000000000       -0.67979400000000
H           13.23010100000000        9.10762800000000        0.33601800000000
H           13.02781300000000        7.91188600000000       -0.99095800000000
H           14.65628500000000        8.62744100000000       -0.66595000000000
H           14.48560100000000        8.48568500000000        2.39963300000000
H           14.25368300000000        6.75231400000000        5.01427400000000
H           15.65327300000000        7.73997000000000        4.43781200000000
H           15.87446700000000        5.98787700000000        4.77407400000000
H           14.94176000000000        4.28848200000000        3.23149600000000
Cu          30.23764700000000        0.00748900000000        0.00330800000000
C           33.59633500000000        0.17691900000000       -0.25742100000000
C           32.93201600000000       -0.47670200000000       -1.21412600000000
C           33.58166500000000       -1.20458000000000       -2.29783300000000
C           32.63895100000000       -1.72706600000000       -3.05828800000000
C           31.33322900000000       -1.34958200000000       -2.50055400000000
N           31.51239500000000       -0.55823800000000       -1.32584900000000
C           30.13805700000000       -1.69426000000000       -3.02067300000000
C           28.84274000000000       -1.28296600000000       -2.41995900000000
C           27.54597000000000       -1.47496300000000       -3.07921200000000
C           26.61278700000000       -1.01512300000000       -2.27235700000000
N           28.70987000000000       -0.72469400000000       -1.25507100000000
C           27.30641300000000       -0.52258000000000       -1.08763400000000
C           26.71482400000000       -0.00017400000000        0.00004800000000
C           27.47339200000000        0.48789800000000        1.17718700000000
C           26.91620400000000        0.80752300000000        2.33864500000000
C           27.96343999999999        1.32600600000000        3.19369700000000
C           29.09760800000000        1.28698100000000        2.50292700000000
C           30.39956100000000        1.80529100000000        3.00296100000000
C           30.42462700000000        2.52797500000000        4.29463900000000
C           30.49110400000000        3.92832000000000        4.31884300000000
C           30.49574600000000        4.61541500000000        5.54182800000000
C           30.60152700000000        6.11165300000000        5.56616300000000
C           30.46794000000000        3.89022000000000        6.74321700000000
C           30.41087599999999        2.48865200000000        6.72765500000000
C           30.34413100000000        1.73002100000000        8.02051600000000
C           30.37933800000000        1.81146200000000        5.49921000000000
C           31.55270500000000        1.62530600000000        2.33215000000000
C           32.87337600000000        2.08167800000000        2.76256500000000
C           33.72863000000000        1.62567800000000        1.86970500000000
C           32.96494700000000        0.88217800000000        0.86918400000000
N           31.69472800000000        0.87489300000000        1.12845100000000
N           28.87738900000000        0.75464700000000        1.19416700000000
C           30.08852400000000       -2.51395000000000       -4.25141100000000
C           30.40400800000000       -1.94565900000000       -5.49421300000000
C           30.36102200000000       -2.72418700000000       -6.65984600000000
C           30.68116699999999       -2.11223900000000       -7.99185200000000
C           29.96038600000000       -4.06638000000000       -6.58123300000000
C           29.61935800000000       -4.63589600000000       -5.34529400000000
C           29.23702600000000       -6.08393400000000       -5.25959700000000
C           29.70047300000000       -3.85897400000000       -4.18064200000000
H           34.67928599999999        0.18418200000000       -0.29802600000000
H           34.64627899999999       -1.31353900000000       -2.46048400000000
H           32.82488400000000       -2.32844300000000       -3.93835500000000
H           27.36604500000000       -1.90984200000000       -4.05357800000000
H           25.55054900000000       -1.01752500000000       -2.47730200000000
H           25.87056400000000        0.72770600000000        2.60276600000000
H           27.82787700000000        1.70679400000000        4.19704200000000
H           30.53518800000000        4.48052900000000        3.38688600000000
H           30.09902900000000        6.52610700000000        6.46612700000000
H           31.67184800000000        6.40505900000000        5.58155300000000
H           30.11700400000000        6.55352500000000        4.66904900000000
H           30.48907600000000        4.41625100000000        7.69070200000000
H           30.51269500000000        0.64252500000000        7.86173900000000
H           31.12290100000000        2.10275000000000        8.71931700000000
H           29.34495300000000        1.87357300000000        8.48287000000000
H           30.32257100000000        0.72877500000000        5.47595500000000
H           33.12722600000000        2.66361900000000        3.63855100000000
H           34.80022900000000        1.77454800000000        1.89060300000000
H           30.68803400000000       -0.90134600000000       -5.55167900000000
H           31.17006900000000       -2.85814200000000       -8.65425500000000
H           31.37235800000000       -1.25076300000000       -7.87515500000000
H           29.74388600000000       -1.76210900000000       -8.47195700000000
H           29.91457000000000       -4.66706800000000       -7.48245900000000
H           30.14648800000000       -6.69586100000000       -5.08977800000000
H           28.74689800000000       -6.41711000000000       -6.19886400000000
H           28.52570400000000       -6.25236400000000       -4.42241700000000
H           29.45841100000000       -4.29770600000000       -3.21958600000000
C           22.80400600000000        0.00113800000000        0.00848000000000
C           21.59506600000000       -0.01231700000000        0.00003300000000
C           20.17353700000000       -0.00349800000000       -0.01195000000000
C           18.96186800000000        0.00394100000000       -0.00108700000000
C           24.22061000000000       -0.00553700000000        0.00901300000000
C           25.44130600000000        0.00394100000000       -0.00108700000000
142
 energy: -228.417530649158 gnorm: 0.251033894459 xtb: 6.5.1 (b24c23e)
Cu          14.16414381703237        0.00547916804526       -0.02154627920404
C           10.80269336623380        0.17810069714548       -0.24844346705053
C           11.47173652856278        1.29861668400359        0.12105037544015
C           10.81851628006464        2.53463125302938        0.51461196210585
C           11.77373829812067        3.42105178090833        0.80819075547416
C           13.06578835515508        2.77363458851483        0.60084581371779
N           12.86179798429713        1.45162033602828        0.17912133154307
C           14.27826583727592        3.37362054965043        0.78531523008366
C           15.54471133711587        2.70944218632658        0.56710893359070
C           16.83367171627474        3.38685327519357        0.56621383161264
C           17.77471157012821        2.45830196382564        0.34215537866597
N           15.69294865444799        1.41867403775332        0.34451474565400
C           17.06925441308366        1.20038891208537        0.19917483486852
C           17.64661407171136       -0.01844347496260       -0.00077717216611
C           16.90266999085701       -1.26421659545581       -0.14731488619107
C           17.48499108186593       -2.50037399455030       -0.13175591339663
C           16.46249015893667       -3.44501643797457       -0.38507689267168
C           15.29266194146686       -2.75196277695303       -0.54356233993290
C           14.01982247006385       -3.37487644179011       -0.89371185178775
C           13.98947581455159       -4.82690694808745       -1.23158448933930
C           13.91091001278935       -5.24385280328378       -2.56435674262393
C           13.89921229002102       -6.60443584063799       -2.88383362378253
C           13.80121909359708       -7.04660078230594       -4.31931269680224
C           13.93284755470080       -7.55070518928661       -1.85735653296739
C           13.99168932194729       -7.14858163924722       -0.52076567064368
C           14.05405195534995       -8.18364748255861        0.57028579438724
C           14.02470441817794       -5.78621855590222       -0.21472939007290
C           12.84799384512060       -2.68962494782104       -0.91112668496679
C           11.53584220056932       -3.22971058642505       -1.22801648045418
C           10.65719817679266       -2.23450630189583       -1.03805679734552
C           11.40965864194480       -1.07234691221543       -0.60206812610821
N           12.69794994940673       -1.33963306801647       -0.53025880875356
N           15.52391965561654       -1.37071289251715       -0.38850340587158
C           14.32121189231857        4.78888775487115        1.22988713754128
C           13.99571703614012        5.82077226857578        0.34568379786702
C           14.04314188559342        7.15128477063918        0.76478458056162
C           13.71681285744756        8.26316491035253       -0.19482416857546
C           14.43918240971630        7.44565050017651        2.07136086698555
C           14.77483558688555        6.42333142564659        2.96131462620211
C           15.16543954404577        6.74513230488777        4.37796943506039
C           14.70242713347642        5.09516438600907        2.53804602237783
H            9.72033289107724        0.22343165833787       -0.26528426262765
H            9.75393117652954        2.71409170489382        0.57125998496497
H           11.59521607518178        4.43334952473259        1.14060201078677
H           17.01797407225299        4.43768314242468        0.71010129946480
H           18.84061139968876        2.64202451006403        0.28427396313751
H           18.53041687262747       -2.71378240848739        0.02549809515513
H           16.58455967506777       -4.51193033684675       -0.46768530959298
H           13.86726698517217       -4.50282254146367       -3.35646895658986
H           14.29302377209654       -8.01829887672455       -4.46727442691008
H           12.74191323680197       -7.14415150251009       -4.59977521888946
H           14.27520684584579       -6.31583586676698       -4.98943995194623
H           13.91188902338067       -8.60974673409329       -2.09966021485859
H           13.89092363797057       -7.73472147926417        1.56015379814831
H           13.28764638650881       -8.95526454202307        0.41011160353695
H           15.04224364996341       -8.66700264091401        0.56446804640704
H           14.07721964580969       -5.46382442214425        0.82026048382466
H           11.29223858962638       -4.23467227859056       -1.54402576698581
H            9.59048828685630       -2.29687643366294       -1.17604272751641
H           13.71241592241809        5.58356743028446       -0.67498437076991
H           13.23740181055326        9.10161111835484        0.32936170330238
H           13.03696186371018        7.91602045495440       -0.98500553152986
H           14.64327472021377        8.62676771841996       -0.66323971220907
H           14.48559075435087        8.48050183137977        2.39805892306401
H           14.26647935502935        6.75321328799062        5.01143788075034
H           15.64610273633885        7.73118773606986        4.43921217283891
H           15.86512731257389        5.99494251282659        4.77245886772431
H           14.94220329706799        4.29202457407632        3.22796399168342
Cu          30.23596600739546        0.01889559001312       -0.01145873421299
C           33.59747595062714        0.18886821495135       -0.24035518552303
C           32.92843375160074       -0.47793268978666       -1.21373321492205
C           33.58164385682178       -1.19999858809577       -2.29134111328231
C           32.62640380960452       -1.72872301040377       -3.06099543409743
C           31.33434219362991       -1.34934617457602       -2.49687485243547
N           31.53837562153852       -0.57629076589125       -1.34453193679259
C           30.12178996733545       -1.69348352757370       -3.02174549553038
C           28.85520344088735       -1.29904832666606       -2.44456069213904
C           27.56638086387172       -1.48675134246160       -3.09558050399323
C           26.62509766111651       -1.01298577406852       -2.26629443818544
N           28.70642982099662       -0.72623145901272       -1.26657577693178
C           27.32974323789838       -0.52636378950303       -1.09751681248382
C           26.75231091422943        0.00345118801761        0.01867535576839
C           27.49788846819775        0.49255031363591        1.17336544016799
C           26.91536831106182        0.82249469551278        2.36466983016782
C           27.93778610102863        1.32870921194156        3.20152927511964
C           29.10759102329920        1.28796269984131        2.49176309892198
C           30.38038596561783        1.79767035722328        2.99258649642662
C           30.41070650460516        2.52637010283468        4.29317195263808
C           30.48926284732955        3.92252628579545        4.32264119274892
C           30.50095794504276        4.60811001180702        5.54051735685635
C           30.59895112490348        6.10993467096007        5.56562114910313
C           30.46732340292831        3.88560844834832        6.73511931792517
C           30.40848061177803        2.48990905613361        6.72094706864820
C           30.34611827274236        1.73010376986415        8.01881093985922
C           30.37546711191346        1.81673769895257        5.49761909248190
C           31.55219386073119        1.62363190901322        2.32955973483167
C           32.86433572100257        2.07833799433286        2.76008918478029
C           33.74297482348069        1.61885479204595        1.85709631759167
C           32.99050543813978        0.87659747748015        0.86223601981490
N           31.70221257927505        0.88202032917425        1.13893763123498
N           28.87642100149655        0.75434403563248        1.20829957182772
C           30.07892387620358       -2.51447056590421       -4.25735606903271
C           30.40444925368688       -1.95247898186359       -5.49460117826202
C           30.35702925678333       -2.72538406409041       -6.65587004596660
C           30.68335774221822       -2.11321266512381       -7.99092976516205
C           29.96098882772684       -4.06225950858195       -6.57490450102005
C           29.62533866189994       -4.63245945789033       -5.34525938455723
C           29.23473226396918       -6.08270226053299       -5.26000228324405
C           29.69773992080907       -3.85620046647521       -4.18740625124694
H           34.67983719871228        0.19242702045480       -0.28857852505934
H           34.64623102830264       -1.30436407826085       -2.44793896058856
H           32.80493947479259       -2.32977752106885       -3.94075429217781
H           27.38221975070145       -1.91749655972702       -4.06481258612451
H           25.55929056517704       -1.00868949951584       -2.45876336091646
H           25.86989453347712        0.73076181009784        2.61344121938178
H           27.81563839030534        1.70501528986536        4.20327625935229
H           30.53290384417789        4.47705338957817        3.39040371769420
H           30.10714675249967        6.52253223723117        6.45772653728679
H           31.65825704519707        6.40646643129543        5.58124572406133
H           30.12496395716569        6.55015695392141        4.67719972999353
H           30.48828193700405        4.41313327877669        7.68485429172069
H           30.50924723726900        0.65439501880998        7.86317077270234
H           31.11252442926821        2.09873680894220        8.71534360581606
H           29.35792702421310        1.87023971455691        8.48144222719939
H           30.32295090783744        0.73291179900522        5.47606826840010
H           33.10793586672214        2.66160073025289        3.63736707160055
H           34.80968380414168        1.76874941246746        1.87859193628438
H           30.68775322651314       -0.90612549229877       -5.55090131851427
H           31.16276744027936       -2.85007343977092       -8.65032571902984
H           31.36320924239001       -1.25763078792964       -7.87746821933872
H           29.75689666507013       -1.76452523156648       -8.47055391625987
H           29.91458065453856       -4.66411064173384       -7.47791502765331
H           30.13369142098115       -6.69338595064043       -5.09143085934855
H           28.75406942059742       -6.41600764691440       -6.19003756648136
H           28.53504405521752       -6.25277857317464       -4.42965292118140
H           29.45796490111701       -4.29529756067780       -3.22396850526321
C           22.81091723051713        0.00198277057305        0.00650047192177
C           21.58991837699253       -0.01350628830803       -0.00189849129431
C           20.21994763062063       -0.01336899028193       -0.01416248219959
C           19.00194198579605       -0.02148187057793       -0.00032174154882
C           24.17925860770455       -0.00331782319486        0.01348068303932
C           25.39774823565761        0.01952363170401        0.02694721123688
142
 energy: -228.465296864477 gnorm: 0.077464780715 xtb: 6.5.1 (b24c23e)
Cu          14.17249154843632        0.01837477418567       -0.04652065140236
C           10.80612553592738        0.15905937444102       -0.25371964932570
C           11.47686055488274        1.30250201307435        0.12585326460542
C           10.81964641079352        2.52814957718592        0.51252208614265
C           11.78554003688560        3.42255664003263        0.80919829020333
C           13.05962363354243        2.76745175203249        0.60308285648564
N           12.83409026426648        1.47600981129383        0.19164340641642
C           14.29492702821930        3.37020292610949        0.78300651824324
C           15.53161608884005        2.73650780475600        0.57461138065248
C           16.81345695109876        3.39844719351042        0.57622623482443
C           17.75576129370270        2.44971797188279        0.34213498108879
N           15.70101364095787        1.42324459663834        0.33401892159559
C           17.04742760080883        1.20611186495704        0.19755704268106
C           17.61579005554202       -0.04496277563153       -0.00066531526842
C           16.88596862876337       -1.26166905450853       -0.15461587160321
C           17.48505583273599       -2.53323363327494       -0.14547201891454
C           16.49411072391869       -3.44990335548097       -0.39062506443492
C           15.28626850953774       -2.74297164874300       -0.54856234428198
C           14.04756860945129       -3.35617603681281       -0.88747242366023
C           14.00731397089114       -4.81927356092844       -1.22812415601303
C           13.91626453786288       -5.24074179348934       -2.55670156768208
C           13.89516745808154       -6.59800281857572       -2.87726901294671
C           13.80187491882799       -7.04347437165820       -4.31645117182988
C           13.93341473352589       -7.54096201959930       -1.85496505470944
C           13.99452371671203       -7.14092508154962       -0.52213509685585
C           14.05254216165984       -8.18078583865715        0.56967171615814
C           14.03215234071871       -5.78256192628228       -0.21764851177182
C           12.84733409128382       -2.67831350459269       -0.90815373431055
C           11.54721841879991       -3.21999105389519       -1.22335417142403
C           10.64832730620918       -2.22268478643416       -1.03285673909382
C           11.38432003735057       -1.06313011076268       -0.59779758644059
N           12.69515659898597       -1.35165518388158       -0.53417327338246
N           15.53528197093408       -1.39144216973086       -0.37810193226511
C           14.32728346601800        4.79191988531396        1.22763421866921
C           13.99545845775470        5.82203153853269        0.34941203064329
C           14.04598909073374        7.14862843426433        0.76596508356492
C           13.71533450341369        8.26286565586783       -0.19406807641651
C           14.43843427064802        7.44010490289013        2.06965989800249
C           14.77063588766295        6.42217806555746        2.95865835913507
C           15.16625505323962        6.74502985521774        4.37710726836453
C           14.70590228752018        5.09863898367588        2.53333924501105
H            9.72306133724737        0.21550430942548       -0.27280602600333
H            9.75450590995349        2.69654575902646        0.56425041451534
H           11.62052363118007        4.43587651015468        1.14087017410792
H           16.99913465941965        4.44828424810827        0.71704036177583
H           18.82359272388570        2.61664133038378        0.27986380497958
H           18.53150774810742       -2.72535088119319        0.02408016922242
H           16.59630954732748       -4.51852282766327       -0.46479732846769
H           13.87216164721094       -4.50194965258405       -3.35126494752705
H           14.28646395550673       -8.00979821314951       -4.46117066322466
H           12.75116638155653       -7.14323738794125       -4.60044534732053
H           14.26908798850324       -6.31811818441569       -4.98252254290137
H           13.91295293323219       -8.60109151867119       -2.09785436763532
H           13.89330252613398       -7.73466669825173        1.55099248542509
H           13.29505443092290       -8.94949334822135        0.40945349918436
H           15.03243077905582       -8.66426749943320        0.56550835016044
H           14.07937936214573       -5.46324410165620        0.81855888904919
H           11.31853308629077       -4.22759962173805       -1.54137911494956
H            9.58306621708444       -2.28448107601823       -1.17329953987869
H           13.71126104956179        5.58339231498429       -0.67100087425431
H           13.24347677738356        9.09642510415182        0.32648361002919
H           13.04423785906890        7.91649475378286       -0.97997608263029
H           14.63390564711898        8.62637520668379       -0.66129219574231
H           14.48560206227555        8.47561689358269        2.39660763668760
H           14.27546432051571        6.75397504651632        5.01009507658685
H           15.63957015847885        7.72509000414136        4.43763852388339
H           15.85726326512641        5.99860049514907        4.76898837343258
H           14.94527222676423        4.29454313184650        3.22298944472271
Cu          30.22772718004070        0.03905423951896       -0.03075106284160
C           33.59403590043082        0.19923294162130       -0.22356054350762
C           32.92327227150917       -0.48361497248188       -1.21614140638948
C           33.58044912348271       -1.19619560686189       -2.28571820843346
C           32.61452557594200       -1.73011588626371       -3.06216293439894
C           31.34040228447479       -1.34975148251318       -2.49031443934211
N           31.56603644353861       -0.59506194723542       -1.36449289675161
C           30.10497878507535       -1.69019194246635       -3.01903775453203
C           28.86807414461623       -1.31392015750507       -2.46814350449133
C           27.58637473467123       -1.49950344311681       -3.10381369064827
C           26.64366980837404       -1.01072377476511       -2.25795181211948
N           28.69804094871161       -0.71853086083830       -1.27316027610106
C           27.35112516381395       -0.52692642260690       -1.10313805773748
C           26.78393216546317        0.00935189337167        0.04457097977744
C           27.51543979654653        0.49793206233092        1.16903611876640
C           26.91564230706441        0.84460118427127        2.39228139825166
C           27.90625739620073        1.33551574951484        3.20466021869217
C           29.11419111108798        1.29017280019271        2.48192807362092
C           30.35273585614311        1.78654558868703        2.97640911660078
C           30.39292319354002        2.52096355271848        4.28683157888919
C           30.48392039585839        3.91433867146568        4.32179782778159
C           30.50500118224937        4.60003209969015        5.53617899087329
C           30.59829514710107        6.10632929881361        5.56341958241118
C           30.46675795063412        3.88060824327195        6.72643430030362
C           30.40564891926697        2.48910122913778        6.71321911800722
C           30.34762979935683        1.72989845890474        8.01589291143915
C           30.36804070813605        1.81853907785265        5.49330237503319
C           31.55291345289944        1.61764671588239        2.31953243578097
C           32.85300359660700        2.07115598325391        2.75204482417194