      -----------------------------------------------------------      
     |                   =====================                   |     
     |                           x T B                           |     
     |                   =====================                   |     
     |                         S. Grimme                         |     
     |          Mulliken Center for Theoretical Chemistry        |     
     |                    University of Bonn                     |     
      -----------------------------------------------------------      

   * xtb version 6.5.1 (b24c23e) compiled by 'conda@728c89f4b128' on 2022-07-12

   xtb is free software: you can redistribute it and/or modify it under
   the terms of the GNU Lesser General Public License as published by
   the Free Software Foundation, either version 3 of the License, or
   (at your option) any later version.
   
   xtb is distributed in the hope that it will be useful,
   but WITHOUT ANY WARRANTY; without even the implied warranty of
   MERCHANTABILITY or FITNESS FOR A PARTICULAR PURPOSE.  See the
   GNU Lesser General Public License for more details.
   
   Cite this work as:
   * C. Bannwarth, E. Caldeweyher, S. Ehlert, A. Hansen, P. Pracht,
     J. Seibert, S. Spicher, S. Grimme, WIREs Comput. Mol. Sci., 2020, 11,
     e01493. DOI: 10.1002/wcms.1493
   
   for GFN2-xTB:
   * C. Bannwarth, S. Ehlert and S. Grimme., J. Chem. Theory Comput., 2019,
     15, 1652-1671. DOI: 10.1021/acs.jctc.8b01176
   for GFN1-xTB:
   * S. Grimme, C. Bannwarth, P. Shushkov, J. Chem. Theory Comput., 2017,
     13, 1989-2009. DOI: 10.1021/acs.jctc.7b00118
   for GFN0-xTB:
   * P. Pracht, E. Caldeweyher, S. Ehlert, S. Grimme, ChemRxiv, 2019, preprint.
     DOI: 10.26434/chemrxiv.8326202.v1
   for GFN-FF:
   * S. Spicher and S. Grimme, Angew. Chem. Int. Ed., 2020, 59, 15665-15673.
     DOI: 10.1002/anie.202004239
   
   for ALPB and GBSA implicit solvation:
   * S. Ehlert, M. Stahn, S. Spicher, S. Grimme, J. Chem. Theory Comput.,
     2021, 17, 4250-4261. DOI: 10.1021/acs.jctc.1c00471
   
   for DFT-D4:
   * E. Caldeweyher, C. Bannwarth and S. Grimme, J. Chem. Phys., 2017,
     147, 034112. DOI: 10.1063/1.4993215
   * E. Caldeweyher, S. Ehlert, A. Hansen, H. Neugebauer, S. Spicher,
     C. Bannwarth and S. Grimme, J. Chem. Phys., 2019, 150, 154122.
     DOI: 10.1063/1.5090222
   * E. Caldeweyher, J.-M. Mewes, S. Ehlert and S. Grimme, Phys. Chem. Chem. Phys.
     2020, 22, 8499-8512. DOI: 10.1039/D0CP00502A
   
   for sTDA-xTB:
   * S. Grimme and C. Bannwarth, J. Chem. Phys., 2016, 145, 054103.
     DOI: 10.1063/1.4959605
   
   in the mass-spec context:
   * V. Asgeirsson, C. Bauer and S. Grimme, Chem. Sci., 2017, 8, 4879.
     DOI: 10.1039/c7sc00601b
   * J. Koopman and S. Grimme, ACS Omega 2019, 4, 12, 15120-15133.
     DOI: 10.1021/acsomega.9b02011
   
   for metadynamics refer to:
   * S. Grimme, J. Chem. Theory Comput., 2019, 155, 2847-2862
     DOI: 10.1021/acs.jctc.9b00143
   
   for SPH calculations refer to:
   * S. Spicher and S. Grimme, J. Chem. Theory Comput., 2021, 17, 1701-1714
     DOI: 10.1021/acs.jctc.0c01306
   
   with help from (in alphabetical order)
   P. Atkinson, C. Bannwarth, F. Bohle, G. Brandenburg, E. Caldeweyher
   M. Checinski, S. Dohm, S. Ehlert, S. Ehrlich, I. Gerasimov, C. Hölzer
   A. Katbashev, J. Koopman, C. Lavigne, S. Lehtola, F. März, M. Müller,
   F. Musil, H. Neugebauer, J. Pisarek, C. Plett, P. Pracht, F. Pultar,
   J. Seibert, P. Shushkov, S. Spicher, M. Stahn, M. Steiner, T. Strunk,
   J. Stückrath, T. Rose, and J. Unsleber
   
 * started run on 2022/07/29 at 21:30:12.014     

           -------------------------------------------------
          |                Calculation Setup                |
           -------------------------------------------------

          program call               : xtb xtbopt.xyz --gfn 1 --vipea
          hostname                   : cx3-15-15.cx3.hpc.ic.ac.uk
          coordinate file            : xtbopt.xyz
          omp threads                :                     1

   ID    Z sym.   atoms
    1   26 Fe     1, 75, 167, 240
    2    6 C      2-6, 8-20, 22-27, 29-42, 76-80, 82-94, 96-101, 103-116,
                  149-166, 168-172, 174-186, 188-193, 195-208, 241-245,
                  247-259, 261-266, 268-281
    3    7 N      7, 21, 28, 43, 81, 95, 102, 117, 173, 187, 194, 209, 246,
                  260, 267, 282
    4    1 H      44-74, 118-148, 210-239, 283-312

           -------------------------------------------------
          |                 I P E A - x T B                 |
           -------------------------------------------------

        Reference                      10.1039/c7sc00601b
      * Hamiltonian:
        H0-scaling (s, p, d)           2.150000    2.300000    2.000000
        zeta-weighting                 0.000000
      * Dispersion:
        s8                             2.400000
        a1                             0.630000
        a2                             5.000000
        s9                             0.000000
      * Repulsion:
        kExp                           1.500000
        rExp                           1.000000
      * Coulomb:
        alpha                          1.000000
        third order                    atomic
        anisotropic                    false
      * Halogen bond correction:
        rad-scale                      1.300000
        damping                        0.440000


          ...................................................
          :                      SETUP                      :
          :.................................................:
          :  # basis functions                1214          :
          :  # atomic orbitals                1210          :
          :  # shells                          814          :
          :  # electrons                       914          :
          :  # halogen bonds                     0          :
          :  max. iterations                   250          :
          :  Hamiltonian                  GFN1-xTB          :
          :  restarted?                      false          :
          :  GBSA solvation                  false          :
          :  PC potential                    false          :
          :  electronic temp.          300.0000000     K    :
          :  accuracy                    1.0000000          :
          :  -> integral cutoff          0.2500000E+02      :
          :  -> integral neglect         0.1000000E-07      :
          :  -> SCF convergence          0.1000000E-05 Eh   :
          :  -> wf. convergence          0.2000000E-04 e    :
          :  Broyden damping             0.4000000          :
          ...................................................

 iter      E             dE          RMSdq      gap      omega  full diag
   1   -534.8852298 -0.534885E+03  0.111E+01    0.03       0.0  T
   2   -426.1548096  0.108730E+03  0.114E+01    0.13       1.0  T
   3   -548.8476199 -0.122693E+03  0.564E+00    0.01       1.0  T
   4   -139.7257741  0.409122E+03  0.110E+01    0.04       1.0  T
   5    359.5626625  0.499288E+03  0.124E+01    0.09       1.0  T
   6   -474.1909819 -0.833754E+03  0.651E+00    0.01       1.0  T
   7   -534.6615734 -0.604706E+02  0.415E+00    0.01       1.0  T
   8   -539.8880310 -0.522646E+01  0.440E+00    0.18       1.0  T
   9   -536.4441947  0.344384E+01  0.484E+00    0.08       1.0  T
  10   -545.9855624 -0.954137E+01  0.393E+00    0.17       1.0  T
  11   -541.8777809  0.410778E+01  0.399E+00    0.19       1.0  T
  12   -545.7276558 -0.384987E+01  0.392E+00    0.63       1.0  T
  13   -545.7354814 -0.782569E-02  0.393E+00    0.58       1.0  T
  14   -544.0618997  0.167358E+01  0.406E+00    0.01       1.0  T
  15   -544.9976134 -0.935714E+00  0.399E+00    0.07       1.0  T
  16   -544.3533218  0.644292E+00  0.396E+00    0.03       1.0  T
  17   -543.7153105  0.638011E+00  0.400E+00    0.06       1.0  T
  18   -545.4850397 -0.176973E+01  0.387E+00    0.07       1.0  T
  19   -532.8127147  0.126723E+02  0.496E+00    0.06       1.0  T
  20   -532.0618944  0.750820E+00  0.517E+00    0.27       1.0  T
  21   -531.9914794  0.704150E-01  0.518E+00    0.27       1.0  T
  22   -530.7724710  0.121901E+01  0.508E+00    0.04       1.0  T
  23   -535.1396064 -0.436714E+01  0.492E+00    0.07       1.0  T
  24   -545.9421594 -0.108026E+02  0.384E+00    0.01       1.0  T
  25   -545.2955571  0.646602E+00  0.385E+00    0.04       1.0  T
  26   -558.6727075 -0.133772E+02  0.221E+00    0.01       1.0  T
  27   -547.6239686  0.110487E+02  0.371E+00    0.32       1.0  T
  28   -548.5642850 -0.940316E+00  0.361E+00    0.14       1.0  T
  29   -548.7485654 -0.184280E+00  0.360E+00    0.14       1.0  T
  30   -548.8185229 -0.699575E-01  0.359E+00    0.12       1.0  T
  31   -548.8143729  0.415001E-02  0.359E+00    0.13       1.0  T
  32   -546.3346348  0.247974E+01  0.363E+00    0.02       1.0  T
  33   -556.3460018 -0.100114E+02  0.292E+00    0.01       1.0  T
  34   -555.8114363  0.534565E+00  0.283E+00    0.08       1.0  T
  35   -553.7263715  0.208506E+01  0.323E+00    0.04       1.0  T
  36   -552.1399850  0.158639E+01  0.314E+00    0.04       1.0  T
  37   -556.5035308 -0.436355E+01  0.255E+00    0.06       1.0  T
  38   -557.1289445 -0.625414E+00  0.255E+00    0.01       1.0  T
  39   -549.0928838  0.803606E+01  0.366E+00    0.09       1.0  T
  40   -548.1142301  0.978654E+00  0.377E+00    0.12       1.0  T
  41   -551.2865758 -0.317235E+01  0.337E+00    0.04       1.0  T
  42   -551.3345076 -0.479318E-01  0.332E+00    0.05       1.0  T
  43   -547.2667430  0.406776E+01  0.383E+00    0.18       1.0  T
  44   -556.7476959 -0.948095E+01  0.237E+00    0.04       1.0  T
  45   -553.9465960  0.280110E+01  0.289E+00    0.06       1.0  T
  46   -558.2513280 -0.430473E+01  0.212E+00    0.08       1.0  T
  47   -558.9792120 -0.727884E+00  0.215E+00    0.01       1.0  T
  48   -556.8912566  0.208796E+01  0.262E+00    0.00       1.0  T
  49   -550.9494131  0.594184E+01  0.335E+00    0.04       1.0  T
  50   -549.0538432  0.189557E+01  0.357E+00    0.11       1.0  T
  51   -552.0874607 -0.303362E+01  0.314E+00    0.05       1.0  T
  52   -556.1380775 -0.405062E+01  0.254E+00    0.01       1.0  T
  53   -561.2166981 -0.507862E+01  0.138E+00    0.01       1.0  T
  54   -562.0746683 -0.857970E+00  0.105E+00    0.00       1.0  T
  55   -560.1400604  0.193461E+01  0.177E+00    0.02       1.0  T
  56   -561.8885534 -0.174849E+01  0.111E+00    0.01       1.0  T
  57   -558.0656911  0.382286E+01  0.219E+00    0.03       1.0  T
  58   -555.5122999  0.255339E+01  0.271E+00    0.03       1.0  T
  59   -561.3108884 -0.579859E+01  0.138E+00    0.00       1.0  T
  60   -556.9957811  0.431511E+01  0.242E+00    0.00       1.0  T
  61   -561.1301439 -0.413436E+01  0.147E+00    0.00       1.0  T
  62   -553.7461240  0.738402E+01  0.292E+00    0.06       1.0  T
  63   -558.7912072 -0.504508E+01  0.199E+00    0.03       1.0  T
  64   -556.9880443  0.180316E+01  0.240E+00    0.03       1.0  T
  65   -558.1529200 -0.116488E+01  0.222E+00    0.02       1.0  T
  66   -559.9448391 -0.179192E+01  0.178E+00    0.00       1.0  T
  67   -560.2234089 -0.278570E+00  0.177E+00    0.01       1.0  T
  68   -559.7978634  0.425546E+00  0.185E+00    0.02       1.0  T
  69   -560.6400110 -0.842148E+00  0.156E+00    0.02       1.0  T
  70   -558.6823196  0.195769E+01  0.209E+00    0.02       1.0  T
  71   -561.1551913 -0.247287E+01  0.149E+00    0.00       1.0  T
  72   -560.8894568  0.265735E+00  0.152E+00    0.01       1.0  T
  73   -561.9775094 -0.108805E+01  0.108E+00    0.01       1.0  T
  74   -562.0152944 -0.377851E-01  0.111E+00    0.00       1.0  T
  75   -562.8435244 -0.828230E+00  0.543E-01    0.00       1.0  T
  76   -561.1861155  0.165741E+01  0.140E+00    0.01       1.0  T
  77   -562.9048760 -0.171876E+01  0.418E-01    0.01       1.0  T
  78   -562.8905776  0.142984E-01  0.451E-01    0.01       1.0  T
  79   -562.9027349 -0.121573E-01  0.441E-01    0.01       1.0  T
  80   -562.9219094 -0.191745E-01  0.413E-01    0.01       1.0  T
  81   -563.0844451 -0.162536E+00  0.346E-02    0.02       1.0  T
  82   -562.9972423  0.872028E-01  0.315E-01    0.02       1.0  T
  83   -562.9591862  0.380561E-01  0.373E-01    0.02       1.0  T
  84   -563.0072700 -0.480838E-01  0.295E-01    0.02       1.0  T
  85   -563.0754845 -0.682144E-01  0.108E-01    0.02       1.0  T
  86   -563.0799055 -0.442105E-02  0.697E-02    0.02       1.0  T
  87   -563.0724949  0.741055E-02  0.109E-01    0.02       1.0  T
  88   -563.0833926 -0.108976E-01  0.480E-02    0.02       1.0  T
  89   -563.0850245 -0.163190E-02  0.320E-02    0.02       1.0  T
  90   -563.0816710  0.335346E-02  0.721E-02    0.02       1.0  T
  91   -563.0823814 -0.710386E-03  0.656E-02    0.02       1.0  T
  92   -563.0841093 -0.172788E-02  0.502E-02    0.02       1.0  T
  93   -563.0827699  0.133934E-02  0.603E-02    0.02       1.0  T
  94   -563.0809073  0.186262E-02  0.720E-02    0.02       1.0  T
  95   -563.0832718 -0.236445E-02  0.535E-02    0.02       1.0  T
  96   -563.0845658 -0.129409E-02  0.393E-02    0.02       1.0  T
  97   -563.0854168 -0.850982E-03  0.230E-02    0.02       1.0  T
  98   -563.0852974  0.119436E-03  0.251E-02    0.02       1.0  T
  99   -563.0855784 -0.280971E-03  0.217E-02    0.02       1.0  T
 100   -563.0856420 -0.636554E-04  0.204E-02    0.02       1.0  T
 101   -563.0857473 -0.105251E-03  0.161E-02    0.02       1.0  T
 102   -563.0857657 -0.184620E-04  0.159E-02    0.02       1.0  T
 103   -563.0858169 -0.511939E-04  0.157E-02    0.02       1.0  T
 104   -563.0859123 -0.953304E-04  0.118E-02    0.02       1.0  T
 105   -563.0859014  0.108219E-04  0.121E-02    0.02       1.0  T
 106   -563.0858927  0.877351E-05  0.126E-02    0.02       1.0  T
 107   -563.0859112 -0.185241E-04  0.119E-02    0.02       1.0  T
 108   -563.0859466 -0.354006E-04  0.100E-02    0.02       1.0  T
 109   -563.0859763 -0.296936E-04  0.853E-03    0.02       1.0  T
 110   -563.0860035 -0.272479E-04  0.674E-03    0.02       1.0  T
 111   -563.0860187 -0.152142E-04  0.545E-03    0.02       1.0  T
 112   -563.0860346 -0.158987E-04  0.351E-03    0.02       1.6  T
 113   -563.0860387 -0.406010E-05  0.282E-03    0.02       2.0  T
 114   -563.0860433 -0.456192E-05  0.174E-03    0.02       3.2  T
 115   -563.0860459 -0.264918E-05  0.410E-04    0.02      13.8  T
 116   -563.0860456  0.267051E-06  0.688E-04    0.02       8.2  T
 117   -563.0860459 -0.299707E-06  0.411E-04    0.02      13.8  T
 118   -563.0860459  0.341067E-07  0.453E-04    0.02      12.5  T
 119   -563.0860459  0.282354E-07  0.474E-04    0.02      11.9  T
 120   -563.0860460 -0.981415E-07  0.329E-04    0.02      17.2  T
 121   -563.0860461 -0.894111E-07  0.911E-05    0.02      62.1  T
 122   -563.0860460  0.233470E-07  0.184E-04    0.02      30.8  T

   *** convergence criteria satisfied after 122 iterations ***

         #    Occupation            Energy/Eh            Energy/eV
      -------------------------------------------------------------
         1        2.0000           -1.0273456             -27.9555
       ...           ...                  ...                  ...
       451        1.5922           -0.3540804              -9.6350
       452        1.5918           -0.3540790              -9.6350
       453        1.5738           -0.3540272              -9.6336
       454        1.5547           -0.3539741              -9.6321
       455        1.5535           -0.3539709              -9.6320
       456        1.5054           -0.3538437              -9.6286
       457        1.4170           -0.3536299              -9.6228 (HOMO)
       458        0.9667           -0.3527230              -9.5981 (LUMO)
       459        0.9605           -0.3527111              -9.5978
       460        0.9354           -0.3526633              -9.5965
       461        0.9338           -0.3526602              -9.5964
       462                         -0.3254062              -8.8548
       ...                                ...                  ...
      1210                        563.6837774           15338.6163
      -------------------------------------------------------------
                  HL-Gap            0.0009069 Eh            0.0247 eV
             Fermi-level           -0.3527862 Eh           -9.5998 eV

 SCC (total)                   0 d,  0 h,  1 min, 23.347 sec
 SCC setup                      ...        0 min,  0.014 sec (  0.017%)
 Dispersion                     ...        0 min,  0.019 sec (  0.023%)
 classical contributions        ...        0 min,  0.006 sec (  0.007%)
 integral evaluation            ...        0 min,  1.069 sec (  1.283%)
 iterations                     ...        1 min, 19.865 sec ( 95.823%)
 molecular gradient             ...        0 min,  2.243 sec (  2.692%)
 printout                       ...        0 min,  0.130 sec (  0.156%)

         :::::::::::::::::::::::::::::::::::::::::::::::::::::
         ::                     SUMMARY                     ::
         :::::::::::::::::::::::::::::::::::::::::::::::::::::
         :: total energy            -551.630839084513 Eh    ::
         :: gradient norm              0.179546897213 Eh/a0 ::
         :: HOMO-LUMO gap              0.024679183252 eV    ::
         ::.................................................::
         :: SCC energy              -563.086046049760 Eh    ::
         :: -> electrostatic           0.241218159386 Eh    ::
         :: repulsion energy          11.739859172998 Eh    ::
         :: dispersion energy         -0.284652207751 Eh    ::
         :: halogen bond corr.         0.000000000000 Eh    ::
         :: add. restraining           0.000000000000 Eh    ::
         :: total charge               0.000000000000 e     ::
         :::::::::::::::::::::::::::::::::::::::::::::::::::::

           ------------------------------------------------- 
          |        vertical delta SCC IP calculation        |
           ------------------------------------------------- 
   1   -562.6590064 -0.562659E+03  0.258E-01    0.02       0.0  T
   2   -559.5408859  0.311812E+01  0.192E+00    0.00       1.0  T
   3   -556.0229265  0.351796E+01  0.260E+00    0.02       1.0  T
   4   -558.8253903 -0.280246E+01  0.197E+00    0.02       1.0  T
   5   -557.0619861  0.176340E+01  0.227E+00    0.01       1.0  T
   6   -556.6623113  0.399675E+00  0.239E+00    0.02       1.0  T
   7   -559.1849501 -0.252264E+01  0.186E+00    0.03       1.0  T
   8   -558.8131405  0.371810E+00  0.198E+00    0.03       1.0  T
   9   -560.2846134 -0.147147E+01  0.158E+00    0.00       1.0  T
  10   -554.9979616  0.528665E+01  0.261E+00    0.01       1.0  T
  11   -557.5220853 -0.252412E+01  0.223E+00    0.02       1.0  T
  12   -557.0105620  0.511523E+00  0.231E+00    0.00       1.0  T
  13   -557.5739736 -0.563412E+00  0.231E+00    0.02       1.0  T
  14   -553.5219869  0.405199E+01  0.286E+00    0.02       1.0  T
  15   -562.3186223 -0.879664E+01  0.643E-01    0.00       1.0  T
  16   -559.8276757  0.249095E+01  0.173E+00    0.02       1.0  T
  17   -559.3353019  0.492374E+00  0.189E+00    0.01       1.0  T
  18   -561.2616827 -0.192638E+01  0.126E+00    0.00       1.0  T
  19   -559.8719271  0.138976E+01  0.170E+00    0.01       1.0  T
  20   -558.5679106  0.130402E+01  0.201E+00    0.01       1.0  T
  21   -558.9439908 -0.376080E+00  0.194E+00    0.01       1.0  T
  22   -558.9626785 -0.186877E-01  0.195E+00    0.02       1.0  T
  23   -559.0562994 -0.936209E-01  0.191E+00    0.01       1.0  T
  24   -560.4629528 -0.140665E+01  0.150E+00    0.01       1.0  T
  25   -561.2033673 -0.740414E+00  0.128E+00    0.00       1.0  T
  26   -560.5290318  0.674335E+00  0.154E+00    0.00       1.0  T
  27   -560.9767222 -0.447690E+00  0.137E+00    0.01       1.0  T
  28   -561.8975851 -0.920863E+00  0.946E-01    0.01       1.0  T
  29   -562.0720399 -0.174455E+00  0.815E-01    0.00       1.0  T
  30   -562.1146181 -0.425781E-01  0.795E-01    0.00       1.0  T
  31   -562.1024770  0.121410E-01  0.799E-01    0.01       1.0  T
  32   -562.1801943 -0.777173E-01  0.737E-01    0.01       1.0  T
  33   -562.3442123 -0.164018E+00  0.609E-01    0.01       1.0  T
  34   -562.5827465 -0.238534E+00  0.359E-01    0.00       1.0  T
  35   -562.6237607 -0.410142E-01  0.299E-01    0.00       1.0  T
  36   -562.6287435 -0.498279E-02  0.290E-01    0.00       1.0  T
  37   -562.6900132 -0.612697E-01  0.137E-01    0.00       1.0  T
  38   -562.6908337 -0.820573E-03  0.138E-01    0.00       1.0  T
  39   -562.6857409  0.509285E-02  0.154E-01    0.00       1.0  T
  40   -562.6934017 -0.766086E-02  0.124E-01    0.00       1.0  T
  41   -562.7004321 -0.703031E-02  0.879E-02    0.00       1.0  T
  42   -562.7062618 -0.582973E-02  0.413E-02    0.00       1.0  T
  43   -562.7075301 -0.126829E-02  0.207E-02    0.00       1.0  T
  44   -562.7078313 -0.301220E-03  0.960E-03    0.00       1.0  T
  45   -562.7077864  0.449251E-04  0.118E-02    0.00       1.0  T
  46   -562.7077439  0.424734E-04  0.136E-02    0.00       1.0  T
  47   -562.7078795 -0.135639E-03  0.613E-03    0.00       1.0  T
  48   -562.7078955 -0.160138E-04  0.460E-03    0.00       1.2  T
  49   -562.7079038 -0.827746E-05  0.349E-03    0.00       1.6  T
  50   -562.7079116 -0.781041E-05  0.193E-03    0.00       2.9  T
  51   -562.7079133 -0.164869E-05  0.137E-03    0.00       4.1  T
  52   -562.7079144 -0.111883E-05  0.793E-04    0.00       7.1  T
  53   -562.7079145 -0.533330E-07  0.753E-04    0.00       7.5  T
  54   -562.7079146 -0.169558E-06  0.621E-04    0.00       9.1  T
  55   -562.7079149 -0.294879E-06  0.261E-04    0.00      21.7  T
  56   -562.7079150 -0.540199E-07  0.105E-04    0.00      54.0  T
  57   -562.7079150 -0.291470E-08  0.872E-05    0.00      64.9  T
     SCC iter.                  ...        0 min, 37.415 sec
     gradient                   ...        0 min,  2.245 sec
------------------------------------------------------------------------
empirical IP shift (eV):    4.8455
delta SCC IP (eV):    5.4440
------------------------------------------------------------------------
           ------------------------------------------------- 
          |        vertical delta SCC EA calculation        |
           ------------------------------------------------- 
   1   -563.2258005 -0.563226E+03  0.518E-01    0.00       0.0  T
   2   -538.3632833  0.248625E+02  0.461E+00    0.00       1.0  T
   3   -559.3301915 -0.209669E+02  0.212E+00    0.00       1.0  T
   4   -560.7526805 -0.142249E+01  0.173E+00    0.01       1.0  T
   5   -552.9688383  0.778384E+01  0.317E+00    0.06       1.0  T
   6   -557.4833151 -0.451448E+01  0.249E+00    0.05       1.0  T
   7   -560.7614600 -0.327814E+01  0.173E+00    0.01       1.0  T
   8   -562.2426236 -0.148116E+01  0.119E+00    0.00       1.0  T
   9   -560.4433087  0.179931E+01  0.179E+00    0.01       1.0  T
  10   -557.8116039  0.263170E+01  0.236E+00    0.06       1.0  T
  11   -561.5622253 -0.375062E+01  0.140E+00    0.01       1.0  T
  12   -560.9100556  0.652170E+00  0.162E+00    0.03       1.0  T
  13   -555.8721450  0.503791E+01  0.267E+00    0.03       1.0  T
  14   -562.1960289 -0.632388E+01  0.115E+00    0.01       1.0  T
  15   -560.7966014  0.139943E+01  0.165E+00    0.00       1.0  T
  16   -560.9212992 -0.124698E+00  0.163E+00    0.00       1.0  T
  17   -560.9495534 -0.282542E-01  0.160E+00    0.00       1.0  T
  18   -561.9179843 -0.968431E+00  0.131E+00    0.01       1.0  T
  19   -559.8457401  0.207224E+01  0.188E+00    0.02       1.0  T
  20   -562.9919699 -0.314623E+01  0.692E-01    0.04       1.0  T
  21   -563.1829843 -0.191014E+00  0.506E-01    0.02       1.0  T
  22   -562.7350578  0.447926E+00  0.852E-01    0.02       1.0  T
  23   -562.9496447 -0.214587E+00  0.703E-01    0.00       1.0  T
  24   -562.8519899  0.976547E-01  0.790E-01    0.03       1.0  T
  25   -562.7963321  0.556578E-01  0.833E-01    0.03       1.0  T
  26   -562.8008717 -0.453954E-02  0.831E-01    0.03       1.0  T
  27   -562.8647531 -0.638815E-01  0.784E-01    0.03       1.0  T
  28   -563.2570374 -0.392284E+00  0.409E-01    0.01       1.0  T
  29   -563.3302443 -0.732069E-01  0.301E-01    0.01       1.0  T
  30   -563.3800911 -0.498469E-01  0.189E-01    0.01       1.0  T
  31   -563.4116116 -0.315205E-01  0.511E-02    0.00       1.0  T
  32   -563.4112758  0.335784E-03  0.549E-02    0.00       1.0  T
  33   -563.4123282 -0.105243E-02  0.427E-02    0.00       1.0  T
  34   -563.4133651 -0.103684E-02  0.254E-02    0.00       1.0  T
  35   -563.4132813  0.838158E-04  0.268E-02    0.00       1.0  T
  36   -563.4137722 -0.490894E-03  0.145E-02    0.00       1.0  T
  37   -563.4138158 -0.436719E-04  0.131E-02    0.00       1.0  T
  38   -563.4139417 -0.125855E-03  0.607E-03    0.00       1.0  T
  39   -563.4139581 -0.164174E-04  0.445E-03    0.00       1.3  T
  40   -563.4139610 -0.286175E-05  0.411E-03    0.00       1.4  T
  41   -563.4139747 -0.136867E-04  0.151E-03    0.00       3.8  T
  42   -563.4139761 -0.148788E-05  0.789E-04    0.00       7.2  T
  43   -563.4139764 -0.258533E-06  0.575E-04    0.00       9.8  T
  44   -563.4139765 -0.137631E-06  0.435E-04    0.00      13.0  T
  45   -563.4139767 -0.149260E-06  0.164E-04    0.00      34.5  T
  46   -563.4139767 -0.154395E-07  0.979E-05    0.00      57.8  T
     SCC iter.                  ...        0 min, 30.271 sec
     gradient                   ...        0 min,  2.249 sec
------------------------------------------------------------------------
empirical EA shift (eV):    4.8455
delta SCC EA (eV):    4.0779
------------------------------------------------------------------------
           -------------------------------------------------
          |                Property Printout                |
           -------------------------------------------------

    * Orbital Energies and Occupations

         #    Occupation            Energy/Eh            Energy/eV
      -------------------------------------------------------------
         1        2.0000           -0.9833716             -26.7589
       ...           ...                  ...                  ...
       446        1.9159           -0.3065123              -8.3406
       447        1.9125           -0.3064730              -8.3396
       448        1.9057           -0.3063992              -8.3375
       449        1.9044           -0.3063854              -8.3372
       450        1.8567           -0.3059747              -8.3260
       451        1.7931           -0.3055910              -8.3156
       452        1.7608           -0.3054349              -8.3113
       453        1.7606           -0.3054339              -8.3113
       454        1.7513           -0.3053926              -8.3102
       455        1.7502           -0.3053877              -8.3100
       456        1.7232           -0.3052748              -8.3070
       457        1.6175           -0.3049043              -8.2969
       458        0.8647           -0.3032530              -8.2519 (HOMO)
       459        0.8584           -0.3032405              -8.2516 (LUMO)
       460        0.8127           -0.3031500              -8.2491
       461        0.8124           -0.3031493              -8.2491
       462                         -0.2815029              -7.6601
       463                         -0.2742355              -7.4623
       464                         -0.2683939              -7.3034
       465                         -0.2632203              -7.1626
       466                         -0.2628299              -7.1520
       467                         -0.2627511              -7.1498
       468                         -0.2616609              -7.1202
       469                         -0.2615345              -7.1167
       ...                                ...                  ...
      1210                        563.7233002           15339.6918
      -------------------------------------------------------------
                  HL-Gap            0.0000125 Eh            0.0003 eV
             Fermi-level           -0.3035157 Eh           -8.2591 eV

  Mulliken/CM5 charges         n(s)   n(p)   n(d)
     1Fe   -0.06378  0.36719   0.552  1.401  6.111
     2C    -0.01554 -0.05699   1.084  2.932  0.000
     3C     0.06373  0.12414   1.110  2.826  0.000
     4C    -0.03756 -0.08405   1.088  2.950  0.000
     5C    -0.03426 -0.08047   1.079  2.956  0.000
     6C     0.06706  0.13055   1.100  2.833  0.000
     7N    -0.16696 -0.43395   1.308  3.859  0.000
     8C     0.02092  0.02514   1.069  2.911  0.000
     9C     0.00302 -0.00204   1.055  2.942  0.000
    10C     0.00207 -0.01279   1.088  2.910  0.000
    11C    -0.05677 -0.20077   1.066  2.991  0.000
    12C    -0.03207 -0.08384   1.063  2.969  0.000
    13C    -0.00402 -0.02170   1.099  2.905  0.000
    14C    -0.06238 -0.20709   1.076  2.987  0.000
    15C    -0.03215 -0.08395   1.063  2.969  0.000
    16C     0.00183 -0.01301   1.088  2.910  0.000
    17C    -0.05693 -0.20090   1.066  2.991  0.000
    18C     0.06642  0.12886   1.097  2.836  0.000
    19C    -0.03284 -0.07907   1.078  2.955  0.000
    20C    -0.03528 -0.08084   1.085  2.950  0.000
    21N    -0.16495 -0.43149   1.309  3.856  0.000
    22C     0.06957  0.13498   1.115  2.815  0.000
    23C     0.02400  0.03075   1.078  2.898  0.000
    24C     0.06954  0.13490   1.115  2.815  0.000
    25C    -0.03527 -0.08083   1.086  2.950  0.000
    26C    -0.03286 -0.07907   1.078  2.955  0.000
    27C     0.06646  0.12895   1.097  2.836  0.000
    28N    -0.16500 -0.43134   1.309  3.856  0.000
    29C     0.02092  0.02514   1.069  2.910  0.000
    30C     0.00302 -0.00204   1.055  2.942  0.000
    31C     0.00199 -0.01289   1.088  2.910  0.000
    32C    -0.05682 -0.20082   1.066  2.991  0.000
    33C    -0.03218 -0.08394   1.063  2.970  0.000
    34C    -0.00401 -0.02169   1.099  2.905  0.000
    35C    -0.06239 -0.20709   1.076  2.987  0.000
    36C    -0.03203 -0.08383   1.063  2.969  0.000
    37C     0.00191 -0.01290   1.088  2.910  0.000
    38C    -0.05688 -0.20086   1.066  2.991  0.000
    39C     0.06701  0.13046   1.100  2.833  0.000
    40C    -0.03427 -0.08049   1.079  2.956  0.000
    41C    -0.03758 -0.08407   1.087  2.950  0.000
    42C     0.06372  0.12418   1.110  2.826  0.000
    43N    -0.16696 -0.43414   1.309  3.858  0.000
    44H     0.02950  0.08845   0.970  0.000  0.000
    45H     0.03039  0.08698   0.970  0.000  0.000
    46H     0.02169  0.08036   0.978  0.000  0.000
    47H     0.01569  0.06956   0.984  0.000  0.000
    48H     0.01759  0.07140   0.982  0.000  0.000
    49H     0.01599  0.06868   0.984  0.000  0.000
    50H     0.03101  0.08853   0.969  0.000  0.000
    51H     0.01957  0.07204   0.980  0.000  0.000
    52H     0.02505  0.07696   0.975  0.000  0.000
    53H     0.02090  0.07321   0.979  0.000  0.000
    54H     0.03058  0.08808   0.969  0.000  0.000
    55H     0.01723  0.07097   0.983  0.000  0.000
    56H     0.01592  0.06860   0.984  0.000  0.000
    57H     0.01633  0.07013   0.984  0.000  0.000
    58H     0.02357  0.08225   0.976  0.000  0.000
    59H     0.02818  0.08633   0.972  0.000  0.000
    60H     0.02812  0.08626   0.972  0.000  0.000
    61H     0.02349  0.08217   0.977  0.000  0.000
    62H     0.01620  0.07008   0.984  0.000  0.000
    63H     0.01589  0.06857   0.984  0.000  0.000
    64H     0.01700  0.07079   0.983  0.000  0.000
    65H     0.03087  0.08839   0.969  0.000  0.000
    66H     0.02242  0.07463   0.978  0.000  0.000
    67H     0.01963  0.07215   0.980  0.000  0.000
    68H     0.02338  0.07534   0.977  0.000  0.000
    69H     0.03071  0.08821   0.969  0.000  0.000
    70H     0.01582  0.06965   0.984  0.000  0.000
    71H     0.01789  0.07161   0.982  0.000  0.000
    72H     0.01602  0.06871   0.984  0.000  0.000
    73H     0.02174  0.08042   0.978  0.000  0.000
    74H     0.03040  0.08700   0.970  0.000  0.000
    75Fe   -0.06342  0.36967   0.552  1.401  6.110
    76C    -0.01558 -0.05702   1.084  2.932  0.000
    77C     0.06369  0.12414   1.110  2.826  0.000
    78C    -0.03757 -0.08405   1.087  2.950  0.000
    79C    -0.03424 -0.08047   1.079  2.955  0.000
    80C     0.06697  0.13039   1.100  2.833  0.000
    81N    -0.16690 -0.43466   1.309  3.858  0.000
    82C     0.02087  0.02510   1.069  2.911  0.000
    83C     0.00300 -0.00204   1.055  2.942  0.000
    84C     0.00194 -0.01294   1.088  2.910  0.000
    85C    -0.05683 -0.20083   1.066  2.991  0.000
    86C    -0.03216 -0.08394   1.063  2.969  0.000
    87C    -0.00401 -0.02169   1.099  2.905  0.000
    88C    -0.06238 -0.20707   1.076  2.987  0.000
    89C    -0.03208 -0.08385   1.063  2.969  0.000
    90C     0.00198 -0.01283   1.088  2.910  0.000
    91C    -0.05683 -0.20081   1.066  2.991  0.000
    92C     0.06640  0.12886   1.097  2.836  0.000
    93C    -0.03285 -0.07906   1.078  2.955  0.000
    94C    -0.03526 -0.08081   1.085  2.950  0.000
    95N    -0.16493 -0.43182   1.309  3.856  0.000
    96C     0.06953  0.13487   1.115  2.815  0.000
    97C     0.02396  0.03074   1.078  2.898  0.000
    98C     0.06947  0.13485   1.115  2.815  0.000
    99C    -0.03528 -0.08083   1.085  2.950  0.000
   100C    -0.03283 -0.07906   1.078  2.955  0.000
   101C     0.06639  0.12884   1.097  2.836  0.000
   102N    -0.16495 -0.43200   1.309  3.856  0.000
   103C     0.02083  0.02507   1.069  2.911  0.000
   104C     0.00300 -0.00204   1.055  2.942  0.000
   105C     0.00208 -0.01278   1.088  2.910  0.000
   106C    -0.05676 -0.20075   1.066  2.991  0.000
   107C    -0.03206 -0.08383   1.063  2.969  0.000
   108C    -0.00401 -0.02169   1.099  2.905  0.000
   109C    -0.06238 -0.20708   1.076  2.987  0.000
   110C    -0.03218 -0.08397   1.063  2.969  0.000
   111C     0.00184 -0.01300   1.088  2.910  0.000
   112C    -0.05691 -0.20088   1.066  2.991  0.000
   113C     0.06700  0.13046   1.100  2.833  0.000
   114C    -0.03428 -0.08049   1.079  2.956  0.000
   115C    -0.03756 -0.08405   1.088  2.950  0.000
   116C     0.06369  0.12408   1.110  2.826  0.000
   117N    -0.16693 -0.43437   1.308  3.859  0.000
   118H     0.02955  0.08848   0.970  0.000  0.000
   119H     0.03035  0.08695   0.970  0.000  0.000
   120H     0.02157  0.08022   0.978  0.000  0.000
   121H     0.01634  0.07025   0.984  0.000  0.000
   122H     0.01685  0.07061   0.983  0.000  0.000
   123H     0.01587  0.06855   0.984  0.000  0.000
   124H     0.03064  0.08814   0.969  0.000  0.000
   125H     0.02034  0.07273   0.980  0.000  0.000
   126H     0.02519  0.07708   0.975  0.000  0.000
   127H     0.02000  0.07241   0.980  0.000  0.000
   128H     0.03095  0.08845   0.969  0.000  0.000
   129H     0.01795  0.07174   0.982  0.000  0.000
   130H     0.01605  0.06874   0.984  0.000  0.000
   131H     0.01572  0.06953   0.984  0.000  0.000
   132H     0.02354  0.08219   0.976  0.000  0.000
   133H     0.02814  0.08628   0.972  0.000  0.000
   134H     0.02807  0.08618   0.972  0.000  0.000
   135H     0.02337  0.08203   0.977  0.000  0.000
   136H     0.01552  0.06938   0.984  0.000  0.000
   137H     0.01603  0.06871   0.984  0.000  0.000
   138H     0.01776  0.07157   0.982  0.000  0.000
   139H     0.03102  0.08853   0.969  0.000  0.000
   140H     0.02162  0.07394   0.978  0.000  0.000
   141H     0.02002  0.07249   0.980  0.000  0.000
   142H     0.02379  0.07569   0.976  0.000  0.000
   143H     0.03055  0.08804   0.969  0.000  0.000
   144H     0.01646  0.07036   0.984  0.000  0.000
   145H     0.01711  0.07081   0.983  0.000  0.000
   146H     0.01586  0.06853   0.984  0.000  0.000
   147H     0.02173  0.08038   0.978  0.000  0.000
   148H     0.03036  0.08695   0.970  0.000  0.000
   149C    -0.01309 -0.01319   1.077  2.936  0.000
   150C    -0.01359 -0.01369   1.076  2.937  0.000
   151C    -0.01777 -0.01852   1.064  2.954  0.000
   152C    -0.01346 -0.01518   1.094  2.920  0.000
   153C    -0.01787 -0.01858   1.064  2.954  0.000
   154C    -0.01268 -0.01431   1.094  2.919  0.000
   155C    -0.01343 -0.01352   1.076  2.937  0.000
   156C    -0.01340 -0.01349   1.076  2.937  0.000
   157C    -0.01777 -0.01848   1.064  2.954  0.000
   158C    -0.01317 -0.01481   1.093  2.920  0.000
   159C    -0.01773 -0.01846   1.064  2.954  0.000
   160C    -0.01319 -0.01486   1.093  2.920  0.000
   161C    -0.01356 -0.01366   1.077  2.937  0.000
   162C    -0.01310 -0.01320   1.077  2.936  0.000
   163C    -0.01785 -0.01858   1.064  2.954  0.000
   164C    -0.01269 -0.01436   1.094  2.919  0.000
   165C    -0.01779 -0.01853   1.064  2.953  0.000
   166C    -0.01344 -0.01513   1.094  2.920  0.000
   167Fe   -0.06077  0.37361   0.553  1.401  6.106
   168C     0.02384  0.03069   1.078  2.898  0.000
   169C     0.06959  0.13498   1.115  2.815  0.000
   170C    -0.03546 -0.08101   1.085  2.950  0.000
   171C    -0.03250 -0.07872   1.079  2.954  0.000
   172C     0.06633  0.12905   1.097  2.837  0.000
   173N    -0.16374 -0.43171   1.308  3.856  0.000
   174C     0.02318  0.02739   1.070  2.907  0.000
   175C     0.00312 -0.00190   1.054  2.943  0.000
   176C     0.00221 -0.01265   1.088  2.910  0.000
   177C    -0.05668 -0.20068   1.065  2.991  0.000
   178C    -0.03186 -0.08364   1.063  2.969  0.000
   179C    -0.00371 -0.02139   1.099  2.905  0.000
   180C    -0.06228 -0.20699   1.076  2.987  0.000
   181C    -0.03185 -0.08363   1.063  2.969  0.000
   182C     0.00219 -0.01263   1.088  2.910  0.000
   183C    -0.05673 -0.20071   1.066  2.991  0.000
   184C     0.06617  0.12864   1.097  2.837  0.000
   185C    -0.03228 -0.07852   1.079  2.953  0.000
   186C    -0.03529 -0.08084   1.085  2.950  0.000
   187N    -0.16371 -0.43159   1.308  3.856  0.000
   188C     0.07002  0.13563   1.116  2.814  0.000
   189C     0.02383  0.03065   1.078  2.898  0.000
   190C     0.07001  0.13563   1.116  2.814  0.000
   191C    -0.03532 -0.08086   1.085  2.950  0.000
   192C    -0.03231 -0.07852   1.079  2.953  0.000
   193C     0.06619  0.12868   1.097  2.837  0.000
   194N    -0.16378 -0.43142   1.308  3.856  0.000
   195C     0.02322  0.02743   1.070  2.907  0.000
   196C     0.00313 -0.00189   1.054  2.943  0.000
   197C     0.00222 -0.01261   1.088  2.910  0.000
   198C    -0.05669 -0.20068   1.066  2.991  0.000
   199C    -0.03184 -0.08362   1.063  2.969  0.000
   200C    -0.00371 -0.02140   1.099  2.905  0.000
   201C    -0.06229 -0.20700   1.076  2.987  0.000
   202C    -0.03187 -0.08365   1.063  2.969  0.000
   203C     0.00217 -0.01268   1.088  2.910  0.000
   204C    -0.05673 -0.20073   1.066  2.991  0.000
   205C     0.06632  0.12902   1.097  2.837  0.000
   206C    -0.03250 -0.07871   1.079  2.954  0.000
   207C    -0.03547 -0.08102   1.085  2.950  0.000
   208C     0.06958  0.13500   1.115  2.815  0.000
   209N    -0.16376 -0.43173   1.308  3.856  0.000
   210H     0.02769  0.08577   0.972  0.000  0.000
   211H     0.02303  0.08171   0.977  0.000  0.000
   212H     0.01759  0.07145   0.982  0.000  0.000
   213H     0.01648  0.06917   0.984  0.000  0.000
   214H     0.01636  0.07017   0.984  0.000  0.000
   215H     0.03108  0.08859   0.969  0.000  0.000
   216H     0.02479  0.07668   0.975  0.000  0.000
   217H     0.02053  0.07295   0.979  0.000  0.000
   218H     0.02066  0.07306   0.979  0.000  0.000
   219H     0.03107  0.08858   0.969  0.000  0.000
   220H     0.01755  0.07145   0.982  0.000  0.000
   221H     0.01650  0.07029   0.984  0.000  0.000
   222H     0.01635  0.06904   0.984  0.000  0.000
   223H     0.02337  0.08200   0.977  0.000  0.000
   224H     0.02817  0.08625   0.972  0.000  0.000
   225H     0.02817  0.08625   0.972  0.000  0.000
   226H     0.02341  0.08204   0.977  0.000  0.000
   227H     0.01744  0.07135   0.983  0.000  0.000
   228H     0.01633  0.06902   0.984  0.000  0.000
   229H     0.01652  0.07033   0.983  0.000  0.000
   230H     0.03109  0.08860   0.969  0.000  0.000
   231H     0.02055  0.07296   0.979  0.000  0.000
   232H     0.02480  0.07669   0.975  0.000  0.000
   233H     0.02063  0.07304   0.979  0.000  0.000
   234H     0.03106  0.08857   0.969  0.000  0.000
   235H     0.01649  0.06918   0.984  0.000  0.000
   236H     0.01647  0.07025   0.984  0.000  0.000
   237H     0.01757  0.07139   0.982  0.000  0.000
   238H     0.02305  0.08172   0.977  0.000  0.000
   239H     0.02769  0.08576   0.972  0.000  0.000
   240Fe   -0.06144  0.36989   0.553  1.401  6.107
   241C     0.02391  0.03071   1.078  2.898  0.000
   242C     0.07005  0.13570   1.116  2.814  0.000
   243C    -0.03531 -0.08085   1.085  2.950  0.000
   244C    -0.03230 -0.07851   1.079  2.953  0.000
   245C     0.06630  0.12879   1.097  2.837  0.000
   246N    -0.16384 -0.43075   1.308  3.856  0.000
   247C     0.02331  0.02750   1.070  2.907  0.000
   248C     0.00317 -0.00188   1.054  2.943  0.000
   249C     0.00217 -0.01271   1.088  2.910  0.000
   250C    -0.05672 -0.20073   1.066  2.991  0.000
   251C    -0.03183 -0.08364   1.063  2.969  0.000
   252C    -0.00373 -0.02142   1.099  2.905  0.000
   253C    -0.06229 -0.20700   1.076  2.987  0.000
   254C    -0.03188 -0.08364   1.063  2.969  0.000
   255C     0.00219 -0.01264   1.088  2.910  0.000
   256C    -0.05677 -0.20076   1.066  2.991  0.000
   257C     0.06640  0.12914   1.097  2.837  0.000
   258C    -0.03256 -0.07877   1.079  2.954  0.000
   259C    -0.03551 -0.08107   1.086  2.950  0.000
   260N    -0.16389 -0.43105   1.308  3.856  0.000
   261C     0.06960  0.13500   1.115  2.815  0.000
   262C     0.02387  0.03070   1.078  2.898  0.000
   263C     0.06962  0.13504   1.115  2.815  0.000
   264C    -0.03549 -0.08105   1.085  2.950  0.000
   265C    -0.03253 -0.07874   1.079  2.954  0.000
   266C     0.06638  0.12908   1.097  2.837  0.000
   267N    -0.16387 -0.43108   1.308  3.856  0.000
   268C     0.02330  0.02748   1.070  2.907  0.000
   269C     0.00317 -0.00188   1.054  2.943  0.000
   270C     0.00222 -0.01263   1.088  2.910  0.000
   271C    -0.05674 -0.20073   1.066  2.991  0.000
   272C    -0.03188 -0.08365   1.063  2.969  0.000
   273C    -0.00372 -0.02141   1.099  2.905  0.000
   274C    -0.06229 -0.20701   1.076  2.987  0.000
   275C    -0.03182 -0.08363   1.063  2.969  0.000
   276C     0.00215 -0.01271   1.088  2.910  0.000
   277C    -0.05674 -0.20073   1.066  2.991  0.000
   278C     0.06629  0.12880   1.097  2.837  0.000
   279C    -0.03231 -0.07852   1.079  2.954  0.000
   280C    -0.03530 -0.08085   1.085  2.950  0.000
   281C     0.07007  0.13568   1.116  2.814  0.000
   282N    -0.16381 -0.43082   1.308  3.856  0.000
   283H     0.02821  0.08630   0.972  0.000  0.000
   284H     0.02340  0.08206   0.977  0.000  0.000
   285H     0.01670  0.07049   0.983  0.000  0.000
   286H     0.01648  0.06917   0.984  0.000  0.000
   287H     0.01729  0.07110   0.983  0.000  0.000
   288H     0.03092  0.08843   0.969  0.000  0.000
   289H     0.02448  0.07640   0.976  0.000  0.000
   290H     0.02154  0.07384   0.978  0.000  0.000
   291H     0.01993  0.07241   0.980  0.000  0.000
   292H     0.03121  0.08873   0.969  0.000  0.000
   293H     0.01687  0.07067   0.983  0.000  0.000
   294H     0.01721  0.07108   0.983  0.000  0.000
   295H     0.01633  0.06903   0.984  0.000  0.000
   296H     0.02329  0.08200   0.977  0.000  0.000
   297H     0.02773  0.08584   0.972  0.000  0.000
   298H     0.02778  0.08588   0.972  0.000  0.000
   299H     0.02328  0.08199   0.977  0.000  0.000
   300H     0.01673  0.07053   0.983  0.000  0.000
   301H     0.01637  0.06906   0.984  0.000  0.000
   302H     0.01726  0.07112   0.983  0.000  0.000
   303H     0.03121  0.08874   0.969  0.000  0.000
   304H     0.01986  0.07235   0.980  0.000  0.000
   305H     0.02445  0.07637   0.976  0.000  0.000
   306H     0.02166  0.07395   0.978  0.000  0.000
   307H     0.03094  0.08845   0.969  0.000  0.000
   308H     0.01645  0.06914   0.984  0.000  0.000
   309H     0.01738  0.07119   0.983  0.000  0.000
   310H     0.01670  0.07049   0.983  0.000  0.000
   311H     0.02340  0.08206   0.977  0.000  0.000
   312H     0.02819  0.08630   0.972  0.000  0.000

Wiberg/Mayer (AO) data.
largest (>0.10) Wiberg bond orders for each atom

 ---------------------------------------------------------------------------
     #   Z sym  total        # sym  WBO       # sym  WBO       # sym  WBO
 ---------------------------------------------------------------------------
     1  26 Fe   4.275 --     7 N    0.873    43 N    0.873    21 N    0.866
                            28 N    0.866
     2   6 C    3.831 --     3 C    1.397    42 C    1.395    44 H    0.997
     3   6 C    3.941 --     2 C    1.397     7 N    1.223     4 C    1.204
     4   6 C    3.855 --     5 C    1.638     3 C    1.204    45 H    0.993
     5   6 C    3.827 --     4 C    1.638     6 C    1.211    46 H    1.001
     6   6 C    3.909 --     8 C    1.375     7 N    1.226     5 C    1.211
     7   7 N    3.104 --     6 C    1.226     3 C    1.223     1 Fe   0.873
     8   6 C    3.794 --    18 C    1.384     6 C    1.375     9 C    1.028
     9   6 C    3.811 --    16 C    1.422    10 C    1.418     8 C    1.028
    10   6 C    3.891 --    12 C    1.438     9 C    1.418    11 C    1.019
    11   6 C    3.893 --    10 C    1.019    49 H    0.997    47 H    0.994
                            48 H    0.993
    12   6 C    3.835 --    10 C    1.438    13 C    1.430    50 H    0.994
    13   6 C    3.929 --    15 C    1.435    12 C    1.430    14 C    1.009
    14   6 C    3.920 --    13 C    1.009    51 H    1.000    53 H    0.996
                            52 H    0.988
    15   6 C    3.836 --    13 C    1.435    16 C    1.433    54 H    0.994
    16   6 C    3.892 --    15 C    1.433     9 C    1.422    17 C    1.018
    17   6 C    3.893 --    16 C    1.018    56 H    0.997    57 H    0.993
                            55 H    0.993
    18   6 C    3.901 --     8 C    1.384    19 C    1.216    21 N    1.214
    19   6 C    3.822 --    20 C    1.627    18 C    1.216    58 H    1.000
    20   6 C    3.847 --    19 C    1.627    22 C    1.225    59 H    0.998
    21   7 N    3.109 --    22 C    1.247    18 C    1.214     1 Fe   0.866
    22   6 C    3.919 --    23 C    1.305    21 N    1.247    20 C    1.225
    23   6 C    3.859 --    24 C    1.307    22 C    1.305   152 C    1.211
    24   6 C    3.920 --    23 C    1.307    28 N    1.247    25 C    1.225
    25   6 C    3.847 --    26 C    1.627    24 C    1.225    60 H    0.998
    26   6 C    3.822 --    25 C    1.627    27 C    1.216    61 H    1.000
    27   6 C    3.901 --    29 C    1.384    26 C    1.216    28 N    1.215
    28   7 N    3.108 --    24 C    1.247    27 C    1.215     1 Fe   0.866
    29   6 C    3.794 --    27 C    1.384    39 C    1.375    30 C    1.028
    30   6 C    3.811 --    37 C    1.423    31 C    1.417    29 C    1.028
    31   6 C    3.891 --    33 C    1.440    30 C    1.417    32 C    1.019
    32   6 C    3.893 --    31 C    1.019    63 H    0.997    62 H    0.993
                            64 H    0.993
    33   6 C    3.835 --    31 C    1.440    34 C    1.428    65 H    0.994
    34   6 C    3.929 --    36 C    1.436    33 C    1.428    35 C    1.009
    35   6 C    3.920 --    34 C    1.009    67 H    1.000    66 H    0.994
                            68 H    0.989
    36   6 C    3.836 --    34 C    1.436    37 C    1.431    69 H    0.994
    37   6 C    3.893 --    36 C    1.431    30 C    1.423    38 C    1.018
    38   6 C    3.894 --    37 C    1.018    72 H    0.997    70 H    0.994
                            71 H    0.992
    39   6 C    3.910 --    29 C    1.375    43 N    1.226    40 C    1.211
    40   6 C    3.827 --    41 C    1.638    39 C    1.211    73 H    1.001
    41   6 C    3.855 --    40 C    1.638    42 C    1.204    74 H    0.993
    42   6 C    3.941 --     2 C    1.395    43 N    1.224    41 C    1.204
    43   7 N    3.104 --    39 C    1.226    42 C    1.224     1 Fe   0.873
    44   1 H    1.031 --     2 C    0.997
    45   1 H    1.024 --     4 C    0.993
    46   1 H    1.045 --     5 C    1.001
    47   1 H    1.055 --    11 C    0.994
    48   1 H    1.052 --    11 C    0.993
    49   1 H    1.044 --    11 C    0.997
    50   1 H    1.016 --    12 C    0.994
    51   1 H    1.034 --    14 C    1.000
    52   1 H    1.033 --    14 C    0.988
    53   1 H    1.034 --    14 C    0.996
    54   1 H    1.017 --    15 C    0.994
    55   1 H    1.052 --    17 C    0.993
    56   1 H    1.043 --    17 C    0.997
    57   1 H    1.052 --    17 C    0.993
    58   1 H    1.044 --    19 C    1.000
    59   1 H    1.032 --    20 C    0.998
    60   1 H    1.032 --    25 C    0.998
    61   1 H    1.044 --    26 C    1.000
    62   1 H    1.052 --    32 C    0.993
    63   1 H    1.044 --    32 C    0.997
    64   1 H    1.054 --    32 C    0.993
    65   1 H    1.016 --    33 C    0.994
    66   1 H    1.034 --    35 C    0.994
    67   1 H    1.034 --    35 C    1.000
    68   1 H    1.033 --    35 C    0.989
    69   1 H    1.018 --    36 C    0.994
    70   1 H    1.054 --    38 C    0.994
    71   1 H    1.051 --    38 C    0.992
    72   1 H    1.043 --    38 C    0.997
    73   1 H    1.045 --    40 C    1.001
    74   1 H    1.024 --    41 C    0.993
    75  26 Fe   4.282 --   117 N    0.874    81 N    0.874    95 N    0.867
                           102 N    0.867
    76   6 C    3.832 --   116 C    1.397    77 C    1.395   118 H    0.997
    77   6 C    3.941 --    76 C    1.395    81 N    1.224    78 C    1.204
    78   6 C    3.855 --    79 C    1.638    77 C    1.204   119 H    0.993
    79   6 C    3.825 --    78 C    1.638    80 C    1.211   120 H    1.001
    80   6 C    3.910 --    82 C    1.375    81 N    1.225    79 C    1.211
    81   7 N    3.104 --    80 C    1.225    77 C    1.224    75 Fe   0.874
    82   6 C    3.794 --    92 C    1.384    80 C    1.375    83 C    1.028
    83   6 C    3.811 --    84 C    1.420    90 C    1.420    82 C    1.028
    84   6 C    3.891 --    86 C    1.435    83 C    1.420    85 C    1.019
    85   6 C    3.892 --    84 C    1.019   123 H    0.997   121 H    0.993
                           122 H    0.993
    86   6 C    3.835 --    84 C    1.435    87 C    1.433   124 H    0.994
    87   6 C    3.929 --    86 C    1.433    89 C    1.432    88 C    1.009
    88   6 C    3.920 --    87 C    1.009   127 H    0.998   125 H    0.998
                           126 H    0.987
    89   6 C    3.836 --    90 C    1.436    87 C    1.432   128 H    0.994
    90   6 C    3.892 --    89 C    1.436    83 C    1.420    91 C    1.018
    91   6 C    3.893 --    90 C    1.018   130 H    0.997   131 H    0.994
                           129 H    0.992
    92   6 C    3.901 --    82 C    1.384    93 C    1.216    95 N    1.214
    93   6 C    3.821 --    94 C    1.627    92 C    1.216   132 H    1.000
    94   6 C    3.847 --    93 C    1.627    96 C    1.225   133 H    0.998
    95   7 N    3.109 --    96 C    1.246    92 C    1.214    75 Fe   0.867
    96   6 C    3.919 --    97 C    1.306    95 N    1.246    94 C    1.225
    97   6 C    3.859 --    96 C    1.306    98 C    1.306   166 C    1.211
    98   6 C    3.919 --    97 C    1.306   102 N    1.247    99 C    1.225
    99   6 C    3.847 --   100 C    1.626    98 C    1.225   134 H    0.998
   100   6 C    3.821 --    99 C    1.626   101 C    1.216   135 H    1.000
   101   6 C    3.901 --   103 C    1.384   100 C    1.216   102 N    1.214
   102   7 N    3.108 --    98 C    1.247   101 C    1.214    75 Fe   0.867
   103   6 C    3.794 --   101 C    1.384   113 C    1.375   104 C    1.028
   104   6 C    3.811 --   111 C    1.422   105 C    1.418   103 C    1.028
   105   6 C    3.892 --   107 C    1.438   104 C    1.418   106 C    1.019
   106   6 C    3.892 --   105 C    1.019   137 H    0.997   136 H    0.994
                           138 H    0.992
   107   6 C    3.835 --   105 C    1.438   108 C    1.430   139 H    0.994
   108   6 C    3.929 --   110 C    1.434   107 C    1.430   109 C    1.009
   109   6 C    3.920 --   108 C    1.009   141 H    0.999   140 H    0.996
                           142 H    0.988
   110   6 C    3.836 --   108 C    1.434   111 C    1.434   143 H    0.994
   111   6 C    3.892 --   110 C    1.434   104 C    1.422   112 C    1.018
   112   6 C    3.893 --   111 C    1.018   146 H    0.997   144 H    0.993
                           145 H    0.993
   113   6 C    3.910 --   103 C    1.375   117 N    1.226   114 C    1.211
   114   6 C    3.827 --   115 C    1.638   113 C    1.211   147 H    1.001
   115   6 C    3.855 --   114 C    1.638   116 C    1.204   148 H    0.993
   116   6 C    3.941 --    76 C    1.397   117 N    1.222   115 C    1.204
   117   7 N    3.104 --   113 C    1.226   116 C    1.222    75 Fe   0.874
   118   1 H    1.031 --    76 C    0.997
   119   1 H    1.024 --    78 C    0.993
   120   1 H    1.045 --    79 C    1.001
   121   1 H    1.052 --    85 C    0.993
   122   1 H    1.054 --    85 C    0.993
   123   1 H    1.043 --    85 C    0.997
   124   1 H    1.015 --    86 C    0.994
   125   1 H    1.034 --    88 C    0.998
   126   1 H    1.032 --    88 C    0.987
   127   1 H    1.034 --    88 C    0.998
   128   1 H    1.015 --    89 C    0.994
   129   1 H    1.051 --    91 C    0.992
   130   1 H    1.043 --    91 C    0.997
   131   1 H    1.054 --    91 C    0.994
   132   1 H    1.044 --    93 C    1.000
   133   1 H    1.032 --    94 C    0.998
   134   1 H    1.032 --    99 C    0.998
   135   1 H    1.044 --   100 C    1.000
   136   1 H    1.055 --   106 C    0.994
   137   1 H    1.044 --   106 C    0.997
   138   1 H    1.052 --   106 C    0.992
   139   1 H    1.016 --   107 C    0.994
   140   1 H    1.034 --   109 C    0.996
   141   1 H    1.034 --   109 C    0.999
   142   1 H    1.033 --   109 C    0.988
   143   1 H    1.016 --   110 C    0.994
   144   1 H    1.051 --   112 C    0.993
   145   1 H    1.054 --   112 C    0.993
   146   1 H    1.043 --   112 C    0.997
   147   1 H    1.045 --   114 C    1.001
   148   1 H    1.024 --   115 C    0.993
   149   6 C    3.843 --   150 C    2.384   153 C    1.352   152 C    0.177
   150   6 C    3.841 --   149 C    2.384   151 C    1.351   154 C    0.177
   151   6 C    3.830 --   152 C    2.486   150 C    1.351
   152   6 C    3.768 --   151 C    2.486    23 C    1.211   149 C    0.177
   153   6 C    3.827 --   154 C    2.483   149 C    1.352
   154   6 C    3.769 --   153 C    2.483   168 C    1.214   150 C    0.177
   155   6 C    3.842 --   156 C    2.373   159 C    1.360   158 C    0.178
   156   6 C    3.842 --   155 C    2.373   157 C    1.360   160 C    0.178
   157   6 C    3.827 --   158 C    2.474   156 C    1.360
   158   6 C    3.767 --   157 C    2.474   189 C    1.221   155 C    0.178
   159   6 C    3.827 --   160 C    2.474   155 C    1.360
   160   6 C    3.768 --   159 C    2.474   241 C    1.221   156 C    0.178
   161   6 C    3.841 --   162 C    2.385   165 C    1.351   164 C    0.177
   162   6 C    3.843 --   161 C    2.385   163 C    1.352   166 C    0.177
   163   6 C    3.827 --   164 C    2.484   162 C    1.352
   164   6 C    3.769 --   163 C    2.484   262 C    1.213   161 C    0.177
   165   6 C    3.830 --   166 C    2.487   161 C    1.351
   166   6 C    3.768 --   165 C    2.487    97 C    1.211   162 C    0.177
   167  26 Fe   4.243 --   173 N    0.869   209 N    0.869   187 N    0.869
                           194 N    0.868
   168   6 C    3.855 --   169 C    1.303   208 C    1.302   154 C    1.214
   169   6 C    3.918 --   168 C    1.303   173 N    1.245   170 C    1.228
   170   6 C    3.844 --   171 C    1.623   169 C    1.228   210 H    0.998
   171   6 C    3.821 --   170 C    1.623   172 C    1.220   211 H    1.000
   172   6 C    3.897 --   174 C    1.376   171 C    1.220   173 N    1.215
   173   7 N    3.103 --   169 C    1.245   172 C    1.215   167 Fe   0.869
   174   6 C    3.790 --   184 C    1.381   172 C    1.376   175 C    1.029
   175   6 C    3.810 --   182 C    1.420   176 C    1.420   174 C    1.029
   176   6 C    3.891 --   178 C    1.436   175 C    1.420   177 C    1.018
   177   6 C    3.891 --   176 C    1.018   213 H    0.996   214 H    0.994
                           212 H    0.993
   178   6 C    3.835 --   176 C    1.436   179 C    1.432   215 H    0.994
   179   6 C    3.929 --   181 C    1.432   178 C    1.432   180 C    1.009
   180   6 C    3.920 --   179 C    1.009   217 H    0.998   218 H    0.998
                           216 H    0.987
   181   6 C    3.836 --   182 C    1.436   179 C    1.432   219 H    0.994
   182   6 C    3.891 --   181 C    1.436   175 C    1.420   183 C    1.018
   183   6 C    3.892 --   182 C    1.018   222 H    0.996   221 H    0.994
                           220 H    0.993
   184   6 C    3.897 --   174 C    1.381   185 C    1.219   187 N    1.212
   185   6 C    3.821 --   186 C    1.623   184 C    1.219   223 H    1.000
   186   6 C    3.844 --   185 C    1.623   188 C    1.228   224 H    0.998
   187   7 N    3.104 --   188 C    1.249   184 C    1.212   167 Fe   0.869
   188   6 C    3.917 --   189 C    1.299   187 N    1.249   186 C    1.228
   189   6 C    3.854 --   190 C    1.299   188 C    1.299   158 C    1.221
   190   6 C    3.917 --   189 C    1.299   194 N    1.249   191 C    1.228
   191   6 C    3.845 --   192 C    1.623   190 C    1.228   225 H    0.998
   192   6 C    3.821 --   191 C    1.623   193 C    1.219   226 H    1.000
   193   6 C    3.897 --   195 C    1.381   192 C    1.219   194 N    1.213
   194   7 N    3.104 --   190 C    1.249   193 C    1.213   167 Fe   0.868
   195   6 C    3.790 --   193 C    1.381   205 C    1.377   196 C    1.029
   196   6 C    3.810 --   203 C    1.420   197 C    1.419   195 C    1.029
   197   6 C    3.891 --   199 C    1.436   196 C    1.419   198 C    1.019
   198   6 C    3.892 --   197 C    1.019   228 H    0.996   229 H    0.994
                           227 H    0.993
   199   6 C    3.835 --   197 C    1.436   200 C    1.432   230 H    0.994
   200   6 C    3.929 --   202 C    1.432   199 C    1.432   201 C    1.009
   201   6 C    3.920 --   200 C    1.009   231 H    0.998   233 H    0.998
                           232 H    0.987
   202   6 C    3.835 --   203 C    1.436   200 C    1.432   234 H    0.994
   203   6 C    3.891 --   202 C    1.436   196 C    1.420   204 C    1.018
   204   6 C    3.892 --   203 C    1.018   235 H    0.997   236 H    0.994
                           237 H    0.993
   205   6 C    3.897 --   195 C    1.377   206 C    1.220   209 N    1.215
   206   6 C    3.821 --   207 C    1.623   205 C    1.220   238 H    1.000
   207   6 C    3.844 --   206 C    1.623   208 C    1.228   239 H    0.998
   208   6 C    3.918 --   168 C    1.302   209 N    1.246   207 C    1.228
   209   7 N    3.103 --   208 C    1.246   205 C    1.215   167 Fe   0.869
   210   1 H    1.033 --   170 C    0.998
   211   1 H    1.045 --   171 C    1.000
   212   1 H    1.053 --   177 C    0.993
   213   1 H    1.043 --   177 C    0.996
   214   1 H    1.054 --   177 C    0.994
   215   1 H    1.015 --   178 C    0.994
   216   1 H    1.032 --   180 C    0.987
   217   1 H    1.034 --   180 C    0.998
   218   1 H    1.034 --   180 C    0.998
   219   1 H    1.015 --   181 C    0.994
   220   1 H    1.053 --   183 C    0.993
   221   1 H    1.054 --   183 C    0.994
   222   1 H    1.043 --   183 C    0.996
   223   1 H    1.045 --   185 C    1.000
   224   1 H    1.032 --   186 C    0.998
   225   1 H    1.032 --   191 C    0.998
   226   1 H    1.045 --   192 C    1.000
   227   1 H    1.053 --   198 C    0.993
   228   1 H    1.043 --   198 C    0.996
   229   1 H    1.054 --   198 C    0.994
   230   1 H    1.015 --   199 C    0.994
   231   1 H    1.034 --   201 C    0.998
   232   1 H    1.032 --   201 C    0.987
   233   1 H    1.034 --   201 C    0.998
   234   1 H    1.015 --   202 C    0.994
   235   1 H    1.043 --   204 C    0.997
   236   1 H    1.054 --   204 C    0.994
   237   1 H    1.053 --   204 C    0.993
   238   1 H    1.045 --   206 C    1.000
   239   1 H    1.033 --   207 C    0.998
   240  26 Fe   4.233 --   267 N    0.868   260 N    0.867   282 N    0.867
                           246 N    0.867
   241   6 C    3.851 --   281 C    1.300   242 C    1.300   160 C    1.221
   242   6 C    3.917 --   241 C    1.300   246 N    1.249   243 C    1.228
   243   6 C    3.845 --   244 C    1.623   242 C    1.228   283 H    0.998
   244   6 C    3.822 --   243 C    1.623   245 C    1.219   284 H    1.000
   245   6 C    3.897 --   247 C    1.381   244 C    1.219   246 N    1.213
   246   7 N    3.104 --   242 C    1.249   245 C    1.213   240 Fe   0.867
   247   6 C    3.790 --   245 C    1.381   257 C    1.377   248 C    1.028
   248   6 C    3.810 --   249 C    1.423   255 C    1.417   247 C    1.028
   249   6 C    3.891 --   251 C    1.433   248 C    1.423   250 C    1.019
   250   6 C    3.892 --   249 C    1.019   286 H    0.997   285 H    0.993
                           287 H    0.993
   251   6 C    3.835 --   252 C    1.435   249 C    1.433   288 H    0.994
   252   6 C    3.929 --   251 C    1.435   254 C    1.429   253 C    1.009
   253   6 C    3.920 --   252 C    1.009   291 H    1.000   290 H    0.996
                           289 H    0.988
   254   6 C    3.835 --   255 C    1.439   252 C    1.429   292 H    0.994
   255   6 C    3.891 --   254 C    1.439   248 C    1.417   256 C    1.019
   256   6 C    3.892 --   255 C    1.019   295 H    0.997   293 H    0.993
                           294 H    0.993
   257   6 C    3.897 --   247 C    1.377   258 C    1.220   260 N    1.216
   258   6 C    3.822 --   259 C    1.623   257 C    1.220   296 H    1.000
   259   6 C    3.844 --   258 C    1.623   261 C    1.228   297 H    0.998
   260   7 N    3.103 --   261 C    1.246   257 C    1.216   240 Fe   0.867
   261   6 C    3.918 --   262 C    1.303   260 N    1.246   259 C    1.228
   262   6 C    3.852 --   261 C    1.303   263 C    1.303   164 C    1.213
   263   6 C    3.918 --   262 C    1.303   267 N    1.246   264 C    1.228
   264   6 C    3.844 --   265 C    1.623   263 C    1.228   298 H    0.998
   265   6 C    3.822 --   264 C    1.623   266 C    1.220   299 H    1.000
   266   6 C    3.897 --   268 C    1.377   265 C    1.220   267 N    1.215
   267   7 N    3.103 --   263 C    1.246   266 C    1.215   240 Fe   0.868
   268   6 C    3.790 --   278 C    1.381   266 C    1.377   269 C    1.028
   269   6 C    3.810 --   276 C    1.423   270 C    1.417   268 C    1.028
   270   6 C    3.891 --   272 C    1.439   269 C    1.417   271 C    1.019
   271   6 C    3.892 --   270 C    1.019   301 H    0.997   300 H    0.994
                           302 H    0.993
   272   6 C    3.835 --   270 C    1.439   273 C    1.429   303 H    0.994
   273   6 C    3.929 --   275 C    1.435   272 C    1.429   274 C    1.009
   274   6 C    3.920 --   273 C    1.009   304 H    1.000   306 H    0.996
                           305 H    0.988
   275   6 C    3.836 --   273 C    1.435   276 C    1.433   307 H    0.994
   276   6 C    3.891 --   275 C    1.433   269 C    1.423   277 C    1.019
   277   6 C    3.892 --   276 C    1.019   308 H    0.997   310 H    0.994
                           309 H    0.993
   278   6 C    3.897 --   268 C    1.381   279 C    1.219   282 N    1.213
   279   6 C    3.822 --   280 C    1.623   278 C    1.219   311 H    1.000
   280   6 C    3.844 --   279 C    1.623   281 C    1.228   312 H    0.998
   281   6 C    3.917 --   241 C    1.300   282 N    1.249   280 C    1.228
   282   7 N    3.104 --   281 C    1.249   278 C    1.213   240 Fe   0.867
   283   1 H    1.032 --   243 C    0.998
   284   1 H    1.045 --   244 C    1.000
   285   1 H    1.054 --   250 C    0.993
   286   1 H    1.043 --   250 C    0.997
   287   1 H    1.051 --   250 C    0.993
   288   1 H    1.017 --   251 C    0.994
   289   1 H    1.033 --   253 C    0.988
   290   1 H    1.034 --   253 C    0.996
   291   1 H    1.034 --   253 C    1.000
   292   1 H    1.016 --   254 C    0.994
   293   1 H    1.053 --   256 C    0.993
   294   1 H    1.051 --   256 C    0.993
   295   1 H    1.044 --   256 C    0.997
   296   1 H    1.044 --   258 C    1.000
   297   1 H    1.033 --   259 C    0.998
   298   1 H    1.033 --   264 C    0.998
   299   1 H    1.046 --   265 C    1.000
   300   1 H    1.054 --   271 C    0.994
   301   1 H    1.044 --   271 C    0.997
   302   1 H    1.051 --   271 C    0.993
   303   1 H    1.016 --   272 C    0.994
   304   1 H    1.034 --   274 C    1.000
   305   1 H    1.034 --   274 C    0.988
   306   1 H    1.034 --   274 C    0.996
   307   1 H    1.017 --   275 C    0.994
   308   1 H    1.043 --   277 C    0.997
   309   1 H    1.051 --   277 C    0.993
   310   1 H    1.054 --   277 C    0.994
   311   1 H    1.045 --   279 C    1.000
   312   1 H    1.032 --   280 C    0.998
 ---------------------------------------------------------------------------

Topologies differ in total number of bonds
Writing topology from bond orders to xtbtopo.mol

 dipole moment from electron density (au)
     X       Y       Z   
-131.5858  -0.0126   0.0936  total (Debye):  334.458


           -------------------------------------------------
          | TOTAL ENERGY             -551.958769739078 Eh   |
          | GRADIENT NORM               0.178585455174 Eh/α |
          | HOMO-LUMO GAP               0.000339297689 eV   |
           -------------------------------------------------
########################################################################
[WARNING] Runtime exception occurred
-1- restart_readRestart: Dimension missmatch in restart file.
########################################################################

------------------------------------------------------------------------
 * finished run on 2022/07/29 at 21:32:51.023     
------------------------------------------------------------------------
 total:
 * wall-time:     0 d,  0 h,  2 min, 39.009 sec
 *  cpu-time:     0 d,  0 h,  2 min, 38.109 sec
 * ratio c/w:     0.994 speedup
 SCF:
 * wall-time:     0 d,  0 h,  2 min, 38.003 sec
 *  cpu-time:     0 d,  0 h,  2 min, 37.145 sec
 * ratio c/w:     0.995 speedup

