      -----------------------------------------------------------      
     |                   =====================                   |     
     |                           x T B                           |     
     |                   =====================                   |     
     |                         S. Grimme                         |     
     |          Mulliken Center for Theoretical Chemistry        |     
     |                    University of Bonn                     |     
      -----------------------------------------------------------      

   * xtb version 6.5.1 (b24c23e) compiled by 'conda@728c89f4b128' on 2022-07-12

   xtb is free software: you can redistribute it and/or modify it under
   the terms of the GNU Lesser General Public License as published by
   the Free Software Foundation, either version 3 of the License, or
   (at your option) any later version.
   
   xtb is distributed in the hope that it will be useful,
   but WITHOUT ANY WARRANTY; without even the implied warranty of
   MERCHANTABILITY or FITNESS FOR A PARTICULAR PURPOSE.  See the
   GNU Lesser General Public License for more details.
   
   Cite this work as:
   * C. Bannwarth, E. Caldeweyher, S. Ehlert, A. Hansen, P. Pracht,
     J. Seibert, S. Spicher, S. Grimme, WIREs Comput. Mol. Sci., 2020, 11,
     e01493. DOI: 10.1002/wcms.1493
   
   for GFN2-xTB:
   * C. Bannwarth, S. Ehlert and S. Grimme., J. Chem. Theory Comput., 2019,
     15, 1652-1671. DOI: 10.1021/acs.jctc.8b01176
   for GFN1-xTB:
   * S. Grimme, C. Bannwarth, P. Shushkov, J. Chem. Theory Comput., 2017,
     13, 1989-2009. DOI: 10.1021/acs.jctc.7b00118
   for GFN0-xTB:
   * P. Pracht, E. Caldeweyher, S. Ehlert, S. Grimme, ChemRxiv, 2019, preprint.
     DOI: 10.26434/chemrxiv.8326202.v1
   for GFN-FF:
   * S. Spicher and S. Grimme, Angew. Chem. Int. Ed., 2020, 59, 15665-15673.
     DOI: 10.1002/anie.202004239
   
   for ALPB and GBSA implicit solvation:
   * S. Ehlert, M. Stahn, S. Spicher, S. Grimme, J. Chem. Theory Comput.,
     2021, 17, 4250-4261. DOI: 10.1021/acs.jctc.1c00471
   
   for DFT-D4:
   * E. Caldeweyher, C. Bannwarth and S. Grimme, J. Chem. Phys., 2017,
     147, 034112. DOI: 10.1063/1.4993215
   * E. Caldeweyher, S. Ehlert, A. Hansen, H. Neugebauer, S. Spicher,
     C. Bannwarth and S. Grimme, J. Chem. Phys., 2019, 150, 154122.
     DOI: 10.1063/1.5090222
   * E. Caldeweyher, J.-M. Mewes, S. Ehlert and S. Grimme, Phys. Chem. Chem. Phys.
     2020, 22, 8499-8512. DOI: 10.1039/D0CP00502A
   
   for sTDA-xTB:
   * S. Grimme and C. Bannwarth, J. Chem. Phys., 2016, 145, 054103.
     DOI: 10.1063/1.4959605
   
   in the mass-spec context:
   * V. Asgeirsson, C. Bauer and S. Grimme, Chem. Sci., 2017, 8, 4879.
     DOI: 10.1039/c7sc00601b
   * J. Koopman and S. Grimme, ACS Omega 2019, 4, 12, 15120-15133.
     DOI: 10.1021/acsomega.9b02011
   
   for metadynamics refer to:
   * S. Grimme, J. Chem. Theory Comput., 2019, 155, 2847-2862
     DOI: 10.1021/acs.jctc.9b00143
   
   for SPH calculations refer to:
   * S. Spicher and S. Grimme, J. Chem. Theory Comput., 2021, 17, 1701-1714
     DOI: 10.1021/acs.jctc.0c01306
   
   with help from (in alphabetical order)
   P. Atkinson, C. Bannwarth, F. Bohle, G. Brandenburg, E. Caldeweyher
   M. Checinski, S. Dohm, S. Ehlert, S. Ehrlich, I. Gerasimov, C. Hölzer
   A. Katbashev, J. Koopman, C. Lavigne, S. Lehtola, F. März, M. Müller,
   F. Musil, H. Neugebauer, J. Pisarek, C. Plett, P. Pracht, F. Pultar,
   J. Seibert, P. Shushkov, S. Spicher, M. Stahn, M. Steiner, T. Strunk,
   J. Stückrath, T. Rose, and J. Unsleber
   
 * started run on 2022/07/27 at 14:37:23.896     

           -------------------------------------------------
          |                Calculation Setup                |
           -------------------------------------------------

          program call               : xtb m-CP_C2_8.xyz --gfn 1 --opt -T 48
          hostname                   : cx3-5-14.cx3.hpc.ic.ac.uk
          coordinate file            : m-CP_C2_8.xyz
          omp threads                :                     1

   ID    Z sym.   atoms
    1    6 C      1-5, 7-11, 14-19, 21-26, 28-34, 37-41, 64-68, 70-74, 77-82,
                  84-89, 91-97, 100-104, 127-145, 147-151, 154-159, 161-166,
                  168-174, 177-181, 203-207, 209-213, 216-221, 223-228,
                  230-236, 239-243, 265-269, 271-275, 278-283, 285-290,
                  292-298, 301-305, 327-331, 333-337, 340-345, 347-352,
                  354-360, 363-367, 389-393, 395-399, 402-407, 409-414,
                  416-422, 425-429, 451-455, 457-461, 464-469, 471-476,
                  478-484, 487-491
    2    7 N      6, 20, 27, 42, 69, 83, 90, 105, 146, 160, 167, 182, 208,
                  222, 229, 244, 270, 284, 291, 306, 332, 346, 353, 368, 394,
                  408, 415, 430, 456, 470, 477, 492
    3    8 O      12, 13, 35, 36, 75, 76, 98, 99, 152, 153, 175, 176, 214,
                  215, 237, 238, 276, 277, 299, 300, 338, 339, 361, 362, 400,
                  401, 423, 424, 462, 463, 485, 486
    4    1 H      43-63, 106-126, 183-202, 245-264, 307-326, 369-388,
                  431-450, 493-512
########################################################################
[WARNING] Please study the warnings concerning your input carefully
-1- prog_main_parseArguments: Unknown option '-T' provided
########################################################################

           -------------------------------------------------
          |                 G F N 1 - x T B                 |
           -------------------------------------------------

        Reference                      10.1021/acs.jctc.7b00118
      * Hamiltonian:
        H0-scaling (s, p, d)           1.850000    2.250000    2.000000
        zeta-weighting                 0.000000
      * Dispersion:
        s8                             2.400000
        a1                             0.630000
        a2                             5.000000
        s9                             0.000000
      * Repulsion:
        kExp                           1.500000
        rExp                           1.000000
      * Coulomb:
        alpha                          2.000000
        third order                    atomic
        anisotropic                    false
      * Halogen bond correction:
        rad-scale                      1.300000
        damping                        0.440000


          ...................................................
          :                      SETUP                      :
          :.................................................:
          :  # basis functions                1724          :
          :  # atomic orbitals                1724          :
          :  # shells                         1024          :
          :  # electrons                      1658          :
          :  # halogen bonds                     0          :
          :  max. iterations                   250          :
          :  Hamiltonian                  GFN1-xTB          :
          :  restarted?                      false          :
          :  GBSA solvation                  false          :
          :  PC potential                    false          :
          :  electronic temp.          300.0000000     K    :
          :  accuracy                    1.0000000          :
          :  -> integral cutoff          0.2500000E+02      :
          :  -> integral neglect         0.1000000E-07      :
          :  -> SCF convergence          0.1000000E-05 Eh   :
          :  -> wf. convergence          0.2000000E-04 e    :
          :  Broyden damping             0.4000000          :
          ...................................................

 iter      E             dE          RMSdq      gap      omega  full diag
   1   -955.0378106 -0.955038E+03  0.103E+01    0.01       0.0  T
   2   -957.1037807 -0.206597E+01  0.612E+00    0.10       1.0  T
   3   -929.5930094  0.275108E+02  0.252E+00    0.02       1.0  T
   4    817.1579466  0.174675E+04  0.980E+00    0.00       1.0  T
   5   -569.5856867 -0.138674E+04  0.548E+00    0.01       1.0  T
   6   -926.9831911 -0.357398E+03  0.235E+00    0.02       1.0  T
   7   -948.6920443 -0.217089E+02  0.120E+00    0.02       1.0  T
   8   -954.6915608 -0.599952E+01  0.758E-01    0.19       1.0  T
   9   -954.9841106 -0.292550E+00  0.587E-01    0.23       1.0  T
  10   -956.2304329 -0.124632E+01  0.451E-01    0.12       1.0  T
  11   -956.3477431 -0.117310E+00  0.408E-01    0.31       1.0  T
  12   -956.1104092  0.237334E+00  0.389E-01    0.02       1.0  T
  13   -956.5957037 -0.485294E+00  0.272E-01    0.12       1.0  T
  14   -957.2961247 -0.700421E+00  0.225E-01    0.20       1.0  T
  15   -957.3046630 -0.853832E-02  0.189E-01    0.17       1.0  T
  16   -957.3112360 -0.657300E-02  0.183E-01    0.19       1.0  T
  17   -957.3226282 -0.113921E-01  0.157E-01    0.19       1.0  T
  18   -957.3451199 -0.224917E-01  0.270E-01    0.05       1.0  T
  19   -957.3741314 -0.290115E-01  0.233E-01    0.03       1.0  T
  20   -957.3117455  0.623858E-01  0.265E-01    0.11       1.0  T
  21   -957.3651862 -0.534406E-01  0.169E-01    0.08       1.0  T
  22   -957.4231118 -0.579256E-01  0.498E-02    0.02       1.0  T
  23   -957.4040153  0.190965E-01  0.117E-01    0.05       1.0  T
  24   -957.4296137 -0.255984E-01  0.332E-02    0.01       1.0  T
  25   -957.4207160  0.889772E-02  0.556E-02    0.04       1.0  T
  26   -957.4314432 -0.107272E-01  0.364E-02    0.00       1.0  T
  27   -957.4327951 -0.135188E-02  0.154E-02    0.00       1.0  T
  28   -957.4329578 -0.162736E-03  0.962E-03    0.00       1.0  T
  29   -957.4328399  0.117910E-03  0.531E-03    0.01       1.0  T
  30   -957.4330398 -0.199949E-03  0.608E-03    0.00       1.0  T
  31   -957.4330340  0.584824E-05  0.311E-03    0.00       1.4  T
  32   -957.4330683 -0.342711E-04  0.259E-03    0.00       1.7  T
  33   -957.4330892 -0.209914E-04  0.189E-03    0.00       2.3  T
  34   -957.4330998 -0.105472E-04  0.113E-03    0.00       3.9  T
  35   -957.4331048 -0.497005E-05  0.656E-04    0.00       6.7  T
  36   -957.4331046  0.145652E-06  0.100E-03    0.00       4.4  T
  37   -957.4331051 -0.443320E-06  0.761E-04    0.00       5.8  T
  38   -957.4331052 -0.135365E-06  0.579E-04    0.00       7.6  T
  39   -957.4331055 -0.254645E-06  0.249E-04    0.00      17.8  T
  40   -957.4331054  0.172622E-08  0.160E-04    0.00      27.6  T
  41   -957.4331055 -0.749085E-07  0.567E-05    0.00      77.9  T

   *** convergence criteria satisfied after 41 iterations ***

         #    Occupation            Energy/Eh            Energy/eV
      -------------------------------------------------------------
         1        2.0000           -0.8369417             -22.7743
       ...           ...                  ...                  ...
       823        2.0000           -0.4057309             -11.0405
       824        2.0000           -0.4015374             -10.9264
       825        2.0000           -0.3971822             -10.8079
       826        2.0000           -0.3936270             -10.7111
       827        2.0000           -0.3893282             -10.5942
       828        2.0000           -0.3875639             -10.5462
       829        1.0167           -0.3712193             -10.1014 (HOMO)
       830        0.9833           -0.3711560             -10.0997 (LUMO)
       831        0.0000           -0.3571100              -9.7175
       832        0.0000           -0.3563737              -9.6974
       833                         -0.3525915              -9.5945
       834                         -0.3506484              -9.5416
       ...                                ...                  ...
      1724                          4.7124906             128.2334
      -------------------------------------------------------------
                  HL-Gap            0.0000633 Eh            0.0017 eV
             Fermi-level           -0.3711876 Eh          -10.1005 eV

 SCC (total)                   0 d,  0 h,  1 min,  8.326 sec
 SCC setup                      ...        0 min,  0.067 sec (  0.099%)
 Dispersion                     ...        0 min,  0.036 sec (  0.052%)
 classical contributions        ...        0 min,  0.010 sec (  0.014%)
 integral evaluation            ...        0 min,  0.853 sec (  1.248%)
 iterations                     ...        1 min,  5.330 sec ( 95.616%)
 molecular gradient             ...        0 min,  1.734 sec (  2.538%)
 printout                       ...        0 min,  0.296 sec (  0.433%)

         :::::::::::::::::::::::::::::::::::::::::::::::::::::
         ::                     SUMMARY                     ::
         :::::::::::::::::::::::::::::::::::::::::::::::::::::
         :: total energy            -940.400576372821 Eh    ::
         :: gradient norm              5.208775331083 Eh/a0 ::
         :: HOMO-LUMO gap              0.001723488450 eV    ::
         ::.................................................::
         :: SCC energy              -957.433105523921 Eh    ::
         :: -> electrostatic           1.919517268062 Eh    ::
         :: repulsion energy          17.485989813760 Eh    ::
         :: dispersion energy         -0.453460662661 Eh    ::
         :: halogen bond corr.         0.000000000000 Eh    ::
         :: add. restraining           0.000000000000 Eh    ::
         :: total charge               0.000000000000 e     ::
         :::::::::::::::::::::::::::::::::::::::::::::::::::::

      ----------------------------------------------------------- 
     |                       L-ANC optimizer                     |
      ----------------------------------------------------------- 
          low memory version by Sebastian Ehlert

          ...................................................
          :                      SETUP                      :
          :.................................................:
          :   energy convergence        0.5000000E-05 Eh    :
          :   grad. convergence         0.1000000E-02 Eh/a0 :
          :   optimization log               true           :
          :   writing optlog all                1     steps :
          :   Hessian reset                    20     steps :
          :   maximium step len.        1.0000000     a0    :
          :   LBFGS images                     20           :
          ...................................................
 * calculating model hessian...
Using Lindh-Hessian (1995)
 Shifting diagonal of input Hessian by    1.0005050192157796E-002
 Lowest  eigenvalues of input Hessian
    0.010000    0.010003    0.010004    0.010004    0.010004    0.000000
    0.000000    0.000000    0.000000    0.000000    0.000000    0.010005
    0.010006    0.010007    0.010008    0.010009    0.010010    0.010012
 Highest eigenvalues
    4.209737    4.336075    4.336076    4.336078    4.336079    4.336079


........................................................................
.............................. CYCLE    1 ..............................
........................................................................
   1   -957.5945311 -0.957595E+03  0.152E-01    0.04       0.0  T
   2   -957.4243112  0.170220E+00  0.270E-01    0.28       1.0  T
   3   -957.5014519 -0.771407E-01  0.191E-01    0.17       1.0  T
   4   -957.5020902 -0.638304E-03  0.187E-01    0.29       1.0  T
   5   -957.5774749 -0.753847E-01  0.111E-01    0.08       1.0  T
   6   -957.5415558  0.359191E-01  0.151E-01    0.14       1.0  T
   7   -957.6008291 -0.592734E-01  0.782E-02    0.05       1.0  T
   8   -957.6226590 -0.218298E-01  0.200E-02    0.01       1.0  T
   9   -957.6218298  0.829132E-03  0.231E-02    0.02       1.0  T
  10   -957.6238246 -0.199474E-02  0.194E-03    0.01       2.3  T
  11   -957.6237462  0.783513E-04  0.483E-03    0.01       1.0  T
  12   -957.6237509 -0.463064E-05  0.470E-03    0.01       1.0  T
  13   -957.6238314 -0.805212E-04  0.327E-04    0.01      13.5  T
  14   -957.6238276  0.382394E-05  0.106E-03    0.01       4.2  T
  15   -957.6238317 -0.416405E-05  0.317E-05    0.01     139.5  T
  16   -957.6238317  0.231732E-07  0.813E-05    0.01      54.4  T
  17   -957.6238317 -0.234570E-07  0.194E-05    0.01     227.9  T
     SCC iter.                  ...        0 min, 25.464 sec
     gradient                   ...        0 min,  1.797 sec
 * total energy  :  -942.4652055 Eh     change       -0.2064629E+01 Eh
   gradient norm :     1.4619888 Eh/a0  converged?    E=F G=F D=F
   step length   :     0.7154031 a0

........................................................................
.............................. CYCLE    2 ..............................
........................................................................
   1   -957.6758698 -0.957676E+03  0.436E-02    0.01       0.0  T
   2   -957.6663268  0.954302E-02  0.675E-02    0.04       1.0  T
   3   -957.5772896  0.890371E-01  0.167E-01    0.18       1.0  T
   4   -957.6778544 -0.100565E+00  0.197E-02    0.01       1.0  T
   5   -957.6763917  0.146269E-02  0.256E-02    0.01       1.0  T
   6   -957.6763451  0.466412E-04  0.209E-02    0.01       1.0  T
   7   -957.6776147 -0.126958E-02  0.873E-03    0.01       1.0  T
   8   -957.6779059 -0.291241E-03  0.146E-03    0.01       3.0  T
   9   -957.6779096 -0.368371E-05  0.737E-04    0.01       6.0  T
  10   -957.6779106 -0.100858E-05  0.382E-04    0.01      11.6  T
  11   -957.6779110 -0.387441E-06  0.187E-04    0.01      23.6  T
  12   -957.6779111 -0.110156E-06  0.776E-05    0.01      57.0  T
     SCC iter.                  ...        0 min, 18.110 sec
     gradient                   ...        0 min,  1.675 sec
 * total energy  :  -942.9860152 Eh     change       -0.5208097E+00 Eh
   gradient norm :     1.2290461 Eh/a0  converged?    E=F G=F D=F
   step length   :     3.6135934 a0

........................................................................
.............................. CYCLE    3 ..............................
........................................................................
   1   -957.7825828 -0.957783E+03  0.391E-02    0.02       0.0  T
   2   -957.7833420 -0.759205E-03  0.371E-02    0.02       1.0  T
   3   -957.7721492  0.111929E-01  0.558E-02    0.04       1.0  T
   4   -957.7604995  0.116496E-01  0.762E-02    0.06       1.0  T
   5   -957.7838893 -0.233897E-01  0.149E-02    0.01       1.0  T
   6   -957.7837305  0.158745E-03  0.110E-02    0.02       1.0  T
   7   -957.7841452 -0.414673E-03  0.203E-03    0.01       2.2  T
   8   -957.7841574 -0.122262E-04  0.684E-04    0.01       6.5  T
   9   -957.7841585 -0.105624E-05  0.218E-04    0.01      20.2  T
  10   -957.7841585 -0.115455E-07  0.162E-04    0.01      27.3  T
  11   -957.7841585 -0.143384E-07  0.112E-04    0.01      39.5  T
     SCC iter.                  ...        0 min, 16.602 sec
     gradient                   ...        0 min,  1.677 sec
 * total energy  :  -943.3070379 Eh     change       -0.3210226E+00 Eh
   gradient norm :     1.0168782 Eh/a0  converged?    E=F G=F D=F
   step length   :     5.2319989 a0

........................................................................
.............................. CYCLE    4 ..............................
........................................................................
   1   -957.8493115 -0.957849E+03  0.357E-02    0.03       0.0  T
   2   -957.8451176  0.419389E-02  0.462E-02    0.03       1.0  T
   3   -957.7827197  0.623979E-01  0.124E-01    0.14       1.0  T
   4   -957.8494784 -0.667587E-01  0.203E-02    0.03       1.0  T
   5   -957.8503220 -0.843603E-03  0.124E-02    0.02       1.0  T
   6   -957.8505438 -0.221777E-03  0.448E-03    0.02       1.0  T
   7   -957.8505144  0.293749E-04  0.384E-03    0.02       1.2  T
   8   -957.8505702 -0.558354E-04  0.171E-03    0.02       2.6  T
   9   -957.8505836 -0.133152E-04  0.209E-04    0.02      21.1  T
  10   -957.8505836 -0.452936E-07  0.127E-04    0.02      34.9  T
  11   -957.8505836 -0.705745E-08  0.889E-05    0.02      49.7  T
     SCC iter.                  ...        0 min, 16.407 sec
     gradient                   ...        0 min,  1.719 sec
 * total energy  :  -943.5244671 Eh     change       -0.2174293E+00 Eh
   gradient norm :     0.8637943 Eh/a0  converged?    E=F G=F D=F
   step length   :     6.0931691 a0

........................................................................
.............................. CYCLE    5 ..............................
........................................................................
   1   -957.8979201 -0.957898E+03  0.353E-02    0.04       0.0  T
   2   -957.8923304  0.558964E-02  0.467E-02    0.05       1.0  T
   3   -957.8399572  0.523733E-01  0.112E-01    0.14       1.0  T
   4   -957.8982879 -0.583308E-01  0.173E-02    0.04       1.0  T
   5   -957.8985045 -0.216546E-03  0.156E-02    0.04       1.0  T
   6   -957.8990912 -0.586700E-03  0.468E-03    0.04       1.0  T
   7   -957.8991164 -0.252466E-04  0.250E-03    0.04       1.8  T
   8   -957.8991416 -0.252240E-04  0.739E-04    0.04       6.0  T
   9   -957.8991394  0.226311E-05  0.827E-04    0.04       5.3  T
  10   -957.8991425 -0.310472E-05  0.260E-04    0.04      17.0  T
  11   -957.8991428 -0.318497E-06  0.669E-05    0.04      66.1  T
  12   -957.8991428 -0.105061E-07  0.255E-05    0.04     173.2  T
     SCC iter.                  ...        0 min, 17.981 sec
     gradient                   ...        0 min,  1.697 sec
 * total energy  :  -943.6845636 Eh     change       -0.1600965E+00 Eh
   gradient norm :     0.7235277 Eh/a0  converged?    E=F G=F D=F
   step length   :     5.2723951 a0

........................................................................
.............................. CYCLE    6 ..............................
........................................................................
   1   -957.9488294 -0.957949E+03  0.359E-02    0.07       0.0  T
   2   -957.9479434  0.885926E-03  0.314E-02    0.07       1.0  T
   3   -957.9205050  0.274384E-01  0.768E-02    0.12       1.0  T
   4   -957.9459641 -0.254591E-01  0.296E-02    0.07       1.0  T
   5   -957.9489644 -0.300029E-02  0.178E-02    0.07       1.0  T
   6   -957.9499869 -0.102253E-02  0.501E-03    0.07       1.0  T
   7   -957.9500326 -0.456075E-04  0.200E-03    0.07       2.2  T
   8   -957.9500466 -0.140637E-04  0.881E-04    0.07       5.0  T
   9   -957.9500491 -0.243907E-05  0.326E-04    0.07      13.5  T
  10   -957.9500493 -0.247542E-06  0.150E-04    0.07      29.4  T
  11   -957.9500494 -0.535109E-07  0.705E-05    0.07      62.7  T
     SCC iter.                  ...        0 min, 16.521 sec
     gradient                   ...        0 min,  1.677 sec
 * total energy  :  -943.8044267 Eh     change       -0.1198631E+00 Eh
   gradient norm :     0.5858460 Eh/a0  converged?    E=F G=F D=F
   step length   :     4.4146219 a0

........................................................................
.............................. CYCLE    7 ..............................
........................................................................
   1   -957.9999382 -0.958000E+03  0.366E-02    0.12       0.0  T
   2   -958.0006160 -0.677858E-03  0.208E-02    0.12       1.0  T
   3   -958.0006212 -0.516880E-05  0.117E-02    0.12       1.0  T
   4   -957.9999371  0.684139E-03  0.169E-02    0.12       1.0  T
   5   -957.9998818  0.552886E-04  0.158E-02    0.12       1.0  T
   6   -958.0008708 -0.989065E-03  0.647E-03    0.12       1.0  T
   7   -958.0010161 -0.145265E-03  0.233E-03    0.12       1.9  T
   8   -958.0010405 -0.243664E-04  0.715E-04    0.12       6.2  T
   9   -958.0010420 -0.151605E-05  0.215E-04    0.12      20.5  T
  10   -958.0010420 -0.383440E-07  0.106E-04    0.12      41.7  T
  11   -958.0010420 -0.172289E-07  0.550E-05    0.12      80.3  T
     SCC iter.                  ...        0 min, 16.698 sec
     gradient                   ...        0 min,  1.678 sec
 * total energy  :  -943.8919090 Eh     change       -0.8748236E-01 Eh
   gradient norm :     0.4626721 Eh/a0  converged?    E=F G=F D=F
   step length   :     4.0887646 a0

........................................................................
.............................. CYCLE    8 ..............................
........................................................................
   1   -958.0429009 -0.958043E+03  0.342E-02    0.20       0.0  T
   2   -958.0434940 -0.593146E-03  0.164E-02    0.19       1.0  T
   3   -958.0435348 -0.407476E-04  0.954E-03    0.19       1.0  T
   4   -958.0432009  0.333864E-03  0.124E-02    0.19       1.0  T
   5   -958.0436752 -0.474330E-03  0.538E-03    0.19       1.0  T
   6   -958.0437201 -0.448480E-04  0.284E-03    0.19       1.6  T
   7   -958.0437429 -0.228379E-04  0.115E-03    0.19       3.9  T
   8   -958.0437475 -0.460106E-05  0.466E-04    0.19       9.5  T
   9   -958.0437483 -0.750638E-06  0.173E-04    0.19      25.5  T
  10   -958.0437483 -0.443669E-07  0.681E-05    0.19      64.9  T
     SCC iter.                  ...        0 min, 15.168 sec
     gradient                   ...        0 min,  1.683 sec
 * total energy  :  -943.9563169 Eh     change       -0.6440785E-01 Eh
   gradient norm :     0.3579597 Eh/a0  converged?    E=F G=F D=F
   step length   :     3.9947338 a0

........................................................................
.............................. CYCLE    9 ..............................
........................................................................
   1   -958.0792770 -0.958079E+03  0.290E-02    0.28       0.0  T
   2   -958.0797011 -0.424104E-03  0.128E-02    0.27       1.0  T
   3   -958.0798024 -0.101310E-03  0.566E-03    0.28       1.0  T
   4   -958.0797916  0.107919E-04  0.500E-03    0.28       1.0  T
   5   -958.0798285 -0.368547E-04  0.223E-03    0.28       2.0  T
   6   -958.0798350 -0.658036E-05  0.788E-04    0.28       5.6  T
   7   -958.0798364 -0.134094E-05  0.409E-04    0.28      10.8  T
   8   -958.0798368 -0.450668E-06  0.155E-04    0.28      28.6  T
   9   -958.0798369 -0.363456E-07  0.561E-05    0.28      78.7  T
     SCC iter.                  ...        0 min, 13.686 sec
     gradient                   ...        0 min,  1.682 sec
 * total energy  :  -944.0044797 Eh     change       -0.4816280E-01 Eh
   gradient norm :     0.2654086 Eh/a0  converged?    E=F G=F D=F
   step length   :     3.7586461 a0

........................................................................
.............................. CYCLE   10 ..............................
........................................................................
   1   -958.1070887 -0.958107E+03  0.231E-02    0.38       0.0  T
   2   -958.1073496 -0.260897E-03  0.103E-02    0.37       1.0  T
   3   -958.1074103 -0.606340E-04  0.422E-03    0.37       1.0  T
   4   -958.1074079  0.240929E-05  0.374E-03    0.37       1.2  T
   5   -958.1074223 -0.144626E-04  0.169E-03    0.37       2.6  T
   6   -958.1074270 -0.468202E-05  0.475E-04    0.37       9.3  T
   7   -958.1074275 -0.473469E-06  0.205E-04    0.37      21.5  T
   8   -958.1074275 -0.451854E-07  0.106E-04    0.37      41.8  T
   9   -958.1074275 -0.174095E-07  0.406E-05    0.37     108.9  T
     SCC iter.                  ...        0 min, 13.811 sec
     gradient                   ...        0 min,  1.682 sec
 * total energy  :  -944.0401013 Eh     change       -0.3562163E-01 Eh
   gradient norm :     0.1848144 Eh/a0  converged?    E=F G=F D=F
   step length   :     3.2654437 a0

........................................................................
.............................. CYCLE   11 ..............................
........................................................................
   1   -958.1255568 -0.958126E+03  0.178E-02    0.46       0.0  T
   2   -958.1257016 -0.144871E-03  0.848E-03    0.46       1.0  T
   3   -958.1257373 -0.356501E-04  0.338E-03    0.46       1.3  T
   4   -958.1257368  0.449767E-06  0.311E-03    0.46       1.4  T
   5   -958.1257450 -0.813239E-05  0.138E-03    0.46       3.2  T
   6   -958.1257481 -0.311533E-05  0.371E-04    0.46      11.9  T
   7   -958.1257484 -0.285677E-06  0.142E-04    0.46      31.2  T
   8   -958.1257484 -0.165519E-07  0.672E-05    0.46      65.8  T
     SCC iter.                  ...        0 min, 12.026 sec
     gradient                   ...        0 min,  1.682 sec
 * total energy  :  -944.0653527 Eh     change       -0.2525140E-01 Eh
   gradient norm :     0.1185519 Eh/a0  converged?    E=F G=F D=F
   step length   :     2.7180643 a0

........................................................................
.............................. CYCLE   12 ..............................
........................................................................
   1   -958.1313013 -0.958131E+03  0.131E-02    0.53       0.0  T
   2   -958.1313741 -0.728127E-04  0.696E-03    0.53       1.0  T
   3   -958.1313946 -0.204503E-04  0.276E-03    0.53       1.6  T
   4   -958.1313935  0.104311E-05  0.262E-03    0.53       1.7  T
   5   -958.1313984 -0.487381E-05  0.113E-03    0.53       3.9  T
   6   -958.1314006 -0.221618E-05  0.279E-04    0.53      15.8  T
   7   -958.1314008 -0.153961E-06  0.105E-04    0.53      42.1  T
   8   -958.1314008 -0.107314E-07  0.487E-05    0.53      90.8  T
     SCC iter.                  ...        0 min, 12.229 sec
     gradient                   ...        0 min,  1.706 sec
 * total energy  :  -944.0820526 Eh     change       -0.1669991E-01 Eh
   gradient norm :     0.0722405 Eh/a0  converged?    E=F G=F D=F
   step length   :     2.2366770 a0

........................................................................
.............................. CYCLE   13 ..............................
........................................................................
   1   -958.1237859 -0.958124E+03  0.934E-03    0.58       0.0  T
   2   -958.1238201 -0.342297E-04  0.561E-03    0.58       1.0  T
   3   -958.1238316 -0.114329E-04  0.231E-03    0.58       1.9  T
   4   -958.1238300  0.158746E-05  0.215E-03    0.58       2.1  T
   5   -958.1238332 -0.321152E-05  0.851E-04    0.58       5.2  T
   6   -958.1238345 -0.125822E-05  0.228E-04    0.58      19.4  T
   7   -958.1238346 -0.103624E-06  0.769E-05    0.58      57.5  T
   8   -958.1238346 -0.756950E-08  0.330E-05    0.58     133.8  T
     SCC iter.                  ...        0 min, 11.948 sec
     gradient                   ...        0 min,  1.683 sec
 * total energy  :  -944.0922700 Eh     change       -0.1021737E-01 Eh
   gradient norm :     0.0508341 Eh/a0  converged?    E=F G=F D=F
   step length   :     1.8392915 a0

........................................................................
.............................. CYCLE   14 ..............................
........................................................................
   1   -958.1050132 -0.958105E+03  0.673E-03    0.62       0.0  T
   2   -958.1050307 -0.175474E-04  0.431E-03    0.61       1.0  T
   3   -958.1050370 -0.623122E-05  0.188E-03    0.61       2.4  T
   4   -958.1050358  0.113567E-05  0.162E-03    0.61       2.7  T
   5   -958.1050378 -0.200728E-05  0.545E-04    0.61       8.1  T
   6   -958.1050382 -0.384388E-06  0.220E-04    0.61      20.1  T
   7   -958.1050383 -0.109253E-06  0.509E-05    0.61      86.9  T
   8   -958.1050383 -0.351758E-08  0.219E-05    0.61     201.5  T
     SCC iter.                  ...        0 min, 11.857 sec
     gradient                   ...        0 min,  1.666 sec
 * total energy  :  -944.0983025 Eh     change       -0.6032487E-02 Eh
   gradient norm :     0.0478401 Eh/a0  converged?    E=F G=F D=F
   step length   :     1.5263792 a0

........................................................................
.............................. CYCLE   15 ..............................
........................................................................
   1   -958.0806624 -0.958081E+03  0.518E-03    0.63       0.0  T
   2   -958.0806734 -0.109891E-04  0.330E-03    0.63       1.3  T
   3   -958.0806778 -0.438451E-05  0.147E-03    0.63       3.0  T
   4   -958.0806774  0.384565E-06  0.114E-03    0.63       3.9  T
   5   -958.0806785 -0.111141E-05  0.338E-04    0.63      13.1  T
   6   -958.0806786 -0.722478E-07  0.154E-04    0.63      28.7  T
   7   -958.0806786 -0.530118E-07  0.305E-05    0.63     144.7  T
     SCC iter.                  ...        0 min, 10.438 sec
     gradient                   ...        0 min,  1.673 sec
 * total energy  :  -944.1022135 Eh     change       -0.3911011E-02 Eh
   gradient norm :     0.0486994 Eh/a0  converged?    E=F G=F D=F
   step length   :     1.3403488 a0

........................................................................
.............................. CYCLE   16 ..............................
........................................................................
   1   -958.0571100 -0.958057E+03  0.437E-03    0.63       0.0  T
   2   -958.0571177 -0.772615E-05  0.269E-03    0.63       1.6  T
   3   -958.0571216 -0.389472E-05  0.119E-03    0.63       3.7  T
   4   -958.0571217 -0.646058E-07  0.937E-04    0.63       4.7  T
   5   -958.0571225 -0.853193E-06  0.308E-04    0.63      14.4  T
   6   -958.0571226 -0.490088E-07  0.165E-04    0.63      26.8  T
   7   -958.0571226 -0.618110E-07  0.337E-05    0.63     131.3  T
     SCC iter.                  ...        0 min, 10.426 sec
     gradient                   ...        0 min,  1.667 sec
 * total energy  :  -944.1053772 Eh     change       -0.3163720E-02 Eh
   gradient norm :     0.0480497 Eh/a0  converged?    E=F G=F D=F
   step length   :     1.4002651 a0

........................................................................
.............................. CYCLE   17 ..............................
........................................................................
   1   -958.0394720 -0.958039E+03  0.393E-03    0.62       0.0  T
   2   -958.0394779 -0.584944E-05  0.252E-03    0.62       1.8  T
   3   -958.0394815 -0.359646E-05  0.111E-03    0.62       4.0  T
   4   -958.0394816 -0.820979E-07  0.890E-04    0.62       5.0  T
   5   -958.0394823 -0.714297E-06  0.333E-04    0.62      13.3  T
   6   -958.0394824 -0.125947E-06  0.137E-04    0.62      32.3  T
   7   -958.0394824 -0.403198E-07  0.384E-05    0.62     115.1  T
     SCC iter.                  ...        0 min, 10.369 sec
     gradient                   ...        0 min,  1.699 sec
 * total energy  :  -944.1083382 Eh     change       -0.2961039E-02 Eh
   gradient norm :     0.0455354 Eh/a0  converged?    E=F G=F D=F
   step length   :     1.7727575 a0

........................................................................
.............................. CYCLE   18 ..............................
........................................................................
   1   -958.0292341 -0.958029E+03  0.358E-03    0.60       0.0  T
   2   -958.0292387 -0.454690E-05  0.244E-03    0.60       1.8  T
   3   -958.0292416 -0.296513E-05  0.116E-03    0.60       3.8  T
   4   -958.0292416  0.675975E-07  0.940E-04    0.60       4.7  T
   5   -958.0292424 -0.845420E-06  0.365E-04    0.60      12.1  T
   6   -958.0292426 -0.206954E-06  0.105E-04    0.60      42.2  T
   7   -958.0292426 -0.197473E-07  0.424E-05    0.60     104.2  T
     SCC iter.                  ...        0 min, 10.397 sec
     gradient                   ...        0 min,  1.672 sec
 * total energy  :  -944.1111475 Eh     change       -0.2809235E-02 Eh
   gradient norm :     0.0418486 Eh/a0  converged?    E=F G=F D=F
   step length   :     2.2470087 a0

........................................................................
.............................. CYCLE   19 ..............................
........................................................................
   1   -958.0269167 -0.958027E+03  0.318E-03    0.59       0.0  T
   2   -958.0269204 -0.371721E-05  0.222E-03    0.59       2.0  T
   3   -958.0269224 -0.198893E-05  0.111E-03    0.59       4.0  T
   4   -958.0269221  0.268820E-06  0.884E-04    0.59       5.0  T
   5   -958.0269228 -0.725132E-06  0.341E-04    0.59      13.0  T
   6   -958.0269230 -0.209408E-06  0.891E-05    0.59      49.6  T
   7   -958.0269230 -0.134472E-07  0.376E-05    0.59     117.7  T
     SCC iter.                  ...        0 min, 10.430 sec
     gradient                   ...        0 min,  1.661 sec
 * total energy  :  -944.1137262 Eh     change       -0.2578771E-02 Eh
   gradient norm :     0.0380078 Eh/a0  converged?    E=F G=F D=F
   step length   :     2.6783572 a0

........................................................................
.............................. CYCLE   20 ..............................
........................................................................
   1   -958.0282088 -0.958028E+03  0.289E-03    0.58       0.0  T
   2   -958.0282122 -0.336325E-05  0.193E-03    0.58       2.3  T
   3   -958.0282134 -0.123806E-05  0.998E-04    0.58       4.4  T
   4   -958.0282132  0.247309E-06  0.809E-04    0.58       5.5  T
   5   -958.0282138 -0.668352E-06  0.287E-04    0.58      15.4  T
   6   -958.0282140 -0.137941E-06  0.807E-05    0.58      54.7  T
   7   -958.0282140 -0.105986E-07  0.339E-05    0.58     130.5  T
     SCC iter.                  ...        0 min, 10.478 sec
     gradient                   ...        0 min,  1.678 sec
 * total energy  :  -944.1160537 Eh     change       -0.2327496E-02 Eh
   gradient norm :     0.0346872 Eh/a0  converged?    E=F G=F D=F
   step length   :     3.1583973 a0
 * RMSD in coord.:     0.6550832 a0     energy gain  -0.3715477E+01 Eh
 * calculating model hessian...
Using Lindh-Hessian (1995)
 Shifting diagonal of input Hessian by    1.0064356449001935E-002
 Lowest  eigenvalues of input Hessian
    0.010000    0.010046    0.010063    0.010064    0.010064    0.010064
    0.010064    0.000000    0.000000    0.000000    0.000000    0.000000
    0.000000    0.010065    0.010065    0.010066    0.010066    0.010067
 Highest eigenvalues
    2.634551    2.645522    2.648803    2.653092    2.655432    2.658168


........................................................................
.............................. CYCLE   21 ..............................
........................................................................
   1   -958.0602675 -0.958060E+03  0.471E-03    0.58       0.0  T
   2   -958.0602731 -0.560514E-05  0.355E-03    0.58       1.2  T
   3   -958.0602791 -0.599878E-05  0.140E-03    0.58       3.2  T
   4   -958.0602780  0.113471E-05  0.128E-03    0.58       3.5  T
   5   -958.0602795 -0.146772E-05  0.293E-04    0.58      15.1  T
   6   -958.0602796 -0.112682E-06  0.147E-04    0.58      30.0  T
   7   -958.0602796 -0.545097E-07  0.239E-05    0.58     185.3  T
     SCC iter.                  ...        0 min, 10.510 sec
     gradient                   ...        0 min,  1.675 sec
 * total energy  :  -944.1178998 Eh     change       -0.1846074E-02 Eh
   gradient norm :     0.0178558 Eh/a0  converged?    E=F G=F D=F
   step length   :     0.2634000 a0

........................................................................
.............................. CYCLE   22 ..............................
........................................................................
   1   -958.1083821 -0.958108E+03  0.706E-03    0.58       0.0  T
   2   -958.1083971 -0.149700E-04  0.482E-03    0.58       1.0  T
   3   -958.1084066 -0.949900E-05  0.210E-03    0.58       2.1  T
   4   -958.1084042  0.231459E-05  0.186E-03    0.58       2.4  T
   5   -958.1084077 -0.348168E-05  0.519E-04    0.58       8.5  T
   6   -958.1084081 -0.348749E-06  0.260E-04    0.58      17.0  T
   7   -958.1084082 -0.169519E-06  0.388E-05    0.58     114.0  T
   8   -958.1084083 -0.151590E-08  0.202E-05    0.58     218.8  T
     SCC iter.                  ...        0 min, 11.923 sec
     gradient                   ...        0 min,  1.683 sec
 * total energy  :  -944.1201815 Eh     change       -0.2281746E-02 Eh
   gradient norm :     0.0179420 Eh/a0  converged?    E=F G=F D=F
   step length   :     0.7431408 a0

........................................................................
.............................. CYCLE   23 ..............................
........................................................................
   1   -958.1302425 -0.958130E+03  0.308E-03    0.58       0.0  T
   2   -958.1302455 -0.300885E-05  0.167E-03    0.58       2.6  T
   3   -958.1302459 -0.325341E-06  0.101E-03    0.58       4.4  T
   4   -958.1302460 -0.105218E-06  0.792E-04    0.58       5.6  T
   5   -958.1302468 -0.885702E-06  0.228E-04    0.58      19.4  T
   6   -958.1302469 -0.621170E-07  0.107E-04    0.58      41.2  T
   7   -958.1302469 -0.256775E-07  0.230E-05    0.58     192.1  T
     SCC iter.                  ...        0 min, 10.394 sec
     gradient                   ...        0 min,  1.688 sec
 * total energy  :  -944.1215859 Eh     change       -0.1404322E-02 Eh
   gradient norm :     0.0238806 Eh/a0  converged?    E=F G=F D=F
   step length   :     0.7169596 a0

........................................................................
.............................. CYCLE   24 ..............................
........................................................................
   1   -958.1438063 -0.958144E+03  0.299E-03    0.58       0.0  T
   2   -958.1438090 -0.263897E-05  0.158E-03    0.58       2.8  T
   3   -958.1438098 -0.800817E-06  0.909E-04    0.58       4.9  T
   4   -958.1438100 -0.205911E-06  0.669E-04    0.58       6.6  T
   5   -958.1438104 -0.478114E-06  0.237E-04    0.58      18.6  T
   6   -958.1438105 -0.896462E-07  0.982E-05    0.58      45.0  T
   7   -958.1438105 -0.213341E-07  0.246E-05    0.58     180.0  T
     SCC iter.                  ...        0 min, 10.408 sec
     gradient                   ...        0 min,  1.658 sec
 * total energy  :  -944.1233351 Eh     change       -0.1749210E-02 Eh
   gradient norm :     0.0238117 Eh/a0  converged?    E=F G=F D=F
   step length   :     1.7015838 a0

........................................................................
.............................. CYCLE   25 ..............................
........................................................................
   1   -958.1462015 -0.958146E+03  0.250E-03    0.57       0.0  T
   2   -958.1462032 -0.174378E-05  0.143E-03    0.57       3.1  T
   3   -958.1462043 -0.104318E-05  0.682E-04    0.57       6.5  T
   4   -958.1462043 -0.413205E-07  0.547E-04    0.57       8.1  T
   5   -958.1462046 -0.296314E-06  0.204E-04    0.57      21.6  T
   6   -958.1462047 -0.705923E-07  0.689E-05    0.57      64.1  T
   7   -958.1462047 -0.995806E-08  0.214E-05    0.57     206.2  T
     SCC iter.                  ...        0 min, 10.423 sec
     gradient                   ...        0 min,  1.674 sec
 * total energy  :  -944.1249547 Eh     change       -0.1619587E-02 Eh
   gradient norm :     0.0209770 Eh/a0  converged?    E=F G=F D=F
   step length   :     2.5662940 a0

........................................................................
.............................. CYCLE   26 ..............................
........................................................................
   1   -958.1429652 -0.958143E+03  0.221E-03    0.57       0.0  T
   2   -958.1429665 -0.135363E-05  0.129E-03    0.57       3.4  T
   3   -958.1429674 -0.892796E-06  0.612E-04    0.57       7.2  T
   4   -958.1429674 -0.244097E-08  0.486E-04    0.57       9.1  T
   5   -958.1429677 -0.247975E-06  0.169E-04    0.57      26.1  T
   6   -958.1429677 -0.464546E-07  0.634E-05    0.57      69.7  T
     SCC iter.                  ...        0 min,  8.983 sec
     gradient                   ...        0 min,  1.674 sec
 * total energy  :  -944.1265034 Eh     change       -0.1548687E-02 Eh
   gradient norm :     0.0184335 Eh/a0  converged?    E=F G=F D=F
   step length   :     3.3851425 a0

........................................................................
.............................. CYCLE   27 ..............................
........................................................................
   1   -958.1360598 -0.958136E+03  0.213E-03    0.57       0.0  T
   2   -958.1360610 -0.127158E-05  0.125E-03    0.57       3.5  T
   3   -958.1360618 -0.762987E-06  0.625E-04    0.57       7.1  T
   4   -958.1360618  0.325474E-07  0.489E-04    0.57       9.0  T
   5   -958.1360621 -0.290282E-06  0.158E-04    0.57      27.9  T
   6   -958.1360621 -0.366675E-07  0.669E-05    0.57      66.0  T
     SCC iter.                  ...        0 min,  8.925 sec
     gradient                   ...        0 min,  1.673 sec
 * total energy  :  -944.1280180 Eh     change       -0.1514620E-02 Eh
   gradient norm :     0.0171551 Eh/a0  converged?    E=F G=F D=F
   step length   :     3.9947094 a0

........................................................................
.............................. CYCLE   28 ..............................
........................................................................
   1   -958.1272030 -0.958127E+03  0.205E-03    0.57       0.0  T
   2   -958.1272040 -0.109608E-05  0.119E-03    0.57       3.7  T
   3   -958.1272046 -0.592828E-06  0.640E-04    0.57       6.9  T
   4   -958.1272046  0.118654E-07  0.474E-04    0.57       9.3  T
   5   -958.1272049 -0.298361E-06  0.140E-04    0.57      31.5  T
   6   -958.1272050 -0.250129E-07  0.676E-05    0.57      65.4  T
     SCC iter.                  ...        0 min,  8.924 sec
     gradient                   ...        0 min,  1.663 sec
 * total energy  :  -944.1295062 Eh     change       -0.1488272E-02 Eh
   gradient norm :     0.0171314 Eh/a0  converged?    E=F G=F D=F
   step length   :     4.3671365 a0

........................................................................
.............................. CYCLE   29 ..............................
........................................................................
   1   -958.1173059 -0.958117E+03  0.201E-03    0.57       0.0  T
   2   -958.1173069 -0.100367E-05  0.114E-03    0.57       3.9  T
   3   -958.1173073 -0.428887E-06  0.658E-04    0.57       6.7  T
   4   -958.1173073 -0.340963E-07  0.458E-04    0.57       9.6  T
   5   -958.1173076 -0.293778E-06  0.129E-04    0.57      34.1  T
   6   -958.1173076 -0.185906E-07  0.670E-05    0.57      66.0  T
     SCC iter.                  ...        0 min,  8.967 sec
     gradient                   ...        0 min,  1.684 sec
 * total energy  :  -944.1309675 Eh     change       -0.1461287E-02 Eh
   gradient norm :     0.0179312 Eh/a0  converged?    E=F G=F D=F
   step length   :     4.5320261 a0

........................................................................
.............................. CYCLE   30 ..............................
........................................................................
   1   -958.1071561 -0.958107E+03  0.194E-03    0.57       0.0  T
   2   -958.1071570 -0.875974E-06  0.108E-03    0.57       4.1  T
   3   -958.1071573 -0.279733E-06  0.662E-04    0.57       6.7  T
   4   -958.1071574 -0.103565E-06  0.428E-04    0.57      10.3  T
   5   -958.1071577 -0.259763E-06  0.118E-04    0.57      37.4  T
   6   -958.1071577 -0.141870E-07  0.628E-05    0.57      70.4  T
     SCC iter.                  ...        0 min,  8.960 sec
     gradient                   ...        0 min,  1.666 sec
 * total energy  :  -944.1323911 Eh     change       -0.1423618E-02 Eh
   gradient norm :     0.0189219 Eh/a0  converged?    E=F G=F D=F
   step length   :     4.5816934 a0

........................................................................
.............................. CYCLE   31 ..............................
........................................................................
   1   -958.0972078 -0.958097E+03  0.187E-03    0.57       0.0  T
   2   -958.0972085 -0.772477E-06  0.101E-03    0.57       4.4  T
   3   -958.0972087 -0.175074E-06  0.654E-04    0.57       6.8  T
   4   -958.0972089 -0.161299E-06  0.396E-04    0.57      11.2  T
   5   -958.0972091 -0.217944E-06  0.111E-04    0.57      39.9  T
   6   -958.0972091 -0.124388E-07  0.575E-05    0.57      76.9  T
     SCC iter.                  ...        0 min,  8.957 sec
     gradient                   ...        0 min,  1.690 sec
 * total energy  :  -944.1337645 Eh     change       -0.1373382E-02 Eh
   gradient norm :     0.0197625 Eh/a0  converged?    E=F G=F D=F
   step length   :     4.5794603 a0

........................................................................
.............................. CYCLE   32 ..............................
........................................................................
   1   -958.0878702 -0.958088E+03  0.178E-03    0.57       0.0  T
   2   -958.0878708 -0.672259E-06  0.953E-04    0.57       4.6  T
   3   -958.0878710 -0.131294E-06  0.633E-04    0.57       7.0  T
   4   -958.0878712 -0.194373E-06  0.362E-04    0.57      12.2  T
   5   -958.0878713 -0.173689E-06  0.106E-04    0.57      41.8  T
   6   -958.0878714 -0.122654E-07  0.519E-05    0.57      85.1  T
     SCC iter.                  ...        0 min,  8.934 sec
     gradient                   ...        0 min,  1.659 sec
 * total energy  :  -944.1350777 Eh     change       -0.1313199E-02 Eh
   gradient norm :     0.0201980 Eh/a0  converged?    E=F G=F D=F
   step length   :     4.5806787 a0

........................................................................
.............................. CYCLE   33 ..............................
........................................................................
   1   -958.0793480 -0.958079E+03  0.168E-03    0.57       0.0  T
   2   -958.0793486 -0.589405E-06  0.899E-04    0.57       4.9  T
   3   -958.0793487 -0.138268E-06  0.599E-04    0.57       7.4  T
   4   -958.0793489 -0.195784E-06  0.333E-04    0.57      13.3  T
   5   -958.0793490 -0.137199E-06  0.104E-04    0.57      42.6  T
   6   -958.0793490 -0.129685E-07  0.468E-05    0.57      94.5  T
     SCC iter.                  ...        0 min,  8.929 sec
     gradient                   ...        0 min,  1.666 sec
 * total energy  :  -944.1363268 Eh     change       -0.1249116E-02 Eh
   gradient norm :     0.0202054 Eh/a0  converged?    E=F G=F D=F
   step length   :     4.6152215 a0

........................................................................
.............................. CYCLE   34 ..............................
........................................................................
   1   -958.0718905 -0.958072E+03  0.158E-03    0.58       0.0  T
   2   -958.0718910 -0.527662E-06  0.855E-04    0.58       5.2  T
   3   -958.0718912 -0.181176E-06  0.559E-04    0.58       7.9  T
   4   -958.0718914 -0.178075E-06  0.308E-04    0.58      14.3  T
   5   -958.0718915 -0.107782E-06  0.104E-04    0.58      42.6  T
   6   -958.0718915 -0.143829E-07  0.421E-05    0.58     104.9  T
     SCC iter.                  ...        0 min,  8.956 sec
     gradient                   ...        0 min,  1.669 sec
 * total energy  :  -944.1375154 Eh     change       -0.1188516E-02 Eh
   gradient norm :     0.0197615 Eh/a0  converged?    E=F G=F D=F
   step length   :     4.7044030 a0

........................................................................
.............................. CYCLE   35 ..............................
........................................................................
   1   -958.0654583 -0.958065E+03  0.148E-03    0.58       0.0  T
   2   -958.0654588 -0.476786E-06  0.816E-04    0.58       5.4  T
   3   -958.0654590 -0.232865E-06  0.515E-04    0.58       8.6  T
   4   -958.0654592 -0.153178E-06  0.287E-04    0.58      15.4  T
   5   -958.0654593 -0.852741E-07  0.104E-04    0.58      42.6  T
   6   -958.0654593 -0.153012E-07  0.382E-05    0.58     115.8  T
     SCC iter.                  ...        0 min,  8.936 sec
     gradient                   ...        0 min,  1.683 sec
 * total energy  :  -944.1386491 Eh     change       -0.1133688E-02 Eh
   gradient norm :     0.0189888 Eh/a0  converged?    E=F G=F D=F
   step length   :     4.8534640 a0

........................................................................
.............................. CYCLE   36 ..............................
........................................................................
   1   -958.0603015 -0.958060E+03  0.140E-03    0.58       0.0  T
   2   -958.0603019 -0.445702E-06  0.785E-04    0.58       5.6  T
   3   -958.0603022 -0.282459E-06  0.475E-04    0.58       9.3  T
   4   -958.0603023 -0.131448E-06  0.270E-04    0.58      16.4  T
   5   -958.0603024 -0.671217E-07  0.105E-04    0.58      42.3  T
   6   -958.0603024 -0.163545E-07  0.356E-05    0.58     124.3  T
     SCC iter.                  ...        0 min,  8.946 sec
     gradient                   ...        0 min,  1.664 sec
 * total energy  :  -944.1397391 Eh     change       -0.1090067E-02 Eh
   gradient norm :     0.0178997 Eh/a0  converged?    E=F G=F D=F
   step length   :     5.0454862 a0

........................................................................
.............................. CYCLE   37 ..............................
........................................................................
   1   -958.0559214 -0.958056E+03  0.131E-03    0.58       0.0  T
   2   -958.0559218 -0.407573E-06  0.754E-04    0.58       5.9  T
   3   -958.0559222 -0.319701E-06  0.435E-04    0.58      10.2  T
   4   -958.0559223 -0.111932E-06  0.252E-04    0.58      17.5  T
   5   -958.0559223 -0.535293E-07  0.103E-04    0.58      43.0  T
   6   -958.0559223 -0.160777E-07  0.332E-05    0.58     132.9  T
     SCC iter.                  ...        0 min,  8.919 sec
     gradient                   ...        0 min,  1.664 sec
 * total energy  :  -944.1407883 Eh     change       -0.1049167E-02 Eh
   gradient norm :     0.0166989 Eh/a0  converged?    E=F G=F D=F
   step length   :     5.2807350 a0

........................................................................
.............................. CYCLE   38 ..............................
........................................................................
   1   -958.0532241 -0.958053E+03  0.127E-03    0.58       0.0  T
   2   -958.0532245 -0.407251E-06  0.736E-04    0.58       6.0  T
   3   -958.0532248 -0.340676E-06  0.414E-04    0.58      10.7  T
   4   -958.0532249 -0.105458E-06  0.243E-04    0.58      18.2  T
   5   -958.0532250 -0.436734E-07  0.104E-04    0.58      42.6  T
   6   -958.0532250 -0.166143E-07  0.328E-05    0.58     134.9  T
     SCC iter.                  ...        0 min,  8.896 sec
     gradient                   ...        0 min,  1.674 sec
 * total energy  :  -944.1418129 Eh     change       -0.1024582E-02 Eh
   gradient norm :     0.0152673 Eh/a0  converged?    E=F G=F D=F
   step length   :     5.4808855 a0

........................................................................
.............................. CYCLE   39 ..............................
........................................................................
   1   -958.0498515 -0.958050E+03  0.120E-03    0.58       0.0  T
   2   -958.0498519 -0.415150E-06  0.708E-04    0.58       6.2  T
   3   -958.0498522 -0.350095E-06  0.385E-04    0.58      11.5  T
   4   -958.0498523 -0.933228E-07  0.231E-04    0.58      19.2  T
   5   -958.0498524 -0.363434E-07  0.101E-04    0.58      43.6  T
   6   -958.0498524 -0.156012E-07  0.319E-05    0.58     138.6  T
     SCC iter.                  ...        0 min,  8.966 sec
     gradient                   ...        0 min,  1.661 sec
 * total energy  :  -944.1427915 Eh     change       -0.9786368E-03 Eh
   gradient norm :     0.0140951 Eh/a0  converged?    E=F G=F D=F
   step length   :     5.7540190 a0

........................................................................
.............................. CYCLE   40 ..............................
........................................................................
   1   -958.0510932 -0.958051E+03  0.146E-03    0.58       0.0  T
   2   -958.0510940 -0.818218E-06  0.792E-04    0.58       5.6  T
   3   -958.0510943 -0.302627E-06  0.476E-04    0.58       9.3  T
   4   -958.0510945 -0.136337E-06  0.287E-04    0.58      15.4  T
   5   -958.0510945 -0.534843E-07  0.118E-04    0.58      37.3  T
   6   -958.0510946 -0.216187E-07  0.401E-05    0.58     110.1  T
     SCC iter.                  ...        0 min,  8.995 sec
     gradient                   ...        0 min,  1.658 sec
 * total energy  :  -944.1437765 Eh     change       -0.9850038E-03 Eh
   gradient norm :     0.0125755 Eh/a0  converged?    E=F G=F D=F
   step length   :     5.8517411 a0

........................................................................
.............................. CYCLE   41 ..............................
........................................................................
   1   -958.0447523 -0.958045E+03  0.170E-03    0.58       0.0  T
   2   -958.0447539 -0.161810E-05  0.870E-04    0.58       5.1  T
   3   -958.0447541 -0.236286E-06  0.543E-04    0.58       8.1  T
   4   -958.0447543 -0.133383E-06  0.357E-04    0.58      12.4  T
   5   -958.0447544 -0.101282E-06  0.131E-04    0.58      33.6  T
   6   -958.0447544 -0.246615E-07  0.492E-05    0.58      89.8  T
     SCC iter.                  ...        0 min,  8.999 sec
     gradient                   ...        0 min,  1.667 sec
 * total energy  :  -944.1446381 Eh     change       -0.8615527E-03 Eh
   gradient norm :     0.0123913 Eh/a0  converged?    E=F G=F D=F
   step length   :     6.8972216 a0

........................................................................
.............................. CYCLE   42 ..............................
........................................................................
   1   -958.0632358 -0.958063E+03  0.322E-03    0.58       0.0  T
   2   -958.0632399 -0.414046E-05  0.164E-03    0.58       2.7  T
   3   -958.0632402 -0.255905E-06  0.107E-03    0.58       4.1  T
   4   -958.0632405 -0.343780E-06  0.725E-04    0.58       6.1  T
   5   -958.0632411 -0.614915E-06  0.208E-04    0.58      21.3  T
   6   -958.0632412 -0.547569E-07  0.981E-05    0.58      45.0  T
   7   -958.0632412 -0.208611E-07  0.236E-05    0.58     187.1  T
     SCC iter.                  ...        0 min, 10.393 sec
     gradient                   ...        0 min,  1.651 sec
 * total energy  :  -944.1460897 Eh     change       -0.1451686E-02 Eh
   gradient norm :     0.0078988 Eh/a0  converged?    E=F G=F D=F
   step length   :     6.6611179 a0
 * RMSD in coord.:     0.8692467 a0     energy gain  -0.3003602E-01 Eh
 * calculating model hessian...
Using Lindh-Hessian (1995)
 Shifting diagonal of input Hessian by    1.0079808865848463E-002
 Lowest  eigenvalues of input Hessian
    0.010000    0.010054    0.010065    0.010072    0.010074    0.010076
    0.010077    0.010077    0.010078    0.010078    0.010079    0.010079
    0.000000    0.000000    0.000000    0.000000    0.000000    0.000000
 Highest eigenvalues
    2.633232    2.634287    2.636183    2.644386    2.645217    2.646972


........................................................................
.............................. CYCLE   43 ..............................
........................................................................
   1   -958.0646104 -0.958065E+03  0.127E-03    0.58       0.0  T
   2   -958.0646111 -0.643784E-06  0.608E-04    0.58       7.3  T
   3   -958.0646111 -0.505754E-07  0.408E-04    0.58      10.8  T
   4   -958.0646112 -0.390056E-07  0.255E-04    0.58      17.3  T
   5   -958.0646112 -0.705757E-07  0.765E-05    0.58      57.7  T
   6   -958.0646113 -0.800821E-08  0.282E-05    0.58     156.8  T
     SCC iter.                  ...        0 min,  8.847 sec
     gradient                   ...        0 min,  1.656 sec
 * total energy  :  -944.1465566 Eh     change       -0.4668646E-03 Eh
   gradient norm :     0.0050161 Eh/a0  converged?    E=F G=F D=F
   step length   :     0.1807775 a0

........................................................................
.............................. CYCLE   44 ..............................
........................................................................
   1   -958.0742337 -0.958074E+03  0.502E-03    0.58       0.0  T
   2   -958.0742421 -0.834784E-05  0.232E-03    0.58       1.9  T
   3   -958.0742429 -0.858694E-06  0.164E-03    0.58       2.7  T
   4   -958.0742443 -0.142618E-05  0.938E-04    0.58       4.7  T
   5   -958.0742452 -0.806215E-06  0.341E-04    0.58      13.0  T
   6   -958.0742453 -0.162104E-06  0.133E-04    0.58      33.3  T
   7   -958.0742453 -0.343036E-07  0.488E-05    0.58      90.6  T
     SCC iter.                  ...        0 min, 10.349 sec
     gradient                   ...        0 min,  1.661 sec
 * total energy  :  -944.1479656 Eh     change       -0.1408985E-02 Eh
   gradient norm :     0.0137672 Eh/a0  converged?    E=F G=F D=F
   step length   :     1.1210344 a0

........................................................................
.............................. CYCLE   45 ..............................
........................................................................
   1   -958.0858323 -0.958086E+03  0.193E-03    0.58       0.0  T
   2   -958.0858331 -0.760343E-06  0.107E-03    0.58       4.1  T
   3   -958.0858335 -0.352328E-06  0.723E-04    0.58       6.1  T
   4   -958.0858339 -0.410784E-06  0.408E-04    0.58      10.8  T
   5   -958.0858340 -0.154631E-06  0.148E-04    0.58      29.9  T
   6   -958.0858341 -0.350725E-07  0.567E-05    0.58      78.0  T
     SCC iter.                  ...        0 min,  8.846 sec
     gradient                   ...        0 min,  1.670 sec
 * total energy  :  -944.1486315 Eh     change       -0.6659171E-03 Eh
   gradient norm :     0.0120478 Eh/a0  converged?    E=F G=F D=F
   step length   :     0.6552389 a0

........................................................................
.............................. CYCLE   46 ..............................
........................................................................
   1   -958.0995240 -0.958100E+03  0.300E-03    0.58       0.0  T
   2   -958.0995269 -0.287366E-05  0.166E-03    0.58       2.7  T
   3   -958.0995278 -0.916972E-06  0.108E-03    0.58       4.1  T
   4   -958.0995286 -0.811128E-06  0.639E-04    0.58       6.9  T
   5   -958.0995289 -0.310154E-06  0.258E-04    0.58      17.1  T
   6   -958.0995291 -0.115991E-06  0.958E-05    0.58      46.1  T
   7   -958.0995291 -0.200130E-07  0.319E-05    0.58     138.6  T
     SCC iter.                  ...        0 min, 10.374 sec
     gradient                   ...        0 min,  1.673 sec
 * total energy  :  -944.1494646 Eh     change       -0.8330736E-03 Eh
   gradient norm :     0.0073763 Eh/a0  converged?    E=F G=F D=F
   step length   :     1.0235074 a0

........................................................................
.............................. CYCLE   47 ..............................
........................................................................
   1   -958.1020813 -0.958102E+03  0.230E-03    0.58       0.0  T
   2   -958.1020829 -0.165056E-05  0.131E-03    0.58       3.4  T
   3   -958.1020839 -0.103429E-05  0.759E-04    0.58       5.8  T
   4   -958.1020844 -0.413253E-06  0.452E-04    0.58       9.8  T
   5   -958.1020845 -0.143482E-06  0.149E-04    0.58      29.6  T
   6   -958.1020845 -0.250102E-07  0.775E-05    0.58      57.0  T
     SCC iter.                  ...        0 min,  9.030 sec
     gradient                   ...        0 min,  1.657 sec
 * total energy  :  -944.1500546 Eh     change       -0.5899756E-03 Eh
   gradient norm :     0.0072689 Eh/a0  converged?    E=F G=F D=F
   step length   :     0.8514776 a0

........................................................................
.............................. CYCLE   48 ..............................
........................................................................
   1   -958.0919545 -0.958092E+03  0.228E-03    0.58       0.0  T
   2   -958.0919562 -0.165135E-05  0.131E-03    0.58       3.4  T
   3   -958.0919574 -0.126917E-05  0.732E-04    0.58       6.0  T
   4   -958.0919579 -0.439246E-06  0.415E-04    0.58      10.6  T
   5   -958.0919580 -0.110297E-06  0.141E-04    0.58      31.3  T
   6   -958.0919580 -0.220650E-07  0.746E-05    0.58      59.2  T
     SCC iter.                  ...        0 min,  8.966 sec
     gradient                   ...        0 min,  1.678 sec
 * total energy  :  -944.1505538 Eh     change       -0.4992529E-03 Eh
   gradient norm :     0.0079050 Eh/a0  converged?    E=F G=F D=F
   step length   :     0.8993996 a0

........................................................................
.............................. CYCLE   49 ..............................
........................................................................
   1   -958.0805114 -0.958081E+03  0.217E-03    0.58       0.0  T
   2   -958.0805129 -0.143648E-05  0.121E-03    0.58       3.6  T
   3   -958.0805135 -0.649080E-06  0.757E-04    0.58       5.8  T
   4   -958.0805139 -0.380575E-06  0.442E-04    0.58      10.0  T
   5   -958.0805140 -0.144838E-06  0.168E-04    0.58      26.4  T
   6   -958.0805141 -0.478170E-07  0.662E-05    0.58      66.7  T
     SCC iter.                  ...        0 min,  8.889 sec
     gradient                   ...        0 min,  1.653 sec
 * total energy  :  -944.1509033 Eh     change       -0.3495046E-03 Eh
   gradient norm :     0.0066168 Eh/a0  converged?    E=F G=F D=F
   step length   :     0.6483765 a0

........................................................................
.............................. CYCLE   50 ..............................
........................................................................
   1   -958.0666603 -0.958067E+03  0.217E-03    0.58       0.0  T
   2   -958.0666619 -0.157874E-05  0.110E-03    0.58       4.0  T
   3   -958.0666623 -0.363215E-06  0.719E-04    0.58       6.1  T
   4   -958.0666625 -0.232605E-06  0.404E-04    0.58      10.9  T
   5   -958.0666626 -0.115823E-06  0.158E-04    0.58      28.1  T
   6   -958.0666627 -0.428003E-07  0.622E-05    0.58      71.1  T
     SCC iter.                  ...        0 min,  8.860 sec
     gradient                   ...        0 min,  1.649 sec
 * total energy  :  -944.1512096 Eh     change       -0.3063283E-03 Eh
   gradient norm :     0.0061020 Eh/a0  converged?    E=F G=F D=F
   step length   :     0.5979221 a0

........................................................................
.............................. CYCLE   51 ..............................
........................................................................
   1   -958.0582125 -0.958058E+03  0.301E-03    0.58       0.0  T
   2   -958.0582179 -0.546691E-05  0.135E-03    0.58       3.3  T
   3   -958.0582186 -0.622419E-06  0.827E-04    0.58       5.3  T
   4   -958.0582189 -0.301885E-06  0.514E-04    0.58       8.6  T
   5   -958.0582189 -0.896459E-07  0.257E-04    0.58      17.2  T
   6   -958.0582191 -0.120171E-06  0.870E-05    0.58      50.8  T
   7   -958.0582191 -0.157261E-07  0.272E-05    0.58     162.2  T
     SCC iter.                  ...        0 min, 10.341 sec
     gradient                   ...        0 min,  1.645 sec
 * total energy  :  -944.1515824 Eh     change       -0.3727529E-03 Eh
   gradient norm :     0.0089307 Eh/a0  converged?    E=F G=F D=F
   step length   :     0.6848191 a0

........................................................................
.............................. CYCLE   52 ..............................
........................................................................
   1   -958.0459706 -0.958046E+03  0.284E-03    0.58       0.0  T
   2   -958.0459743 -0.368880E-05  0.145E-03    0.58       3.0  T
   3   -958.0459749 -0.622833E-06  0.912E-04    0.58       4.8  T
   4   -958.0459751 -0.218787E-06  0.590E-04    0.58       7.5  T
   5   -958.0459754 -0.274522E-06  0.228E-04    0.58      19.4  T
   6   -958.0459755 -0.860649E-07  0.932E-05    0.58      47.4  T
   7   -958.0459755 -0.181217E-07  0.292E-05    0.58     151.3  T
     SCC iter.                  ...        0 min, 10.333 sec
     gradient                   ...        0 min,  1.659 sec
 * total energy  :  -944.1520455 Eh     change       -0.4630929E-03 Eh
   gradient norm :     0.0112427 Eh/a0  converged?    E=F G=F D=F
   step length   :     0.9543331 a0

........................................................................
.............................. CYCLE   53 ..............................
........................................................................
   1   -958.0483361 -0.958048E+03  0.197E-03    0.58       0.0  T
   2   -958.0483375 -0.140289E-05  0.108E-03    0.58       4.1  T
   3   -958.0483380 -0.479218E-06  0.650E-04    0.58       6.8  T
   4   -958.0483384 -0.348381E-06  0.430E-04    0.58      10.3  T
   5   -958.0483385 -0.157883E-06  0.151E-04    0.58      29.2  T
   6   -958.0483386 -0.294573E-07  0.663E-05    0.58      66.6  T
     SCC iter.                  ...        0 min,  8.928 sec
     gradient                   ...        0 min,  1.654 sec
 * total energy  :  -944.1526058 Eh     change       -0.5603161E-03 Eh
   gradient norm :     0.0112392 Eh/a0  converged?    E=F G=F D=F
   step length   :     1.1532252 a0

........................................................................
.............................. CYCLE   54 ..............................
........................................................................
   1   -958.0527974 -0.958053E+03  0.167E-03    0.58       0.0  T
   2   -958.0527981 -0.643266E-06  0.923E-04    0.58       4.8  T
   3   -958.0527983 -0.261062E-06  0.608E-04    0.58       7.3  T
   4   -958.0527988 -0.449888E-06  0.372E-04    0.58      11.9  T
   5   -958.0527989 -0.128893E-06  0.126E-04    0.58      35.1  T
   6   -958.0527989 -0.224215E-07  0.543E-05    0.58      81.3  T
     SCC iter.                  ...        0 min,  8.886 sec
     gradient                   ...        0 min,  1.655 sec
 * total energy  :  -944.1531133 Eh     change       -0.5074886E-03 Eh
   gradient norm :     0.0101975 Eh/a0  converged?    E=F G=F D=F
   step length   :     1.6100688 a0

........................................................................
.............................. CYCLE   55 ..............................
........................................................................
   1   -958.0624238 -0.958062E+03  0.210E-03    0.58       0.0  T
   2   -958.0624254 -0.164175E-05  0.105E-03    0.58       4.2  T
   3   -958.0624257 -0.339245E-06  0.649E-04    0.58       6.8  T
   4   -958.0624260 -0.263712E-06  0.460E-04    0.58       9.6  T
   5   -958.0624262 -0.239681E-06  0.152E-04    0.58      29.0  T
   6   -958.0624263 -0.315620E-07  0.678E-05    0.58      65.1  T
     SCC iter.                  ...        0 min,  8.887 sec
     gradient                   ...        0 min,  1.660 sec
 * total energy  :  -944.1535659 Eh     change       -0.4525799E-03 Eh
   gradient norm :     0.0077936 Eh/a0  converged?    E=F G=F D=F
   step length   :     1.6733960 a0

........................................................................
.............................. CYCLE   56 ..............................
........................................................................
   1   -958.0644664 -0.958064E+03  0.155E-03    0.58       0.0  T
   2   -958.0644673 -0.940908E-06  0.762E-04    0.58       5.8  T
   3   -958.0644676 -0.307287E-06  0.478E-04    0.58       9.2  T
   4   -958.0644679 -0.271453E-06  0.271E-04    0.58      16.3  T
   5   -958.0644679 -0.446070E-07  0.140E-04    0.58      31.6  T
   6   -958.0644680 -0.320106E-07  0.443E-05    0.58      99.7  T
     SCC iter.                  ...        0 min,  9.020 sec
     gradient                   ...        0 min,  1.681 sec
 * total energy  :  -944.1538883 Eh     change       -0.3224470E-03 Eh
   gradient norm :     0.0065480 Eh/a0  converged?    E=F G=F D=F
   step length   :     1.6894348 a0

........................................................................
.............................. CYCLE   57 ..............................
........................................................................
   1   -958.0727813 -0.958073E+03  0.220E-03    0.58       0.0  T
   2   -958.0727833 -0.204120E-05  0.103E-03    0.58       4.3  T
   3   -958.0727837 -0.346143E-06  0.595E-04    0.58       7.4  T
   4   -958.0727837 -0.671411E-07  0.432E-04    0.58      10.2  T
   5   -958.0727839 -0.196007E-06  0.170E-04    0.58      26.0  T
   6   -958.0727840 -0.502533E-07  0.630E-05    0.58      70.1  T
     SCC iter.                  ...        0 min,  8.950 sec
     gradient                   ...        0 min,  1.662 sec
 * total energy  :  -944.1541868 Eh     change       -0.2985193E-03 Eh
   gradient norm :     0.0062531 Eh/a0  converged?    E=F G=F D=F
   step length   :     1.4027660 a0

........................................................................
.............................. CYCLE   58 ..............................
........................................................................
   1   -958.0644913 -0.958064E+03  0.154E-03    0.58       0.0  T
   2   -958.0644920 -0.776533E-06  0.767E-04    0.58       5.8  T
   3   -958.0644922 -0.200208E-06  0.497E-04    0.58       8.9  T
   4   -958.0644923 -0.943947E-07  0.303E-04    0.58      14.6  T
   5   -958.0644924 -0.862415E-07  0.138E-04    0.58      32.0  T
   6   -958.0644925 -0.369336E-07  0.440E-05    0.58     100.5  T
     SCC iter.                  ...        0 min,  9.273 sec
     gradient                   ...        0 min,  1.675 sec
 * total energy  :  -944.1543902 Eh     change       -0.2033874E-03 Eh
   gradient norm :     0.0060197 Eh/a0  converged?    E=F G=F D=F
   step length   :     1.5536895 a0

........................................................................
.............................. CYCLE   59 ..............................
........................................................................
   1   -958.0716092 -0.958072E+03  0.260E-03    0.58       0.0  T
   2   -958.0716121 -0.291034E-05  0.119E-03    0.58       3.7  T
   3   -958.0716123 -0.185473E-06  0.757E-04    0.58       5.8  T
   4   -958.0716123  0.739590E-07  0.512E-04    0.58       8.6  T
   5   -958.0716125 -0.277432E-06  0.189E-04    0.58      23.3  T
   6   -958.0716126 -0.712420E-07  0.766E-05    0.58      57.7  T
     SCC iter.                  ...        0 min,  8.931 sec
     gradient                   ...        0 min,  1.669 sec
 * total energy  :  -944.1546298 Eh     change       -0.2395466E-03 Eh
   gradient norm :     0.0095942 Eh/a0  converged?    E=F G=F D=F
   step length   :     1.2818200 a0

........................................................................
.............................. CYCLE   60 ..............................
........................................................................
   1   -958.0586556 -0.958059E+03  0.279E-03    0.58       0.0  T
   2   -958.0586600 -0.442187E-05  0.129E-03    0.58       3.4  T
   3   -958.0586601 -0.137193E-06  0.866E-04    0.58       5.1  T
   4   -958.0586600  0.144602E-06  0.618E-04    0.58       7.2  T
   5   -958.0586605 -0.500128E-06  0.218E-04    0.58      20.3  T
   6   -958.0586606 -0.902204E-07  0.968E-05    0.58      45.7  T
   7   -958.0586606 -0.195486E-07  0.245E-05    0.58     180.5  T
     SCC iter.                  ...        0 min, 10.331 sec
     gradient                   ...        0 min,  1.657 sec
 * total energy  :  -944.1548132 Eh     change       -0.1834343E-03 Eh
   gradient norm :     0.0085023 Eh/a0  converged?    E=F G=F D=F
   step length   :     1.4607605 a0

........................................................................
.............................. CYCLE   61 ..............................
........................................................................
   1   -958.0499135 -0.958050E+03  0.216E-03    0.58       0.0  T
   2   -958.0499158 -0.232375E-05  0.108E-03    0.58       4.1  T
   3   -958.0499161 -0.343201E-06  0.694E-04    0.58       6.4  T
   4   -958.0499163 -0.209297E-06  0.446E-04    0.58       9.9  T
   5   -958.0499165 -0.144431E-06  0.205E-04    0.58      21.5  T
   6   -958.0499166 -0.812282E-07  0.739E-05    0.58      59.8  T
   7   -958.0499166 -0.113023E-07  0.208E-05    0.58     212.4  T
     SCC iter.                  ...        0 min, 10.354 sec
     gradient                   ...        0 min,  1.660 sec
 * total energy  :  -944.1550576 Eh     change       -0.2443700E-03 Eh
   gradient norm :     0.0062512 Eh/a0  converged?    E=F G=F D=F
   step length   :     0.7400115 a0

........................................................................
.............................. CYCLE   62 ..............................
........................................................................
   1   -958.0582387 -0.958058E+03  0.305E-03    0.58       0.0  T
   2   -958.0582426 -0.391927E-05  0.163E-03    0.58       2.7  T
   3   -958.0582438 -0.119052E-05  0.938E-04    0.58       4.7  T
   4   -958.0582441 -0.334361E-06  0.634E-04    0.58       7.0  T
   5   -958.0582445 -0.363614E-06  0.276E-04    0.58      16.0  T
   6   -958.0582446 -0.132136E-06  0.102E-04    0.58      43.1  T
   7   -958.0582447 -0.210248E-07  0.299E-05    0.58     148.0  T
     SCC iter.                  ...        0 min, 10.342 sec
     gradient                   ...        0 min,  1.659 sec
 * total energy  :  -944.1553065 Eh     change       -0.2489454E-03 Eh
   gradient norm :     0.0083064 Eh/a0  converged?    E=F G=F D=F
   step length   :     0.6383562 a0

........................................................................
.............................. CYCLE   63 ..............................
........................................................................
   1   -958.0467030 -0.958047E+03  0.235E-03    0.58       0.0  T
   2   -958.0467047 -0.166321E-05  0.132E-03    0.58       3.3  T
   3   -958.0467051 -0.420251E-06  0.783E-04    0.58       5.6  T
   4   -958.0467050  0.909171E-07  0.534E-04    0.58       8.3  T
   5   -958.0467053 -0.363668E-06  0.174E-04    0.58      25.3  T
   6   -958.0467054 -0.589714E-07  0.625E-05    0.58      70.7  T
     SCC iter.                  ...        0 min,  8.941 sec
     gradient                   ...        0 min,  1.657 sec
 * total energy  :  -944.1554581 Eh     change       -0.1515401E-03 Eh
   gradient norm :     0.0070314 Eh/a0  converged?    E=F G=F D=F
   step length   :     0.5214199 a0

........................................................................
.............................. CYCLE   64 ..............................
........................................................................
   1   -958.0514752 -0.958051E+03  0.248E-03    0.58       0.0  T
   2   -958.0514780 -0.276122E-05  0.110E-03    0.58       4.0  T
   3   -958.0514783 -0.337880E-06  0.698E-04    0.58       6.3  T
   4   -958.0514786 -0.258543E-06  0.441E-04    0.58      10.0  T
   5   -958.0514787 -0.135844E-06  0.182E-04    0.58      24.2  T
   6   -958.0514788 -0.470322E-07  0.722E-05    0.58      61.3  T
     SCC iter.                  ...        0 min,  8.909 sec
     gradient                   ...        0 min,  1.658 sec
 * total energy  :  -944.1556251 Eh     change       -0.1670782E-03 Eh
   gradient norm :     0.0055607 Eh/a0  converged?    E=F G=F D=F
   step length   :     0.3931200 a0

........................................................................
.............................. CYCLE   65 ..............................
........................................................................
   1   -958.0546814 -0.958055E+03  0.173E-03    0.59       0.0  T
[...]
   272   6 C      280   6 C                                       1.3973721
   279   6 C      280   6 C                                       1.3876410
   271   6 C      281   6 C                                       1.3959969
   281   6 C      282   6 C                                       1.4517659
   282   6 C      283   6 C                                       1.3491982
   281   6 C      284   7 N                                       1.3617167
   283   6 C      285   6 C                                       1.4485689
   284   7 N      285   6 C                                       1.3486797
   285   6 C      286   6 C                                       1.4103273
   286   6 C      287   6 C                                       1.4093006
   287   6 C      288   6 C                                       1.4177794
   288   6 C      289   6 C                                       1.3684744
   289   6 C      290   6 C                                       1.4210192
   287   6 C      291   7 N                                       1.3632739
   290   6 C      291   7 N                                       1.3690456
   290   6 C      292   6 C                                       1.4007890
   293   6 C      294   6 C                                       1.3970522
   294   6 C      295   6 C                                       1.3878046
   295   6 C      296   6 C                                       1.3849166
   296   6 C      297   6 C                                       1.3956942
   298   6 C      299   8 O                                       1.3411146
   298   6 C      300   8 O                                       1.2042001
   293   6 C      301   6 C                                       1.3935373
   297   6 C      301   6 C                                       1.3932792
   292   6 C      302   6 C                                       1.3957407
   302   6 C      303   6 C                                       1.4515351
   303   6 C      304   6 C                                       1.3494098
   265   6 C      305   6 C                                       1.4105763
   304   6 C      305   6 C                                       1.4484770
   302   6 C      306   7 N                                       1.3617215
   305   6 C      306   7 N                                       1.3485770
   267   6 C      307   1 H                                       1.0772661
   268   6 C      308   1 H                                       1.0777010
   270   7 N      309   1 H                                       1.0143956
   273   6 C      310   1 H                                       1.0845085
   276   8 O      311   1 H                                       0.9710114
   278   6 C      312   1 H                                       1.0832217
   279   6 C      313   1 H                                       1.0841469
   280   6 C      314   1 H                                       1.0843613
   282   6 C      315   1 H                                       1.0778994
   283   6 C      316   1 H                                       1.0776556
   288   6 C      317   1 H                                       1.0772265
   289   6 C      318   1 H                                       1.0776896
   291   7 N      319   1 H                                       1.0143984
   294   6 C      320   1 H                                       1.0842276
   295   6 C      321   1 H                                       1.0839950
   296   6 C      322   1 H                                       1.0841298
   299   8 O      323   1 H                                       0.9710674
   301   6 C      324   1 H                                       1.0836336
   303   6 C      325   1 H                                       1.0779705
   304   6 C      326   1 H                                       1.0776184
   327   6 C      328   6 C                                       1.4092873
   328   6 C      329   6 C                                       1.4178391
   329   6 C      330   6 C                                       1.3684586
   330   6 C      331   6 C                                       1.4211234
   328   6 C      332   7 N                                       1.3634204
   331   6 C      332   7 N                                       1.3690354
   331   6 C      333   6 C                                       1.4009008
   334   6 C      335   6 C                                       1.3925296
   335   6 C      336   6 C                                       1.3940633
   337   6 C      338   8 O                                       1.3410318
   337   6 C      339   8 O                                       1.2042331
   336   6 C      340   6 C                                       1.3948540
   340   6 C      341   6 C                                       1.3860263
   334   6 C      342   6 C                                       1.3973663
   341   6 C      342   6 C                                       1.3876738
   333   6 C      343   6 C                                       1.3960190
   343   6 C      344   6 C                                       1.4517001
   344   6 C      345   6 C                                       1.3492285
   343   6 C      346   7 N                                       1.3616654
   345   6 C      347   6 C                                       1.4485762
   346   7 N      347   6 C                                       1.3487075
   347   6 C      348   6 C                                       1.4101875
   348   6 C      349   6 C                                       1.4093505
   349   6 C      350   6 C                                       1.4177444
   350   6 C      351   6 C                                       1.3684946
   351   6 C      352   6 C                                       1.4210021
   349   6 C      353   7 N                                       1.3633030
   352   6 C      353   7 N                                       1.3689912
   352   6 C      354   6 C                                       1.4008829
   355   6 C      356   6 C                                       1.3970349
   356   6 C      357   6 C                                       1.3878205
   357   6 C      358   6 C                                       1.3849217
   358   6 C      359   6 C                                       1.3956919
   360   6 C      361   8 O                                       1.3411572
   360   6 C      362   8 O                                       1.2041956
   355   6 C      363   6 C                                       1.3935556
   359   6 C      363   6 C                                       1.3932607
   354   6 C      364   6 C                                       1.3956237
   364   6 C      365   6 C                                       1.4515447
   365   6 C      366   6 C                                       1.3494029
   327   6 C      367   6 C                                       1.4104953
   366   6 C      367   6 C                                       1.4485556
   364   6 C      368   7 N                                       1.3618517
   367   6 C      368   7 N                                       1.3484425
   329   6 C      369   1 H                                       1.0772415
   330   6 C      370   1 H                                       1.0776944
   332   7 N      371   1 H                                       1.0143845
   335   6 C      372   1 H                                       1.0845241
   338   8 O      373   1 H                                       0.9710217
   340   6 C      374   1 H                                       1.0832318
   341   6 C      375   1 H                                       1.0841606
   342   6 C      376   1 H                                       1.0843571
   344   6 C      377   1 H                                       1.0779113
   345   6 C      378   1 H                                       1.0776606
   350   6 C      379   1 H                                       1.0772260
   351   6 C      380   1 H                                       1.0776927
   353   7 N      381   1 H                                       1.0143963
   356   6 C      382   1 H                                       1.0842230
   357   6 C      383   1 H                                       1.0839972
   358   6 C      384   1 H                                       1.0841309
   361   8 O      385   1 H                                       0.9710728
   363   6 C      386   1 H                                       1.0836373
   365   6 C      387   1 H                                       1.0779760
   366   6 C      388   1 H                                       1.0776634
   389   6 C      390   6 C                                       1.4091032
   390   6 C      391   6 C                                       1.4180026
   391   6 C      392   6 C                                       1.3683795
   392   6 C      393   6 C                                       1.4211761
   390   6 C      394   7 N                                       1.3634109
   393   6 C      394   7 N                                       1.3691143
   393   6 C      395   6 C                                       1.4007180
   396   6 C      397   6 C                                       1.3925114
   397   6 C      398   6 C                                       1.3940601
   399   6 C      400   8 O                                       1.3410484
   399   6 C      401   8 O                                       1.2042588
   398   6 C      402   6 C                                       1.3948570
   402   6 C      403   6 C                                       1.3860333
   396   6 C      404   6 C                                       1.3973168
   403   6 C      404   6 C                                       1.3876876
   395   6 C      405   6 C                                       1.3961053
   405   6 C      406   6 C                                       1.4518039
   406   6 C      407   6 C                                       1.3491991
   405   6 C      408   7 N                                       1.3614915
   407   6 C      409   6 C                                       1.4486965
   408   7 N      409   6 C                                       1.3487876
   409   6 C      410   6 C                                       1.4098304
   410   6 C      411   6 C                                       1.4090639
   411   6 C      412   6 C                                       1.4178728
   412   6 C      413   6 C                                       1.3685478
   413   6 C      414   6 C                                       1.4210547
   411   6 C      415   7 N                                       1.3632878
   414   6 C      415   7 N                                       1.3689005
   414   6 C      416   6 C                                       1.4009190
   417   6 C      418   6 C                                       1.3970998
   418   6 C      419   6 C                                       1.3877921
   419   6 C      420   6 C                                       1.3849189
   420   6 C      421   6 C                                       1.3956915
   422   6 C      423   8 O                                       1.3411257
   422   6 C      424   8 O                                       1.2042352
   417   6 C      425   6 C                                       1.3935453
   421   6 C      425   6 C                                       1.3933053
   416   6 C      426   6 C                                       1.3956999
   426   6 C      427   6 C                                       1.4515952
   427   6 C      428   6 C                                       1.3493623
   389   6 C      429   6 C                                       1.4105783
   428   6 C      429   6 C                                       1.4486022
   426   6 C      430   7 N                                       1.3618603
   429   6 C      430   7 N                                       1.3483833
   391   6 C      431   1 H                                       1.0772564
   392   6 C      432   1 H                                       1.0777043
   394   7 N      433   1 H                                       1.0144001
   397   6 C      434   1 H                                       1.0845132
   400   8 O      435   1 H                                       0.9710334
   402   6 C      436   1 H                                       1.0832327
   403   6 C      437   1 H                                       1.0841589
   404   6 C      438   1 H                                       1.0843582
   406   6 C      439   1 H                                       1.0778906
   407   6 C      440   1 H                                       1.0777708
   412   6 C      441   1 H                                       1.0773805
   413   6 C      442   1 H                                       1.0776988
   415   7 N      443   1 H                                       1.0144104
   418   6 C      444   1 H                                       1.0842281
   419   6 C      445   1 H                                       1.0839978
   420   6 C      446   1 H                                       1.0841318
   423   8 O      447   1 H                                       0.9710836
   425   6 C      448   1 H                                       1.0836330
   427   6 C      449   1 H                                       1.0779698
   428   6 C      450   1 H                                       1.0776618
   451   6 C      452   6 C                                       1.4087603
   452   6 C      453   6 C                                       1.4181989
   453   6 C      454   6 C                                       1.3683280
   454   6 C      455   6 C                                       1.4213393
   452   6 C      456   7 N                                       1.3633235
   455   6 C      456   7 N                                       1.3691417
   455   6 C      457   6 C                                       1.4006378
   458   6 C      459   6 C                                       1.3926769
   459   6 C      460   6 C                                       1.3940142
   461   6 C      462   8 O                                       1.3408676
   461   6 C      463   8 O                                       1.2044400
   460   6 C      464   6 C                                       1.3949048
   464   6 C      465   6 C                                       1.3860379
   458   6 C      466   6 C                                       1.3974080
   465   6 C      466   6 C                                       1.3876559
   457   6 C      467   6 C                                       1.3965801
   467   6 C      468   6 C                                       1.4519020
   468   6 C      469   6 C                                       1.3491576
   467   6 C      470   7 N                                       1.3610851
   469   6 C      471   6 C                                       1.4487934
   470   7 N      471   6 C                                       1.3492291
   471   6 C      472   6 C                                       1.4093029
   472   6 C      473   6 C                                       1.4080324
   473   6 C      474   6 C                                       1.4182293
   474   6 C      475   6 C                                       1.3682352
   475   6 C      476   6 C                                       1.4213197
   473   6 C      477   7 N                                       1.3636575
   476   6 C      477   7 N                                       1.3686258
   476   6 C      478   6 C                                       1.4009335
   479   6 C      480   6 C                                       1.3971118
   480   6 C      481   6 C                                       1.3877925
   481   6 C      482   6 C                                       1.3849665
   482   6 C      483   6 C                                       1.3956538
   484   6 C      485   8 O                                       1.3406246
   484   6 C      486   8 O                                       1.2043877
   479   6 C      487   6 C                                       1.3935162
   483   6 C      487   6 C                                       1.3932883
   478   6 C      488   6 C                                       1.3957082
   488   6 C      489   6 C                                       1.4517199
   489   6 C      490   6 C                                       1.3493638
   451   6 C      491   6 C                                       1.4102651
   490   6 C      491   6 C                                       1.4488640
   488   6 C      492   7 N                                       1.3617382
   491   6 C      492   7 N                                       1.3482838
   453   6 C      493   1 H                                       1.0773787
   454   6 C      494   1 H                                       1.0777048
   456   7 N      495   1 H                                       1.0144030
   459   6 C      496   1 H                                       1.0845254
   462   8 O      497   1 H                                       0.9710166
   464   6 C      498   1 H                                       1.0832178
   465   6 C      499   1 H                                       1.0841518
   466   6 C      500   1 H                                       1.0843624
   468   6 C      501   1 H                                       1.0778567
   469   6 C      502   1 H                                       1.0777973
   474   6 C      503   1 H                                       1.0773947
   475   6 C      504   1 H                                       1.0776892
   477   7 N      505   1 H                                       1.0144078
   480   6 C      506   1 H                                       1.0842339
   481   6 C      507   1 H                                       1.0840238
   482   6 C      508   1 H                                       1.0841252
   485   8 O      509   1 H                                       0.9710431
   487   6 C      510   1 H                                       1.0836138
   489   6 C      511   1 H                                       1.0779796
   490   6 C      512   1 H                                       1.0778143

 * 6 distinct bonds (by element types)

   Z      Z             #   av. dist./Å        max./Å        min./Å
   1 H    6 C         130     1.0809553     1.0852814     1.0771905
   6 C    6 C         261     1.3960192     1.4524906     1.2171130
   1 H    7 N          16     1.0144573     1.0147094     1.0143845
   6 C    7 N          64     1.3606872     1.3700015     1.3482838
   1 H    8 O          16     0.9710330     0.9711029     0.9709524
   6 C    8 O          32     1.2726523     1.3411572     1.2041956


optimized geometry written to: xtbopt.xyz


           -------------------------------------------------
          | TOTAL ENERGY             -944.158409178519 Eh   |
          | GRADIENT NORM               0.000923364685 Eh/α |
          | HOMO-LUMO GAP               0.587888034779 eV   |
           -------------------------------------------------

------------------------------------------------------------------------
 * finished run on 2022/07/27 at 15:04:05.289     
------------------------------------------------------------------------
 total:
 * wall-time:     0 d,  0 h, 26 min, 41.394 sec
 *  cpu-time:     0 d,  0 h, 26 min, 34.596 sec
 * ratio c/w:     0.996 speedup
 SCF:
 * wall-time:     0 d,  0 h,  1 min,  8.330 sec
 *  cpu-time:     0 d,  0 h,  1 min,  8.013 sec
 * ratio c/w:     0.995 speedup
 ANC optimizer:
 * wall-time:     0 d,  0 h, 25 min, 31.981 sec
 *  cpu-time:     0 d,  0 h, 25 min, 25.535 sec
 * ratio c/w:     0.996 speedup

