      -----------------------------------------------------------      
     |                   =====================                   |     
     |                           x T B                           |     
     |                   =====================                   |     
     |                         S. Grimme                         |     
     |          Mulliken Center for Theoretical Chemistry        |     
     |                    University of Bonn                     |     
      -----------------------------------------------------------      

   * xtb version 6.5.1 (b24c23e) compiled by 'conda@728c89f4b128' on 2022-07-12

   xtb is free software: you can redistribute it and/or modify it under
   the terms of the GNU Lesser General Public License as published by
   the Free Software Foundation, either version 3 of the License, or
   (at your option) any later version.
   
   xtb is distributed in the hope that it will be useful,
   but WITHOUT ANY WARRANTY; without even the implied warranty of
   MERCHANTABILITY or FITNESS FOR A PARTICULAR PURPOSE.  See the
   GNU Lesser General Public License for more details.
   
   Cite this work as:
   * C. Bannwarth, E. Caldeweyher, S. Ehlert, A. Hansen, P. Pracht,
     J. Seibert, S. Spicher, S. Grimme, WIREs Comput. Mol. Sci., 2020, 11,
     e01493. DOI: 10.1002/wcms.1493
   
   for GFN2-xTB:
   * C. Bannwarth, S. Ehlert and S. Grimme., J. Chem. Theory Comput., 2019,
     15, 1652-1671. DOI: 10.1021/acs.jctc.8b01176
   for GFN1-xTB:
   * S. Grimme, C. Bannwarth, P. Shushkov, J. Chem. Theory Comput., 2017,
     13, 1989-2009. DOI: 10.1021/acs.jctc.7b00118
   for GFN0-xTB:
   * P. Pracht, E. Caldeweyher, S. Ehlert, S. Grimme, ChemRxiv, 2019, preprint.
     DOI: 10.26434/chemrxiv.8326202.v1
   for GFN-FF:
   * S. Spicher and S. Grimme, Angew. Chem. Int. Ed., 2020, 59, 15665-15673.
     DOI: 10.1002/anie.202004239
   
   for ALPB and GBSA implicit solvation:
   * S. Ehlert, M. Stahn, S. Spicher, S. Grimme, J. Chem. Theory Comput.,
     2021, 17, 4250-4261. DOI: 10.1021/acs.jctc.1c00471
   
   for DFT-D4:
   * E. Caldeweyher, C. Bannwarth and S. Grimme, J. Chem. Phys., 2017,
     147, 034112. DOI: 10.1063/1.4993215
   * E. Caldeweyher, S. Ehlert, A. Hansen, H. Neugebauer, S. Spicher,
     C. Bannwarth and S. Grimme, J. Chem. Phys., 2019, 150, 154122.
     DOI: 10.1063/1.5090222
   * E. Caldeweyher, J.-M. Mewes, S. Ehlert and S. Grimme, Phys. Chem. Chem. Phys.
     2020, 22, 8499-8512. DOI: 10.1039/D0CP00502A
   
   for sTDA-xTB:
   * S. Grimme and C. Bannwarth, J. Chem. Phys., 2016, 145, 054103.
     DOI: 10.1063/1.4959605
   
   in the mass-spec context:
   * V. Asgeirsson, C. Bauer and S. Grimme, Chem. Sci., 2017, 8, 4879.
     DOI: 10.1039/c7sc00601b
   * J. Koopman and S. Grimme, ACS Omega 2019, 4, 12, 15120-15133.
     DOI: 10.1021/acsomega.9b02011
   
   for metadynamics refer to:
   * S. Grimme, J. Chem. Theory Comput., 2019, 155, 2847-2862
     DOI: 10.1021/acs.jctc.9b00143
   
   for SPH calculations refer to:
   * S. Spicher and S. Grimme, J. Chem. Theory Comput., 2021, 17, 1701-1714
     DOI: 10.1021/acs.jctc.0c01306
   
   with help from (in alphabetical order)
   P. Atkinson, C. Bannwarth, F. Bohle, G. Brandenburg, E. Caldeweyher
   M. Checinski, S. Dohm, S. Ehlert, S. Ehrlich, I. Gerasimov, C. Hölzer
   A. Katbashev, J. Koopman, C. Lavigne, S. Lehtola, F. März, M. Müller,
   F. Musil, H. Neugebauer, J. Pisarek, C. Plett, P. Pracht, F. Pultar,
   J. Seibert, P. Shushkov, S. Spicher, M. Stahn, M. Steiner, T. Strunk,
   J. Stückrath, T. Rose, and J. Unsleber
   
 * started run on 2022/07/27 at 15:04:05.357     

           -------------------------------------------------
          |                Calculation Setup                |
           -------------------------------------------------

          program call               : xtb xtbopt.xyz --gfn 1 --vipea
          hostname                   : cx3-5-14.cx3.hpc.ic.ac.uk
          coordinate file            : xtbopt.xyz
          omp threads                :                     1

   ID    Z sym.   atoms
    1    6 C      1-5, 7-11, 14-19, 21-26, 28-34, 37-41, 64-68, 70-74, 77-82,
                  84-89, 91-97, 100-104, 127-145, 147-151, 154-159, 161-166,
                  168-174, 177-181, 203-207, 209-213, 216-221, 223-228,
                  230-236, 239-243, 265-269, 271-275, 278-283, 285-290,
                  292-298, 301-305, 327-331, 333-337, 340-345, 347-352,
                  354-360, 363-367, 389-393, 395-399, 402-407, 409-414,
                  416-422, 425-429, 451-455, 457-461, 464-469, 471-476,
                  478-484, 487-491
    2    7 N      6, 20, 27, 42, 69, 83, 90, 105, 146, 160, 167, 182, 208,
                  222, 229, 244, 270, 284, 291, 306, 332, 346, 353, 368, 394,
                  408, 415, 430, 456, 470, 477, 492
    3    8 O      12, 13, 35, 36, 75, 76, 98, 99, 152, 153, 175, 176, 214,
                  215, 237, 238, 276, 277, 299, 300, 338, 339, 361, 362, 400,
                  401, 423, 424, 462, 463, 485, 486
    4    1 H      43-63, 106-126, 183-202, 245-264, 307-326, 369-388,
                  431-450, 493-512

           -------------------------------------------------
          |                 I P E A - x T B                 |
           -------------------------------------------------

        Reference                      10.1039/c7sc00601b
      * Hamiltonian:
        H0-scaling (s, p, d)           2.150000    2.300000    2.000000
        zeta-weighting                 0.000000
      * Dispersion:
        s8                             2.400000
        a1                             0.630000
        a2                             5.000000
        s9                             0.000000
      * Repulsion:
        kExp                           1.500000
        rExp                           1.000000
      * Coulomb:
        alpha                          1.000000
        third order                    atomic
        anisotropic                    false
      * Halogen bond correction:
        rad-scale                      1.300000
        damping                        0.440000


          ...................................................
          :                      SETUP                      :
          :.................................................:
          :  # basis functions                2074          :
          :  # atomic orbitals                2074          :
          :  # shells                         1374          :
          :  # electrons                      1658          :
          :  # halogen bonds                     0          :
          :  max. iterations                   250          :
          :  Hamiltonian                  GFN1-xTB          :
          :  restarted?                      false          :
          :  GBSA solvation                  false          :
          :  PC potential                    false          :
          :  electronic temp.          300.0000000     K    :
          :  accuracy                    1.0000000          :
          :  -> integral cutoff          0.2500000E+02      :
          :  -> integral neglect         0.1000000E-07      :
          :  -> SCF convergence          0.1000000E-05 Eh   :
          :  -> wf. convergence          0.2000000E-04 e    :
          :  Broyden damping             0.4000000          :
          ...................................................

 iter      E             dE          RMSdq      gap      omega  full diag
   1  -1067.0254559 -0.106703E+04  0.999E+00    0.39       0.0  T
   2  -1068.3663078 -0.134085E+01  0.623E+00    1.06       1.0  T
   3  -1053.3178358  0.150485E+02  0.477E+00    0.08       1.0  T
   4  -1071.8479661 -0.185301E+02  0.123E+00    0.76       1.0  T
   5  -1073.5934978 -0.174553E+01  0.299E-01    0.75       1.0  T
   6  -1073.6960703 -0.102572E+00  0.113E-01    0.81       1.0  T
   7  -1073.7077088 -0.116385E-01  0.469E-02    0.80       1.0  T
   8  -1073.7091461 -0.143729E-02  0.284E-02    0.79       1.0  T
   9  -1073.7093336 -0.187557E-03  0.196E-02    0.79       1.0  T
  10  -1073.7096383 -0.304669E-03  0.515E-03    0.79       1.0  T
  11  -1073.7096590 -0.207315E-04  0.202E-03    0.79       2.2  T
  12  -1073.7096621 -0.312859E-05  0.962E-04    0.79       4.6  T
  13  -1073.7096627 -0.529877E-06  0.575E-04    0.79       7.7  T
  14  -1073.7096629 -0.254207E-06  0.223E-04    0.79      19.9  T
  15  -1073.7096630 -0.522489E-07  0.810E-05    0.79      54.6  T
  16  -1073.7096630 -0.469095E-08  0.400E-05    0.79     110.4  T

   *** convergence criteria satisfied after 16 iterations ***

         #    Occupation            Energy/Eh            Energy/eV
      -------------------------------------------------------------
         1        2.0000           -1.0650844             -28.9824
       ...           ...                  ...                  ...
       823        2.0000           -0.3947791             -10.7425
       824        2.0000           -0.3905788             -10.6282
       825        2.0000           -0.3855580             -10.4916
       826        2.0000           -0.3801258             -10.3437
       827        2.0000           -0.3746260             -10.1941
       828        2.0000           -0.3695207             -10.0552
       829        2.0000           -0.3657460              -9.9525 (HOMO)
       830        0.0000           -0.3366396              -9.1604 (LUMO)
       831                         -0.3317115              -9.0263
       832                         -0.3259903              -8.8706
       833                         -0.3200658              -8.7094
       834                         -0.3151773              -8.5764
       ...                                ...                  ...
      2074                        601.0857867           16356.3768
      -------------------------------------------------------------
                  HL-Gap            0.0291064 Eh            0.7920 eV
             Fermi-level           -0.3511866 Eh           -9.5563 eV

 SCC (total)                   0 d,  0 h,  0 min, 44.917 sec
 SCC setup                      ...        0 min,  0.029 sec (  0.064%)
 Dispersion                     ...        0 min,  0.034 sec (  0.076%)
 classical contributions        ...        0 min,  0.009 sec (  0.020%)
 integral evaluation            ...        0 min,  1.996 sec (  4.444%)
 iterations                     ...        0 min, 38.642 sec ( 86.029%)
 molecular gradient             ...        0 min,  3.754 sec (  8.358%)
 printout                       ...        0 min,  0.453 sec (  1.008%)

         :::::::::::::::::::::::::::::::::::::::::::::::::::::
         ::                     SUMMARY                     ::
         :::::::::::::::::::::::::::::::::::::::::::::::::::::
         :: total energy           -1054.295847265753 Eh    ::
         :: gradient norm              0.159891779941 Eh/a0 ::
         :: HOMO-LUMO gap              0.792025843067 eV    ::
         ::.................................................::
         :: SCC energy             -1073.709662987304 Eh    ::
         :: -> electrostatic           1.053104203929 Eh    ::
         :: repulsion energy          19.876651833879 Eh    ::
         :: dispersion energy         -0.462836112327 Eh    ::
         :: halogen bond corr.         0.000000000000 Eh    ::
         :: add. restraining           0.000000000000 Eh    ::
         :: total charge              -0.000000000000 e     ::
         :::::::::::::::::::::::::::::::::::::::::::::::::::::

           ------------------------------------------------- 
          |        vertical delta SCC IP calculation        |
           ------------------------------------------------- 
   1  -1073.3217081 -0.107332E+04  0.464E-02    0.79       0.0  T
   2  -1073.3123189  0.938922E-02  0.639E-02    0.72       1.0  T
   3  -1073.3200133 -0.769443E-02  0.436E-02    0.76       1.0  T
   4  -1073.3255758 -0.556254E-02  0.257E-02    0.79       1.0  T
   5  -1073.3270054 -0.142958E-02  0.141E-02    0.78       1.0  T
   6  -1073.3271694 -0.164003E-03  0.725E-03    0.78       1.0  T
   7  -1073.3272050 -0.356265E-04  0.431E-03    0.78       1.0  T
   8  -1073.3272416 -0.365992E-04  0.152E-03    0.78       2.9  T
   9  -1073.3272446 -0.295184E-05  0.766E-04    0.78       5.8  T
  10  -1073.3272452 -0.583189E-06  0.358E-04    0.78      12.4  T
  11  -1073.3272453 -0.122123E-06  0.155E-04    0.78      28.5  T
  12  -1073.3272453 -0.274724E-07  0.687E-05    0.78      64.4  T
     SCC iter.                  ...        0 min, 33.528 sec
     gradient                   ...        0 min,  3.784 sec
------------------------------------------------------------------------
empirical IP shift (eV):    4.8455
delta SCC IP (eV):    5.5606
------------------------------------------------------------------------
           ------------------------------------------------- 
          |        vertical delta SCC EA calculation        |
           ------------------------------------------------- 
   1  -1074.0111058 -0.107401E+04  0.789E-02    0.15       0.0  T
   2  -1074.0172706 -0.616479E-02  0.754E-02    0.05       1.0  T
   3  -1074.0256512 -0.838062E-02  0.424E-02    0.11       1.0  T
   4  -1074.0233510  0.230020E-02  0.413E-02    0.11       1.0  T
   5  -1074.0247862 -0.143518E-02  0.329E-02    0.09       1.0  T
   6  -1074.0276067 -0.282050E-02  0.183E-02    0.09       1.0  T
   7  -1074.0286315 -0.102483E-02  0.598E-03    0.08       1.0  T
   8  -1074.0286775 -0.459652E-04  0.242E-03    0.08       1.8  T
   9  -1074.0286832 -0.572608E-05  0.126E-03    0.08       3.5  T
  10  -1074.0286845 -0.132107E-05  0.559E-04    0.08       7.9  T
  11  -1074.0286848 -0.296834E-06  0.275E-04    0.08      16.1  T
  12  -1074.0286849 -0.583759E-07  0.123E-04    0.08      36.0  T
  13  -1074.0286849 -0.880004E-08  0.623E-05    0.08      70.9  T
     SCC iter.                  ...        0 min, 32.463 sec
     gradient                   ...        0 min,  3.795 sec
------------------------------------------------------------------------
empirical EA shift (eV):    4.8455
delta SCC EA (eV):    3.8355
------------------------------------------------------------------------
           -------------------------------------------------
          |                Property Printout                |
           -------------------------------------------------

    * Orbital Energies and Occupations

         #    Occupation            Energy/Eh            Energy/eV
      -------------------------------------------------------------
         1        2.0000           -1.0429656             -28.3805
       ...           ...                  ...                  ...
       818        2.0000           -0.3649105              -9.9297
       819        2.0000           -0.3637934              -9.8993
       820        2.0000           -0.3633796              -9.8881
       821        2.0000           -0.3629971              -9.8777
       822        2.0000           -0.3628609              -9.8739
       823        2.0000           -0.3627251              -9.8703
       824        2.0000           -0.3586187              -9.7585
       825        2.0000           -0.3534796              -9.6187
       826        2.0000           -0.3478714              -9.4661
       827        2.0000           -0.3420698              -9.3082
       828        2.0000           -0.3362900              -9.1509
       829        2.0000           -0.3309481              -9.0056
       830        0.8260           -0.3016331              -8.2079 (HOMO)
       831        0.1732           -0.2986681              -8.1272 (LUMO)
       832        0.0009           -0.2934379              -7.9849
       833        0.0000           -0.2879629              -7.8359
       834        0.0000           -0.2860723              -7.7844
       835        0.0000           -0.2848599              -7.7514
       836                         -0.2819183              -7.6714
       837                         -0.2813379              -7.6556
       838                         -0.2809875              -7.6461
       839                         -0.2792816              -7.5996
       840                         -0.2791193              -7.5952
       841                         -0.2788678              -7.5884
       ...                                ...                  ...
      2074                        601.1185651           16357.2687
      -------------------------------------------------------------
                  HL-Gap            0.0029650 Eh            0.0807 eV
             Fermi-level           -0.3082314 Eh           -8.3874 eV

  Mulliken/CM5 charges         n(s)   n(p)   n(d)
     1C    -0.02137 -0.06220   1.089  2.933  0.000
     2C     0.06286  0.12325   1.105  2.832  0.000
     3C    -0.03387 -0.07919   1.081  2.952  0.000
     4C    -0.03238 -0.07736   1.076  2.956  0.000
     5C     0.06334  0.12730   1.101  2.836  0.000
     6N    -0.15832 -0.51130   1.311  3.847  0.000
     7C     0.00912  0.01489   1.090  2.901  0.000
     8C     0.01117  0.00270   1.086  2.902  0.000
     9C    -0.00747 -0.05666   1.082  2.926  0.000
    10C     0.00813  0.00462   1.088  2.903  0.000
    11C     0.23458  0.28954   1.194  2.571  0.000
    12O    -0.27946 -0.47607   1.680  4.599  0.000
    13O    -0.32744 -0.37728   1.628  4.699  0.000
    14C    -0.01609 -0.06775   1.088  2.928  0.000
    15C    -0.02273 -0.07837   1.087  2.936  0.000
    16C    -0.01488 -0.06822   1.083  2.932  0.000
    17C     0.06006  0.12815   1.118  2.822  0.000
    18C    -0.03597 -0.08203   1.082  2.954  0.000
    19C    -0.03528 -0.08106   1.085  2.950  0.000
    20N    -0.28365 -0.47010   1.293  3.991  0.000
    21C     0.06467  0.13531   1.129  2.806  0.000
    22C     0.01874  0.02586   1.086  2.895  0.000
    23C     0.06687  0.13161   1.110  2.823  0.000
    24C    -0.03002 -0.07478   1.076  2.954  0.000
    25C    -0.03137 -0.07637   1.072  2.959  0.000
    26C     0.06260  0.12598   1.099  2.838  0.000
    27N    -0.15635 -0.50846   1.314  3.842  0.000
    28C     0.00823  0.01402   1.091  2.901  0.000
    29C     0.01025  0.00173   1.086  2.904  0.000
    30C    -0.01399 -0.06738   1.085  2.929  0.000
    31C    -0.02153 -0.07713   1.088  2.934  0.000
    32C    -0.01393 -0.06556   1.091  2.923  0.000
    33C     0.00776  0.00425   1.089  2.904  0.000
    34C     0.23440  0.28938   1.194  2.571  0.000
    35O    -0.27794 -0.47467   1.680  4.598  0.000
    36O    -0.32903 -0.37878   1.628  4.701  0.000
    37C    -0.01076 -0.05992   1.077  2.934  0.000
    38C     0.06109  0.13048   1.121  2.818  0.000
    39C    -0.03756 -0.08354   1.087  2.951  0.000
    40C    -0.03879 -0.08518   1.092  2.946  0.000
    41C     0.05986  0.12560   1.126  2.814  0.000
    42N    -0.28665 -0.47359   1.293  3.994  0.000
    43H     0.03039  0.08941   0.970  0.000  0.000
    44H     0.04103  0.09771   0.959  0.000  0.000
    45H     0.03157  0.09028   0.968  0.000  0.000
    46H     0.16459  0.37281   0.835  0.000  0.000
    47H     0.03925  0.10180   0.961  0.000  0.000
    48H     0.24385  0.41965   0.756  0.000  0.000
    49H     0.04751  0.10874   0.952  0.000  0.000
    50H     0.03791  0.09385   0.962  0.000  0.000
    51H     0.02996  0.08784   0.970  0.000  0.000
    52H     0.02435  0.08324   0.976  0.000  0.000
    53H     0.02229  0.08075   0.978  0.000  0.000
    54H     0.03285  0.09131   0.967  0.000  0.000
    55H     0.03518  0.09408   0.965  0.000  0.000
    56H     0.16246  0.37065   0.838  0.000  0.000
    57H     0.02953  0.08738   0.970  0.000  0.000
    58H     0.03851  0.09444   0.961  0.000  0.000
    59H     0.04661  0.10709   0.953  0.000  0.000
    60H     0.24393  0.41971   0.756  0.000  0.000
    61H     0.04080  0.10414   0.959  0.000  0.000
    62H     0.02268  0.08135   0.977  0.000  0.000
    63H     0.03114  0.08758   0.969  0.000  0.000
    64C    -0.02096 -0.06179   1.089  2.932  0.000
    65C     0.06290  0.12329   1.105  2.832  0.000
    66C    -0.03374 -0.07906   1.082  2.952  0.000
    67C    -0.03230 -0.07724   1.076  2.956  0.000
    68C     0.06350  0.12750   1.101  2.836  0.000
    69N    -0.15813 -0.51113   1.312  3.847  0.000
    70C     0.00941  0.01518   1.090  2.900  0.000
    71C     0.01117  0.00269   1.087  2.902  0.000
    72C    -0.00746 -0.05668   1.081  2.926  0.000
    73C     0.00822  0.00470   1.089  2.903  0.000
    74C     0.23466  0.28964   1.194  2.571  0.000
    75O    -0.27936 -0.47598   1.680  4.599  0.000
    76O    -0.32696 -0.37680   1.628  4.699  0.000
    77C    -0.01603 -0.06769   1.088  2.928  0.000
    78C    -0.02271 -0.07834   1.087  2.936  0.000
    79C    -0.01501 -0.06830   1.083  2.932  0.000
    80C     0.06016  0.12818   1.117  2.822  0.000
    81C    -0.03583 -0.08189   1.082  2.954  0.000
    82C    -0.03518 -0.08097   1.085  2.950  0.000
    83N    -0.28358 -0.47000   1.293  3.990  0.000
    84C     0.06488  0.13559   1.129  2.806  0.000
    85C     0.01900  0.02612   1.086  2.895  0.000
    86C     0.06740  0.13216   1.110  2.823  0.000
    87C    -0.02936 -0.07418   1.075  2.954  0.000
    88C    -0.03075 -0.07578   1.073  2.958  0.000
    89C     0.06290  0.12623   1.099  2.838  0.000
    90N    -0.15610 -0.50817   1.314  3.842  0.000
    91C     0.00867  0.01446   1.091  2.900  0.000
    92C     0.01035  0.00184   1.086  2.904  0.000
    93C    -0.01400 -0.06736   1.083  2.931  0.000
    94C    -0.02108 -0.07666   1.087  2.934  0.000
    95C    -0.01378 -0.06541   1.091  2.923  0.000
    96C     0.00776  0.00425   1.089  2.904  0.000
    97C     0.23427  0.28924   1.195  2.571  0.000
    98O    -0.27800 -0.47479   1.680  4.598  0.000
    99O    -0.32983 -0.37954   1.628  4.702  0.000
   100C    -0.01007 -0.05930   1.079  2.931  0.000
   101C     0.06128  0.13068   1.121  2.818  0.000
   102C    -0.03717 -0.08318   1.086  2.951  0.000
   103C    -0.03846 -0.08486   1.092  2.946  0.000
   104C     0.05994  0.12565   1.126  2.814  0.000
   105N    -0.28627 -0.47319   1.293  3.994  0.000
   106H     0.03060  0.08961   0.969  0.000  0.000
   107H     0.04107  0.09775   0.959  0.000  0.000
   108H     0.03174  0.09045   0.968  0.000  0.000
   109H     0.16467  0.37290   0.835  0.000  0.000
   110H     0.03962  0.10209   0.960  0.000  0.000
   111H     0.24399  0.41977   0.756  0.000  0.000
   112H     0.04757  0.10882   0.952  0.000  0.000
   113H     0.03788  0.09381   0.962  0.000  0.000
   114H     0.02986  0.08772   0.970  0.000  0.000
   115H     0.02511  0.08401   0.975  0.000  0.000
   116H     0.02305  0.08157   0.977  0.000  0.000
   117H     0.03290  0.09154   0.967  0.000  0.000
   118H     0.03428  0.09310   0.966  0.000  0.000
   119H     0.16239  0.37060   0.838  0.000  0.000
   120H     0.03088  0.08876   0.969  0.000  0.000
   121H     0.03974  0.09566   0.960  0.000  0.000
   122H     0.04652  0.10698   0.953  0.000  0.000
   123H     0.24292  0.41874   0.757  0.000  0.000
   124H     0.03996  0.10335   0.960  0.000  0.000
   125H     0.02453  0.08335   0.975  0.000  0.000
   126H     0.03180  0.08824   0.968  0.000  0.000
   127C    -0.02537 -0.02768   1.068  2.957  0.000
   128C    -0.02242 -0.02469   1.071  2.951  0.000
   129C    -0.02490 -0.02705   1.069  2.956  0.000
   130C    -0.02363 -0.02575   1.070  2.953  0.000
   131C    -0.02424 -0.02633   1.069  2.955  0.000
   132C    -0.02408 -0.02617   1.070  2.954  0.000
   133C    -0.02399 -0.02608   1.070  2.954  0.000
   134C    -0.02415 -0.02624   1.069  2.955  0.000
   135C    -0.02384 -0.02593   1.070  2.954  0.000
   136C    -0.02429 -0.02639   1.069  2.955  0.000
   137C    -0.02334 -0.02547   1.070  2.953  0.000
   138C    -0.02469 -0.02681   1.069  2.956  0.000
   139C    -0.02217 -0.02437   1.071  2.951  0.000
   140C    -0.02479 -0.02706   1.068  2.956  0.000
   141C     0.01476  0.02198   1.083  2.903  0.000
   142C     0.06636  0.13110   1.110  2.824  0.000
   143C    -0.03240 -0.07717   1.074  2.959  0.000
   144C    -0.03191 -0.07693   1.073  2.959  0.000
   145C     0.06111  0.12456   1.097  2.842  0.000
   146N    -0.15597 -0.50836   1.313  3.843  0.000
   147C     0.01166  0.01733   1.093  2.896  0.000
   148C     0.01176  0.00322   1.087  2.901  0.000
   149C    -0.00715 -0.05633   1.082  2.925  0.000
   150C     0.00801  0.00449   1.088  2.904  0.000
   151C     0.23448  0.28944   1.195  2.571  0.000
   152O    -0.27989 -0.47648   1.680  4.600  0.000
   153O    -0.32730 -0.37715   1.628  4.699  0.000
   154C    -0.01602 -0.06769   1.088  2.928  0.000
   155C    -0.02229 -0.07794   1.087  2.936  0.000
   156C    -0.01394 -0.06733   1.083  2.931  0.000
   157C     0.05886  0.12683   1.116  2.825  0.000
   158C    -0.03633 -0.08239   1.082  2.954  0.000
   159C    -0.03640 -0.08221   1.084  2.952  0.000
   160N    -0.28299 -0.46916   1.293  3.990  0.000
   161C     0.06461  0.13536   1.129  2.806  0.000
   162C     0.01741  0.02462   1.085  2.897  0.000
   163C     0.06668  0.13147   1.110  2.823  0.000
   164C    -0.03157 -0.07642   1.074  2.957  0.000
   165C    -0.03208 -0.07706   1.073  2.960  0.000
   166C     0.06108  0.12448   1.097  2.842  0.000
   167N    -0.15533 -0.50775   1.314  3.842  0.000
   168C     0.01064  0.01628   1.092  2.897  0.000
   169C     0.01086  0.00226   1.086  2.903  0.000
   170C    -0.01318 -0.06661   1.085  2.928  0.000
   171C    -0.02137 -0.07698   1.087  2.934  0.000
   172C    -0.01385 -0.06548   1.091  2.923  0.000
   173C     0.00778  0.00427   1.089  2.904  0.000
   174C     0.23445  0.28945   1.194  2.571  0.000
   175O    -0.27776 -0.47446   1.680  4.598  0.000
   176O    -0.32916 -0.37891   1.628  4.701  0.000
   177C    -0.01040 -0.05951   1.077  2.934  0.000
   178C     0.05835  0.12647   1.116  2.825  0.000
   179C    -0.03750 -0.08356   1.084  2.954  0.000
   180C    -0.03792 -0.08366   1.085  2.953  0.000
   181C     0.06365  0.13427   1.130  2.807  0.000
   182N    -0.28439 -0.47054   1.292  3.992  0.000
   183H     0.03052  0.08897   0.969  0.000  0.000
   184H     0.03162  0.09051   0.968  0.000  0.000
   185H     0.16216  0.37015   0.838  0.000  0.000
   186H     0.03924  0.10179   0.961  0.000  0.000
   187H     0.24327  0.41906   0.757  0.000  0.000
   188H     0.04686  0.10810   0.953  0.000  0.000
   189H     0.03823  0.09417   0.962  0.000  0.000
   190H     0.03046  0.08838   0.970  0.000  0.000
   191H     0.02275  0.08165   0.977  0.000  0.000
   192H     0.02103  0.07944   0.979  0.000  0.000
   193H     0.03068  0.08922   0.969  0.000  0.000
   194H     0.03264  0.09156   0.967  0.000  0.000
   195H     0.16214  0.37010   0.838  0.000  0.000
   196H     0.02965  0.08756   0.970  0.000  0.000
   197H     0.03844  0.09438   0.962  0.000  0.000
   198H     0.04616  0.10664   0.954  0.000  0.000
   199H     0.24350  0.41925   0.757  0.000  0.000
   200H     0.04089  0.10423   0.959  0.000  0.000
   201H     0.02187  0.08069   0.978  0.000  0.000
   202H     0.01997  0.07831   0.980  0.000  0.000
   203C     0.01556  0.02281   1.084  2.901  0.000
   204C     0.06639  0.13117   1.110  2.823  0.000
   205C    -0.03217 -0.07700   1.074  2.958  0.000
   206C    -0.03201 -0.07707   1.073  2.959  0.000
   207C     0.06095  0.12435   1.097  2.842  0.000
   208N    -0.15559 -0.50813   1.314  3.842  0.000
   209C     0.01163  0.01732   1.093  2.896  0.000
   210C     0.01180  0.00331   1.087  2.902  0.000
   211C    -0.00681 -0.05599   1.082  2.925  0.000
   212C     0.00810  0.00459   1.088  2.903  0.000
   213C     0.23457  0.28955   1.195  2.571  0.000
   214O    -0.27996 -0.47656   1.680  4.600  0.000
   215O    -0.32704 -0.37690   1.628  4.699  0.000
   216C    -0.01604 -0.06770   1.088  2.928  0.000
   217C    -0.02251 -0.07815   1.086  2.936  0.000
   218C    -0.01397 -0.06735   1.083  2.931  0.000
   219C     0.05881  0.12680   1.116  2.825  0.000
   220C    -0.03627 -0.08238   1.082  2.954  0.000
   221C    -0.03655 -0.08239   1.084  2.953  0.000
   222N    -0.28297 -0.46927   1.292  3.991  0.000
   223C     0.06452  0.13523   1.129  2.806  0.000
   224C     0.01679  0.02404   1.085  2.899  0.000
   225C     0.06666  0.13148   1.110  2.823  0.000
   226C    -0.03188 -0.07676   1.074  2.958  0.000
   227C    -0.03199 -0.07703   1.073  2.959  0.000
   228C     0.06077  0.12415   1.097  2.842  0.000
   229N    -0.15531 -0.50788   1.314  3.842  0.000
   230C     0.01110  0.01676   1.093  2.896  0.000
   231C     0.01084  0.00229   1.086  2.903  0.000
   232C    -0.01287 -0.06625   1.085  2.928  0.000
   233C    -0.02114 -0.07674   1.087  2.934  0.000
   234C    -0.01358 -0.06521   1.091  2.923  0.000
   235C     0.00777  0.00425   1.088  2.904  0.000
   236C     0.23442  0.28939   1.194  2.571  0.000
   237O    -0.27789 -0.47462   1.680  4.598  0.000
   238O    -0.32910 -0.37886   1.628  4.701  0.000
   239C    -0.01022 -0.05939   1.077  2.934  0.000
   240C     0.05801  0.12598   1.116  2.826  0.000
   241C    -0.03737 -0.08347   1.083  2.955  0.000
   242C    -0.03762 -0.08347   1.083  2.954  0.000
   243C     0.06396  0.13470   1.129  2.807  0.000
   244N    -0.28354 -0.46986   1.292  3.991  0.000
   245H     0.03039  0.08882   0.970  0.000  0.000
   246H     0.03127  0.09011   0.969  0.000  0.000
   247H     0.16194  0.37004   0.838  0.000  0.000
   248H     0.03916  0.10182   0.961  0.000  0.000
   249H     0.24328  0.41907   0.757  0.000  0.000
   250H     0.04670  0.10793   0.953  0.000  0.000
   251H     0.03779  0.09373   0.962  0.000  0.000
   252H     0.03052  0.08851   0.969  0.000  0.000
   253H     0.02243  0.08130   0.978  0.000  0.000
   254H     0.02072  0.07912   0.979  0.000  0.000
   255H     0.03033  0.08885   0.970  0.000  0.000
   256H     0.03235  0.09129   0.968  0.000  0.000
   257H     0.16200  0.37012   0.838  0.000  0.000
   258H     0.02967  0.08768   0.970  0.000  0.000
   259H     0.03895  0.09489   0.961  0.000  0.000
   260H     0.04645  0.10692   0.954  0.000  0.000
   261H     0.24305  0.41883   0.757  0.000  0.000
   262H     0.04073  0.10423   0.959  0.000  0.000
   263H     0.02198  0.08073   0.978  0.000  0.000
   264H     0.02016  0.07856   0.980  0.000  0.000
   265C     0.01635  0.02361   1.084  2.899  0.000
   266C     0.06653  0.13133   1.110  2.823  0.000
   267C    -0.03175 -0.07661   1.074  2.958  0.000
   268C    -0.03184 -0.07690   1.073  2.959  0.000
   269C     0.06112  0.12451   1.097  2.842  0.000
   270N    -0.15538 -0.50796   1.314  3.842  0.000
   271C     0.01166  0.01736   1.093  2.896  0.000
   272C     0.01179  0.00331   1.087  2.902  0.000
   273C    -0.00679 -0.05597   1.082  2.925  0.000
   274C     0.00810  0.00458   1.088  2.903  0.000
   275C     0.23458  0.28955   1.195  2.571  0.000
   276O    -0.27995 -0.47654   1.680  4.600  0.000
   277O    -0.32705 -0.37692   1.628  4.699  0.000
   278C    -0.01602 -0.06768   1.088  2.928  0.000
   279C    -0.02249 -0.07813   1.086  2.936  0.000
   280C    -0.01393 -0.06730   1.083  2.931  0.000
   281C     0.05889  0.12686   1.116  2.825  0.000
   282C    -0.03617 -0.08228   1.082  2.954  0.000
   283C    -0.03655 -0.08240   1.083  2.953  0.000
   284N    -0.28292 -0.46925   1.292  3.991  0.000
   285C     0.06457  0.13530   1.129  2.806  0.000
   286C     0.01670  0.02395   1.085  2.899  0.000
   287C     0.06666  0.13149   1.110  2.823  0.000
   288C    -0.03189 -0.07676   1.074  2.958  0.000
   289C    -0.03190 -0.07695   1.073  2.959  0.000
   290C     0.06085  0.12424   1.097  2.842  0.000
   291N    -0.15534 -0.50793   1.314  3.842  0.000
   292C     0.01121  0.01687   1.093  2.896  0.000
   293C     0.01084  0.00229   1.086  2.903  0.000
   294C    -0.01279 -0.06617   1.085  2.928  0.000
   295C    -0.02105 -0.07665   1.087  2.934  0.000
   296C    -0.01353 -0.06516   1.091  2.923  0.000
   297C     0.00776  0.00425   1.088  2.904  0.000
   298C     0.23442  0.28939   1.194  2.571  0.000
   299O    -0.27801 -0.47474   1.680  4.598  0.000
   300O    -0.32905 -0.37880   1.628  4.701  0.000
   301C    -0.01025 -0.05941   1.077  2.934  0.000
   302C     0.05812  0.12608   1.116  2.826  0.000
   303C    -0.03729 -0.08338   1.083  2.955  0.000
   304C    -0.03736 -0.08321   1.084  2.954  0.000
   305C     0.06406  0.13481   1.129  2.807  0.000
   306N    -0.28328 -0.46962   1.292  3.991  0.000
   307H     0.03082  0.08927   0.969  0.000  0.000
   308H     0.03152  0.09035   0.968  0.000  0.000
   309H     0.16196  0.37010   0.838  0.000  0.000
   310H     0.03912  0.10179   0.961  0.000  0.000
   311H     0.24321  0.41901   0.757  0.000  0.000
   312H     0.04669  0.10792   0.953  0.000  0.000
   313H     0.03784  0.09378   0.962  0.000  0.000
   314H     0.03058  0.08858   0.969  0.000  0.000
   315H     0.02241  0.08128   0.978  0.000  0.000
   316H     0.02062  0.07904   0.979  0.000  0.000
   317H     0.03037  0.08886   0.970  0.000  0.000
   318H     0.03241  0.09133   0.968  0.000  0.000
   319H     0.16207  0.37022   0.838  0.000  0.000
   320H     0.02988  0.08788   0.970  0.000  0.000
   321H     0.03912  0.09506   0.961  0.000  0.000
   322H     0.04652  0.10698   0.953  0.000  0.000
   323H     0.24299  0.41877   0.757  0.000  0.000
   324H     0.04070  0.10420   0.959  0.000  0.000
   325H     0.02225  0.08099   0.978  0.000  0.000
   326H     0.02052  0.07895   0.979  0.000  0.000
   327C     0.01658  0.02384   1.085  2.899  0.000
   328C     0.06662  0.13143   1.110  2.823  0.000
   329C    -0.03156 -0.07643   1.074  2.958  0.000
   330C    -0.03173 -0.07679   1.073  2.959  0.000
   331C     0.06120  0.12460   1.097  2.841  0.000
   332N    -0.15533 -0.50791   1.314  3.842  0.000
   333C     0.01168  0.01738   1.093  2.896  0.000
   334C     0.01180  0.00331   1.086  2.902  0.000
   335C    -0.00680 -0.05598   1.082  2.925  0.000
   336C     0.00809  0.00457   1.088  2.903  0.000
   337C     0.23458  0.28955   1.195  2.571  0.000
   338O    -0.27994 -0.47652   1.680  4.600  0.000
   339O    -0.32706 -0.37694   1.628  4.699  0.000
   340C    -0.01598 -0.06765   1.088  2.928  0.000
   341C    -0.02244 -0.07808   1.086  2.936  0.000
   342C    -0.01391 -0.06728   1.083  2.931  0.000
   343C     0.05892  0.12690   1.116  2.825  0.000
   344C    -0.03617 -0.08228   1.082  2.954  0.000
   345C    -0.03661 -0.08245   1.083  2.953  0.000
   346N    -0.28291 -0.46927   1.292  3.991  0.000
   347C     0.06454  0.13527   1.129  2.806  0.000
   348C     0.01659  0.02385   1.084  2.899  0.000
   349C     0.06663  0.13146   1.110  2.823  0.000
   350C    -0.03197 -0.07684   1.074  2.958  0.000
   351C    -0.03192 -0.07696   1.073  2.959  0.000
   352C     0.06085  0.12425   1.097  2.842  0.000
   353N    -0.15532 -0.50791   1.314  3.842  0.000
   354C     0.01124  0.01690   1.093  2.896  0.000
   355C     0.01084  0.00228   1.086  2.903  0.000
   356C    -0.01276 -0.06615   1.085  2.928  0.000
   357C    -0.02102 -0.07662   1.087  2.934  0.000
   358C    -0.01352 -0.06515   1.091  2.922  0.000
   359C     0.00775  0.00424   1.088  2.904  0.000
   360C     0.23441  0.28939   1.194  2.571  0.000
   361O    -0.27805 -0.47478   1.680  4.598  0.000
   362O    -0.32905 -0.37880   1.628  4.701  0.000
   363C    -0.01025 -0.05941   1.077  2.934  0.000
   364C     0.05816  0.12610   1.116  2.826  0.000
   365C    -0.03722 -0.08331   1.083  2.955  0.000
   366C    -0.03725 -0.08309   1.084  2.953  0.000
   367C     0.06413  0.13490   1.129  2.806  0.000
   368N    -0.28323 -0.46955   1.292  3.991  0.000
   369H     0.03095  0.08943   0.969  0.000  0.000
   370H     0.03166  0.09050   0.968  0.000  0.000
   371H     0.16198  0.37011   0.838  0.000  0.000
   372H     0.03909  0.10177   0.961  0.000  0.000
   373H     0.24318  0.41898   0.757  0.000  0.000
   374H     0.04673  0.10795   0.953  0.000  0.000
   375H     0.03792  0.09385   0.962  0.000  0.000
   376H     0.03065  0.08864   0.969  0.000  0.000
   377H     0.02239  0.08125   0.978  0.000  0.000
   378H     0.02057  0.07898   0.979  0.000  0.000
   379H     0.03022  0.08871   0.970  0.000  0.000
   380H     0.03232  0.09124   0.968  0.000  0.000
   381H     0.16210  0.37024   0.838  0.000  0.000
   382H     0.02997  0.08796   0.970  0.000  0.000
   383H     0.03920  0.09513   0.961  0.000  0.000
   384H     0.04653  0.10699   0.953  0.000  0.000
   385H     0.24292  0.41869   0.757  0.000  0.000
   386H     0.04067  0.10417   0.959  0.000  0.000
   387H     0.02235  0.08109   0.978  0.000  0.000
   388H     0.02072  0.07913   0.979  0.000  0.000
   389C     0.01675  0.02399   1.085  2.898  0.000
   390C     0.06663  0.13144   1.110  2.823  0.000
   391C    -0.03148 -0.07634   1.074  2.957  0.000
   392C    -0.03175 -0.07680   1.073  2.959  0.000
   393C     0.06124  0.12462   1.097  2.841  0.000
   394N    -0.15532 -0.50787   1.314  3.842  0.000
   395C     0.01162  0.01732   1.092  2.896  0.000
   396C     0.01180  0.00331   1.086  2.902  0.000
   397C    -0.00685 -0.05604   1.082  2.925  0.000
   398C     0.00808  0.00456   1.088  2.904  0.000
   399C     0.23455  0.28952   1.195  2.571  0.000
   400O    -0.27991 -0.47648   1.680  4.600  0.000
   401O    -0.32724 -0.37712   1.628  4.699  0.000
   402C    -0.01596 -0.06763   1.088  2.928  0.000
   403C    -0.02239 -0.07802   1.087  2.936  0.000
   404C    -0.01389 -0.06724   1.083  2.931  0.000
   405C     0.05895  0.12696   1.116  2.825  0.000
   406C    -0.03619 -0.08230   1.082  2.954  0.000
   407C    -0.03674 -0.08256   1.083  2.953  0.000
   408N    -0.28308 -0.46940   1.292  3.991  0.000
   409C     0.06451  0.13522   1.129  2.806  0.000
   410C     0.01608  0.02333   1.084  2.900  0.000
   411C     0.06659  0.13141   1.110  2.823  0.000
   412C    -0.03221 -0.07704   1.074  2.958  0.000
   413C    -0.03201 -0.07705   1.073  2.959  0.000
   414C     0.06075  0.12417   1.097  2.842  0.000
   415N    -0.15539 -0.50800   1.314  3.842  0.000
   416C     0.01126  0.01692   1.093  2.896  0.000
   417C     0.01085  0.00230   1.086  2.903  0.000
   418C    -0.01273 -0.06612   1.085  2.927  0.000
   419C    -0.02100 -0.07660   1.087  2.934  0.000
   420C    -0.01353 -0.06516   1.091  2.922  0.000
   421C     0.00771  0.00420   1.088  2.904  0.000
   422C     0.23438  0.28935   1.194  2.571  0.000
   423O    -0.27808 -0.47481   1.680  4.598  0.000
   424O    -0.32914 -0.37889   1.628  4.701  0.000
   425C    -0.01027 -0.05943   1.076  2.934  0.000
   426C     0.05813  0.12606   1.116  2.826  0.000
   427C    -0.03724 -0.08334   1.083  2.955  0.000
   428C    -0.03720 -0.08305   1.084  2.953  0.000
   429C     0.06418  0.13496   1.129  2.806  0.000
   430N    -0.28314 -0.46949   1.292  3.991  0.000
   431H     0.03108  0.08956   0.969  0.000  0.000
   432H     0.03174  0.09056   0.968  0.000  0.000
   433H     0.16197  0.37009   0.838  0.000  0.000
   434H     0.03901  0.10169   0.961  0.000  0.000
   435H     0.24312  0.41891   0.757  0.000  0.000
   436H     0.04679  0.10801   0.953  0.000  0.000
   437H     0.03803  0.09396   0.962  0.000  0.000
   438H     0.03073  0.08871   0.969  0.000  0.000
   439H     0.02234  0.08122   0.978  0.000  0.000
   440H     0.02041  0.07881   0.980  0.000  0.000
   441H     0.02995  0.08841   0.970  0.000  0.000
   442H     0.03211  0.09103   0.968  0.000  0.000
   443H     0.16214  0.37025   0.838  0.000  0.000
   444H     0.03000  0.08800   0.970  0.000  0.000
   445H     0.03927  0.09521   0.961  0.000  0.000
   446H     0.04652  0.10698   0.953  0.000  0.000
   447H     0.24276  0.41853   0.757  0.000  0.000
   448H     0.04062  0.10412   0.959  0.000  0.000
   449H     0.02238  0.08114   0.978  0.000  0.000
   450H     0.02080  0.07923   0.979  0.000  0.000
   451C     0.01744  0.02469   1.085  2.897  0.000
   452C     0.06670  0.13152   1.110  2.823  0.000
   453C    -0.03111 -0.07594   1.074  2.957  0.000
   454C    -0.03160 -0.07667   1.073  2.959  0.000
   455C     0.06158  0.12495   1.098  2.841  0.000
   456N    -0.15516 -0.50771   1.314  3.841  0.000
   457C     0.01140  0.01711   1.092  2.896  0.000
   458C     0.01166  0.00319   1.086  2.902  0.000
   459C    -0.00698 -0.05619   1.082  2.925  0.000
   460C     0.00815  0.00463   1.088  2.904  0.000
   461C     0.23456  0.28954   1.195  2.571  0.000
   462O    -0.27946 -0.47605   1.680  4.599  0.000
   463O    -0.32799 -0.37784   1.628  4.700  0.000
   464C    -0.01570 -0.06736   1.088  2.928  0.000
   465C    -0.02218 -0.07782   1.087  2.936  0.000
   466C    -0.01378 -0.06714   1.083  2.931  0.000
   467C     0.05933  0.12741   1.117  2.824  0.000
   468C    -0.03573 -0.08187   1.082  2.953  0.000
   469C    -0.03649 -0.08235   1.083  2.953  0.000
   470N    -0.28330 -0.46964   1.292  3.991  0.000
   471C     0.06454  0.13517   1.129  2.806  0.000
   472C     0.01570  0.02294   1.083  2.901  0.000
   473C     0.06659  0.13134   1.110  2.823  0.000
   474C    -0.03204 -0.07688   1.074  2.958  0.000
   475C    -0.03173 -0.07677   1.073  2.959  0.000
   476C     0.06109  0.12455   1.098  2.841  0.000
   477N    -0.15561 -0.50820   1.313  3.842  0.000
   478C     0.01117  0.01684   1.093  2.896  0.000
   479C     0.01081  0.00227   1.086  2.903  0.000
   480C    -0.01279 -0.06618   1.085  2.928  0.000
   481C    -0.02103 -0.07663   1.087  2.934  0.000
   482C    -0.01358 -0.06521   1.091  2.923  0.000
   483C     0.00776  0.00425   1.088  2.904  0.000
   484C     0.23444  0.28945   1.194  2.571  0.000
   485O    -0.27759 -0.47440   1.680  4.598  0.000
   486O    -0.32954 -0.37921   1.628  4.702  0.000
   487C    -0.01023 -0.05939   1.076  2.934  0.000
   488C     0.05837  0.12633   1.116  2.825  0.000
   489C    -0.03718 -0.08328   1.083  2.955  0.000
   490C    -0.03694 -0.08276   1.084  2.953  0.000
   491C     0.06429  0.13509   1.129  2.806  0.000
   492N    -0.28289 -0.46923   1.292  3.990  0.000
   493H     0.03145  0.08990   0.969  0.000  0.000
   494H     0.03198  0.09080   0.968  0.000  0.000
   495H     0.16204  0.37015   0.838  0.000  0.000
   496H     0.03833  0.10105   0.962  0.000  0.000
   497H     0.24305  0.41883   0.757  0.000  0.000
   498H     0.04732  0.10855   0.953  0.000  0.000
   499H     0.03845  0.09439   0.962  0.000  0.000
   500H     0.03098  0.08899   0.969  0.000  0.000
   501H     0.02308  0.08198   0.977  0.000  0.000
   502H     0.02065  0.07903   0.979  0.000  0.000
   503H     0.03016  0.08856   0.970  0.000  0.000
   504H     0.03250  0.09143   0.968  0.000  0.000
   505H     0.16225  0.37036   0.838  0.000  0.000
   506H     0.03003  0.08803   0.970  0.000  0.000
   507H     0.03935  0.09528   0.961  0.000  0.000
   508H     0.04651  0.10696   0.953  0.000  0.000
   509H     0.24282  0.41856   0.757  0.000  0.000
   510H     0.04100  0.10453   0.959  0.000  0.000
   511H     0.02252  0.08126   0.977  0.000  0.000
   512H     0.02115  0.07954   0.979  0.000  0.000

Wiberg/Mayer (AO) data.
largest (>0.10) Wiberg bond orders for each atom

 ---------------------------------------------------------------------------
     #   Z sym  total        # sym  WBO       # sym  WBO       # sym  WBO
 ---------------------------------------------------------------------------
     1   6 C    3.817 --    41 C    1.385     2 C    1.374    43 H    0.996
     2   6 C    3.925 --     1 C    1.374     3 C    1.239     6 N    1.229
     3   6 C    3.840 --     4 C    1.601     2 C    1.239    44 H    0.992
     4   6 C    3.825 --     3 C    1.601     5 C    1.249    45 H    0.999
     5   6 C    3.900 --     7 C    1.344     4 C    1.249     6 N    1.230
     6   7 N    3.246 --     5 C    1.230     2 C    1.229    46 H    0.961
     7   6 C    3.840 --    17 C    1.367     5 C    1.344     8 C    1.051
     8   6 C    3.895 --     9 C    1.437    16 C    1.418     7 C    1.051
     9   6 C    3.849 --     8 C    1.437    10 C    1.410    47 H    0.994
    10   6 C    3.908 --     9 C    1.410    14 C    1.401    11 C    1.035
    11   6 C    4.097 --    13 O    1.821    12 O    1.211    10 C    1.035
    12   8 O    2.366 --    11 C    1.211    48 H    0.943    13 O    0.184
    13   8 O    2.035 --    11 C    1.821    12 O    0.184
    14   6 C    3.887 --    15 C    1.454    10 C    1.401    49 H    0.986
    15   6 C    3.908 --    14 C    1.454    16 C    1.445    50 H    0.981
    16   6 C    3.863 --    15 C    1.445     8 C    1.418    51 H    0.989
    17   6 C    3.925 --     7 C    1.367    20 N    1.359    18 C    1.161
    18   6 C    3.832 --    19 C    1.693    17 C    1.161    52 H    0.997
    19   6 C    3.835 --    18 C    1.693    21 C    1.166    53 H    0.999
    20   7 N    2.567 --    21 C    1.413    17 C    1.359
    21   6 C    3.944 --    20 N    1.413    22 C    1.294    19 C    1.166
    22   6 C    3.848 --    23 C    1.295    21 C    1.294   127 C    1.204
    23   6 C    3.905 --    22 C    1.295    24 C    1.266    27 N    1.249
    24   6 C    3.820 --    25 C    1.588    23 C    1.266    54 H    0.998
    25   6 C    3.811 --    24 C    1.588    26 C    1.256    55 H    0.997
    26   6 C    3.893 --    28 C    1.346    25 C    1.256    27 N    1.226
    27   7 N    3.258 --    23 C    1.249    26 C    1.226    56 H    0.960
    28   6 C    3.827 --    38 C    1.359    26 C    1.346    29 C    1.049
    29   6 C    3.895 --    37 C    1.437    30 C    1.418    28 C    1.049
    30   6 C    3.867 --    31 C    1.445    29 C    1.418    57 H    0.989
    31   6 C    3.908 --    32 C    1.455    30 C    1.445    58 H    0.981
    32   6 C    3.891 --    31 C    1.455    33 C    1.403    59 H    0.986
    33   6 C    3.909 --    37 C    1.408    32 C    1.403    34 C    1.035
    34   6 C    4.097 --    36 O    1.819    35 O    1.213    33 C    1.035
    35   8 O    2.368 --    34 C    1.213    60 H    0.942    36 O    0.184
    36   8 O    2.032 --    34 C    1.819    35 O    0.184
    37   6 C    3.841 --    29 C    1.437    33 C    1.408    61 H    0.995
    38   6 C    3.947 --    42 N    1.381    28 C    1.359    39 C    1.152
    39   6 C    3.843 --    40 C    1.709    38 C    1.152    62 H    0.999
    40   6 C    3.864 --    39 C    1.709    41 C    1.146    63 H    0.993
    41   6 C    3.968 --     1 C    1.385    42 N    1.375    40 C    1.146
    42   7 N    2.554 --    38 C    1.381    41 C    1.375
    43   1 H    1.032 --     1 C    0.996
    44   1 H    1.015 --     3 C    0.992
    45   1 H    1.031 --     4 C    0.999
    46   1 H    1.081 --     6 N    0.961
    47   1 H    1.048 --     9 C    0.994
    48   1 H    0.979 --    12 O    0.943
    49   1 H    1.016 --    14 C    0.986
    50   1 H    1.028 --    15 C    0.981
    51   1 H    1.047 --    16 C    0.989
    52   1 H    1.033 --    18 C    0.997
    53   1 H    1.036 --    19 C    0.999
    54   1 H    1.032 --    24 C    0.998
    55   1 H    1.026 --    25 C    0.997
    56   1 H    1.084 --    27 N    0.960
    57   1 H    1.050 --    30 C    0.989
    58   1 H    1.029 --    31 C    0.981
    59   1 H    1.025 --    32 C    0.986
    60   1 H    0.978 --    35 O    0.942
    61   1 H    1.035 --    37 C    0.995
    62   1 H    1.034 --    39 C    0.999
    63   1 H    1.018 --    40 C    0.993
    64   6 C    3.817 --   104 C    1.385    65 C    1.374   106 H    0.996
    65   6 C    3.925 --    64 C    1.374    66 C    1.239    69 N    1.229
    66   6 C    3.841 --    67 C    1.601    65 C    1.239   107 H    0.992
    67   6 C    3.825 --    66 C    1.601    68 C    1.249   108 H    0.999
    68   6 C    3.900 --    70 C    1.344    67 C    1.249    69 N    1.231
    69   7 N    3.246 --    68 C    1.231    65 C    1.229   109 H    0.961
    70   6 C    3.840 --    80 C    1.370    68 C    1.344    71 C    1.048
    71   6 C    3.895 --    72 C    1.439    79 C    1.418    70 C    1.048
    72   6 C    3.849 --    71 C    1.439    73 C    1.409   110 H    0.995
    73   6 C    3.908 --    72 C    1.409    77 C    1.402    74 C    1.034
    74   6 C    4.097 --    76 O    1.822    75 O    1.211    73 C    1.034
    75   8 O    2.366 --    74 C    1.211   111 H    0.943    76 O    0.184
    76   8 O    2.035 --    74 C    1.822    75 O    0.184
    77   6 C    3.887 --    78 C    1.454    73 C    1.402   112 H    0.986
    78   6 C    3.908 --    77 C    1.454    79 C    1.445   113 H    0.981
    79   6 C    3.864 --    78 C    1.445    71 C    1.418   114 H    0.988
    80   6 C    3.924 --    70 C    1.370    83 N    1.358    81 C    1.161
    81   6 C    3.831 --    82 C    1.694    80 C    1.161   115 H    0.998
    82   6 C    3.834 --    81 C    1.694    84 C    1.166   116 H    0.999
    83   7 N    2.567 --    84 C    1.415    80 C    1.358
    84   6 C    3.943 --    83 N    1.415    85 C    1.293    82 C    1.166
    85   6 C    3.849 --    86 C    1.294    84 C    1.293   140 C    1.209
    86   6 C    3.902 --    85 C    1.294    87 C    1.266    90 N    1.250
    87   6 C    3.819 --    88 C    1.588    86 C    1.266   117 H    0.998
    88   6 C    3.814 --    87 C    1.588    89 C    1.256   118 H    0.998
    89   6 C    3.895 --    91 C    1.347    88 C    1.256    90 N    1.225
    90   7 N    3.257 --    86 C    1.250    89 C    1.225   119 H    0.961
    91   6 C    3.827 --   101 C    1.358    89 C    1.347    92 C    1.050
    92   6 C    3.895 --   100 C    1.435    93 C    1.419    91 C    1.050
    93   6 C    3.862 --    94 C    1.444    92 C    1.419   120 H    0.989
    94   6 C    3.907 --    95 C    1.456    93 C    1.444   121 H    0.981
    95   6 C    3.891 --    94 C    1.456    96 C    1.402   122 H    0.986
    96   6 C    3.909 --   100 C    1.409    95 C    1.402    97 C    1.035
    97   6 C    4.098 --    99 O    1.818    98 O    1.213    96 C    1.035
    98   8 O    2.369 --    97 C    1.213   123 H    0.943    99 O    0.184
    99   8 O    2.031 --    97 C    1.818    98 O    0.184
   100   6 C    3.845 --    92 C    1.435    96 C    1.409   124 H    0.995
   101   6 C    3.945 --   105 N    1.382    91 C    1.358   102 C    1.152
   102   6 C    3.840 --   103 C    1.709   101 C    1.152   125 H    0.999
   103   6 C    3.863 --   102 C    1.709   104 C    1.146   126 H    0.993
   104   6 C    3.968 --    64 C    1.385   105 N    1.375   103 C    1.146
   105   7 N    2.555 --   101 C    1.382   104 C    1.375
   106   1 H    1.031 --    64 C    0.996
   107   1 H    1.015 --    66 C    0.992
   108   1 H    1.031 --    67 C    0.999
   109   1 H    1.081 --    69 N    0.961
   110   1 H    1.047 --    72 C    0.995
   111   1 H    0.979 --    75 O    0.943
   112   1 H    1.016 --    77 C    0.986
   113   1 H    1.028 --    78 C    0.981
   114   1 H    1.046 --    79 C    0.988
   115   1 H    1.032 --    81 C    0.998
   116   1 H    1.035 --    82 C    0.999
   117   1 H    1.032 --    87 C    0.998
   118   1 H    1.029 --    88 C    0.998
   119   1 H    1.084 --    90 N    0.961
   120   1 H    1.047 --    93 C    0.989
   121   1 H    1.028 --    94 C    0.981
   122   1 H    1.025 --    95 C    0.986
   123   1 H    0.979 --    98 O    0.943
   124   1 H    1.038 --   100 C    0.995
   125   1 H    1.031 --   102 C    0.999
   126   1 H    1.018 --   103 C    0.993
   127   6 C    3.758 --   128 C    2.620    22 C    1.204
   128   6 C    3.762 --   127 C    2.620   141 C    1.207
   129   6 C    3.759 --   130 C    2.604   162 C    1.222
   130   6 C    3.759 --   129 C    2.604   203 C    1.222
   131   6 C    3.760 --   132 C    2.602   224 C    1.224
   132   6 C    3.760 --   131 C    2.602   265 C    1.224
   133   6 C    3.760 --   134 C    2.602   286 C    1.224
   134   6 C    3.760 --   133 C    2.602   327 C    1.224
   135   6 C    3.759 --   136 C    2.602   348 C    1.223
   136   6 C    3.760 --   135 C    2.602   389 C    1.224
   137   6 C    3.759 --   138 C    2.604   410 C    1.222
   138   6 C    3.759 --   137 C    2.604   451 C    1.222
   139   6 C    3.763 --   140 C    2.617   472 C    1.211
   140   6 C    3.759 --   139 C    2.617    85 C    1.209
   141   6 C    3.827 --   181 C    1.291   142 C    1.289   128 C    1.207
   142   6 C    3.907 --   141 C    1.289   143 C    1.270   146 N    1.251
   143   6 C    3.811 --   144 C    1.581   142 C    1.270   183 H    0.999
   144   6 C    3.817 --   143 C    1.581   145 C    1.262   184 H    0.998
   145   6 C    3.887 --   147 C    1.340   144 C    1.262   146 N    1.224
   146   7 N    3.246 --   142 C    1.251   145 C    1.224   185 H    0.962
   147   6 C    3.830 --   157 C    1.373   145 C    1.340   148 C    1.051
   148   6 C    3.895 --   149 C    1.438   156 C    1.418   147 C    1.051
   149   6 C    3.848 --   148 C    1.438   150 C    1.409   186 H    0.995
   150   6 C    3.908 --   149 C    1.409   154 C    1.402   151 C    1.035
   151   6 C    4.097 --   153 O    1.821   152 O    1.211   150 C    1.035
   152   8 O    2.366 --   151 C    1.211   187 H    0.943   153 O    0.184
   153   8 O    2.035 --   151 C    1.821   152 O    0.184
   154   6 C    3.887 --   155 C    1.454   150 C    1.402   188 H    0.987
   155   6 C    3.907 --   154 C    1.454   156 C    1.446   189 H    0.981
   156   6 C    3.861 --   155 C    1.446   148 C    1.418   190 H    0.989
   157   6 C    3.924 --   147 C    1.373   160 N    1.354   158 C    1.162
   158   6 C    3.830 --   159 C    1.691   157 C    1.162   191 H    0.998
   159   6 C    3.830 --   158 C    1.691   161 C    1.170   192 H    0.999
   160   7 N    2.550 --   161 C    1.419   157 C    1.354
   161   6 C    3.943 --   160 N    1.419   162 C    1.285   159 C    1.170
   162   6 C    3.830 --   161 C    1.285   163 C    1.283   129 C    1.222
   163   6 C    3.903 --   162 C    1.283   164 C    1.274   167 N    1.252
   164   6 C    3.813 --   165 C    1.578   163 C    1.274   193 H    0.998
   165   6 C    3.812 --   164 C    1.578   166 C    1.264   194 H    0.998
   166   6 C    3.886 --   168 C    1.337   165 C    1.264   167 N    1.226
   167   7 N    3.249 --   163 C    1.252   166 C    1.226   195 H    0.962
   168   6 C    3.827 --   178 C    1.376   166 C    1.337   169 C    1.049
   169   6 C    3.894 --   177 C    1.437   170 C    1.419   168 C    1.049
   170   6 C    3.865 --   171 C    1.445   169 C    1.419   196 H    0.989
   171   6 C    3.907 --   172 C    1.456   170 C    1.445   197 H    0.981
   172   6 C    3.891 --   171 C    1.456   173 C    1.403   198 H    0.986
   173   6 C    3.908 --   177 C    1.408   172 C    1.403   174 C    1.035
   174   6 C    4.097 --   176 O    1.819   175 O    1.213   173 C    1.035
   175   8 O    2.369 --   174 C    1.213   199 H    0.943   176 O    0.184
   176   8 O    2.032 --   174 C    1.819   175 O    0.184
   177   6 C    3.841 --   169 C    1.437   173 C    1.408   200 H    0.995
   178   6 C    3.926 --   168 C    1.376   182 N    1.354   179 C    1.161
   179   6 C    3.835 --   180 C    1.693   178 C    1.161   201 H    0.999
   180   6 C    3.832 --   179 C    1.693   181 C    1.167   202 H    0.999
   181   6 C    3.946 --   182 N    1.415   141 C    1.291   180 C    1.167
   182   7 N    2.546 --   181 C    1.415   178 C    1.354
   183   1 H    1.030 --   143 C    0.999
   184   1 H    1.030 --   144 C    0.998
   185   1 H    1.081 --   146 N    0.962
   186   1 H    1.047 --   149 C    0.995
   187   1 H    0.979 --   152 O    0.943
   188   1 H    1.016 --   154 C    0.987
   189   1 H    1.028 --   155 C    0.981
   190   1 H    1.046 --   156 C    0.989
   191   1 H    1.035 --   158 C    0.998
   192   1 H    1.035 --   159 C    0.999
   193   1 H    1.028 --   164 C    0.998
   194   1 H    1.028 --   165 C    0.998
   195   1 H    1.081 --   167 N    0.962
   196   1 H    1.049 --   170 C    0.989
   197   1 H    1.029 --   171 C    0.981
   198   1 H    1.026 --   172 C    0.986
   199   1 H    0.979 --   175 O    0.943
   200   1 H    1.035 --   177 C    0.995
   201   1 H    1.035 --   179 C    0.999
   202   1 H    1.032 --   180 C    0.999
   203   6 C    3.828 --   243 C    1.283   204 C    1.283   130 C    1.222
   204   6 C    3.903 --   203 C    1.283   205 C    1.274   208 N    1.252
   205   6 C    3.812 --   206 C    1.577   204 C    1.274   245 H    0.998
   206   6 C    3.815 --   205 C    1.577   207 C    1.264   246 H    0.998
   207   6 C    3.888 --   209 C    1.336   206 C    1.264   208 N    1.225
   208   7 N    3.246 --   204 C    1.252   207 C    1.225   247 H    0.962
   209   6 C    3.828 --   219 C    1.373   207 C    1.336   210 C    1.055
   210   6 C    3.894 --   211 C    1.436   218 C    1.416   209 C    1.055
   211   6 C    3.848 --   210 C    1.436   212 C    1.410   248 H    0.995
   212   6 C    3.908 --   211 C    1.410   216 C    1.401   213 C    1.034
   213   6 C    4.097 --   215 O    1.822   214 O    1.211   212 C    1.034
   214   8 O    2.366 --   213 C    1.211   249 H    0.943   215 O    0.184
   215   8 O    2.035 --   213 C    1.822   214 O    0.184
   216   6 C    3.886 --   217 C    1.453   212 C    1.401   250 H    0.987
   217   6 C    3.907 --   216 C    1.453   218 C    1.446   251 H    0.981
   218   6 C    3.861 --   217 C    1.446   210 C    1.416   252 H    0.989
   219   6 C    3.924 --   209 C    1.373   222 N    1.354   220 C    1.162
   220   6 C    3.830 --   221 C    1.690   219 C    1.162   253 H    0.998
   221   6 C    3.829 --   220 C    1.690   223 C    1.170   254 H    0.999
   222   7 N    2.546 --   223 C    1.418   219 C    1.354
   223   6 C    3.943 --   222 N    1.418   224 C    1.284   221 C    1.170
   224   6 C    3.828 --   223 C    1.284   225 C    1.281   131 C    1.224
   225   6 C    3.903 --   224 C    1.281   226 C    1.275   229 N    1.253
   226   6 C    3.812 --   227 C    1.576   225 C    1.275   255 H    0.998
   227   6 C    3.812 --   226 C    1.576   228 C    1.265   256 H    0.998
   228   6 C    3.887 --   230 C    1.336   227 C    1.265   229 N    1.225
   229   7 N    3.247 --   225 C    1.253   228 C    1.225   257 H    0.962
   230   6 C    3.828 --   240 C    1.374   228 C    1.336   231 C    1.054
   231   6 C    3.894 --   239 C    1.435   232 C    1.417   230 C    1.054
   232   6 C    3.865 --   233 C    1.445   231 C    1.417   258 H    0.989
   233   6 C    3.907 --   234 C    1.455   232 C    1.445   259 H    0.981
   234   6 C    3.890 --   233 C    1.455   235 C    1.402   260 H    0.986
   235   6 C    3.908 --   239 C    1.409   234 C    1.402   236 C    1.035
   236   6 C    4.097 --   238 O    1.819   237 O    1.213   235 C    1.035
   237   8 O    2.369 --   236 C    1.213   261 H    0.943   238 O    0.184
   238   8 O    2.032 --   236 C    1.819   237 O    0.184
   239   6 C    3.839 --   231 C    1.435   235 C    1.409   262 H    0.995
   240   6 C    3.926 --   230 C    1.374   244 N    1.353   241 C    1.163
   241   6 C    3.833 --   242 C    1.689   240 C    1.163   263 H    0.999
   242   6 C    3.828 --   241 C    1.689   243 C    1.170   264 H    0.999
   243   6 C    3.943 --   244 N    1.419   203 C    1.283   242 C    1.170
   244   7 N    2.544 --   243 C    1.419   240 C    1.353
   245   1 H    1.028 --   205 C    0.998
   246   1 H    1.031 --   206 C    0.998
   247   1 H    1.082 --   208 N    0.962
   248   1 H    1.047 --   211 C    0.995
   249   1 H    0.979 --   214 O    0.943
   250   1 H    1.016 --   216 C    0.987
   251   1 H    1.028 --   217 C    0.981
   252   1 H    1.046 --   218 C    0.989
   253   1 H    1.035 --   220 C    0.998
   254   1 H    1.035 --   221 C    0.999
   255   1 H    1.029 --   226 C    0.998
   256   1 H    1.029 --   227 C    0.998
   257   1 H    1.082 --   229 N    0.962
   258   1 H    1.050 --   232 C    0.989
   259   1 H    1.028 --   233 C    0.981
   260   1 H    1.025 --   234 C    0.986
   261   1 H    0.980 --   237 O    0.943
   262   1 H    1.035 --   239 C    0.995
   263   1 H    1.036 --   241 C    0.999
   264   1 H    1.035 --   242 C    0.999
   265   6 C    3.830 --   305 C    1.283   266 C    1.282   132 C    1.224
   266   6 C    3.903 --   265 C    1.282   267 C    1.274   270 N    1.253
   267   6 C    3.811 --   268 C    1.577   266 C    1.274   307 H    0.998
   268   6 C    3.813 --   267 C    1.577   269 C    1.264   308 H    0.998
   269   6 C    3.889 --   271 C    1.335   268 C    1.264   270 N    1.226
   270   7 N    3.246 --   266 C    1.253   269 C    1.226   309 H    0.962
   271   6 C    3.828 --   281 C    1.373   269 C    1.335   272 C    1.055
   272   6 C    3.894 --   273 C    1.436   280 C    1.416   271 C    1.055
   273   6 C    3.846 --   272 C    1.436   274 C    1.410   310 H    0.995
   274   6 C    3.908 --   273 C    1.410   278 C    1.401   275 C    1.034
   275   6 C    4.097 --   277 O    1.822   276 O    1.211   274 C    1.034
   276   8 O    2.366 --   275 C    1.211   311 H    0.943   277 O    0.184
   277   8 O    2.035 --   275 C    1.822   276 O    0.184
   278   6 C    3.886 --   279 C    1.453   274 C    1.401   312 H    0.987
   279   6 C    3.907 --   278 C    1.453   280 C    1.446   313 H    0.981
   280   6 C    3.860 --   279 C    1.446   272 C    1.416   314 H    0.989
   281   6 C    3.925 --   271 C    1.373   284 N    1.354   282 C    1.162
   282   6 C    3.830 --   283 C    1.690   281 C    1.162   315 H    0.998
   283   6 C    3.829 --   282 C    1.690   285 C    1.170   316 H    0.999
   284   7 N    2.546 --   285 C    1.418   281 C    1.354
   285   6 C    3.943 --   284 N    1.418   286 C    1.284   283 C    1.170
   286   6 C    3.830 --   285 C    1.284   287 C    1.282   133 C    1.224
   287   6 C    3.903 --   286 C    1.282   288 C    1.274   291 N    1.253
   288   6 C    3.813 --   289 C    1.577   287 C    1.274   317 H    0.998
   289   6 C    3.813 --   288 C    1.577   290 C    1.265   318 H    0.998
   290   6 C    3.887 --   292 C    1.336   289 C    1.265   291 N    1.225
   291   7 N    3.247 --   287 C    1.253   290 C    1.225   319 H    0.962
   292   6 C    3.828 --   302 C    1.373   290 C    1.336   293 C    1.054
   293   6 C    3.894 --   301 C    1.435   294 C    1.417   292 C    1.054
   294   6 C    3.865 --   295 C    1.445   293 C    1.417   320 H    0.989
   295   6 C    3.907 --   296 C    1.455   294 C    1.445   321 H    0.981
   296   6 C    3.890 --   295 C    1.455   297 C    1.402   322 H    0.986
   297   6 C    3.908 --   301 C    1.409   296 C    1.402   298 C    1.035
   298   6 C    4.097 --   300 O    1.819   299 O    1.212   297 C    1.035
   299   8 O    2.369 --   298 C    1.212   323 H    0.943   300 O    0.184
   300   8 O    2.032 --   298 C    1.819   299 O    0.184
   301   6 C    3.839 --   293 C    1.435   297 C    1.409   324 H    0.995
   302   6 C    3.926 --   292 C    1.373   306 N    1.353   303 C    1.163
   303   6 C    3.833 --   304 C    1.689   302 C    1.163   325 H    0.999
   304   6 C    3.829 --   303 C    1.689   305 C    1.171   326 H    0.999
   305   6 C    3.942 --   306 N    1.419   265 C    1.283   304 C    1.171
   306   7 N    2.545 --   305 C    1.419   302 C    1.353
   307   1 H    1.028 --   267 C    0.998
   308   1 H    1.031 --   268 C    0.998
   309   1 H    1.082 --   270 N    0.962
   310   1 H    1.047 --   273 C    0.995
   311   1 H    0.979 --   276 O    0.943
   312   1 H    1.016 --   278 C    0.987
   313   1 H    1.028 --   279 C    0.981
   314   1 H    1.046 --   280 C    0.989
   315   1 H    1.034 --   282 C    0.998
   316   1 H    1.035 --   283 C    0.999
   317   1 H    1.028 --   288 C    0.998
   318   1 H    1.029 --   289 C    0.998
   319   1 H    1.081 --   291 N    0.962
   320   1 H    1.049 --   294 C    0.989
   321   1 H    1.028 --   295 C    0.981
   322   1 H    1.025 --   296 C    0.986
   323   1 H    0.980 --   299 O    0.943
   324   1 H    1.035 --   301 C    0.995
   325   1 H    1.036 --   303 C    0.999
   326   1 H    1.035 --   304 C    0.999
   327   6 C    3.830 --   367 C    1.284   328 C    1.282   134 C    1.224
   328   6 C    3.903 --   327 C    1.282   329 C    1.274   332 N    1.252
   329   6 C    3.811 --   330 C    1.577   328 C    1.274   369 H    0.998
   330   6 C    3.813 --   329 C    1.577   331 C    1.264   370 H    0.998
   331   6 C    3.889 --   333 C    1.336   330 C    1.264   332 N    1.226
   332   7 N    3.246 --   328 C    1.252   331 C    1.226   371 H    0.962
   333   6 C    3.828 --   343 C    1.373   331 C    1.336   334 C    1.055
   334   6 C    3.894 --   335 C    1.436   342 C    1.416   333 C    1.055
   335   6 C    3.846 --   334 C    1.436   336 C    1.410   372 H    0.995
   336   6 C    3.908 --   335 C    1.410   340 C    1.401   337 C    1.034
   337   6 C    4.097 --   339 O    1.822   338 O    1.211   336 C    1.034
   338   8 O    2.366 --   337 C    1.211   373 H    0.943   339 O    0.184
   339   8 O    2.035 --   337 C    1.822   338 O    0.184
   340   6 C    3.886 --   341 C    1.453   336 C    1.401   374 H    0.987
   341   6 C    3.907 --   340 C    1.453   342 C    1.446   375 H    0.981
   342   6 C    3.860 --   341 C    1.446   334 C    1.416   376 H    0.989
   343   6 C    3.925 --   333 C    1.373   346 N    1.354   344 C    1.162
   344   6 C    3.830 --   345 C    1.690   343 C    1.162   377 H    0.998
   345   6 C    3.829 --   344 C    1.690   347 C    1.170   378 H    0.999
   346   7 N    2.546 --   347 C    1.418   343 C    1.354
   347   6 C    3.943 --   346 N    1.418   348 C    1.284   345 C    1.170
   348   6 C    3.830 --   347 C    1.284   349 C    1.281   135 C    1.223
   349   6 C    3.903 --   348 C    1.281   350 C    1.274   353 N    1.253
   350   6 C    3.813 --   351 C    1.577   349 C    1.274   379 H    0.998
   351   6 C    3.813 --   350 C    1.577   352 C    1.265   380 H    0.998
   352   6 C    3.887 --   354 C    1.336   351 C    1.265   353 N    1.226
   353   7 N    3.247 --   349 C    1.253   352 C    1.226   381 H    0.962
   354   6 C    3.828 --   364 C    1.374   352 C    1.336   355 C    1.054
   355   6 C    3.894 --   363 C    1.435   356 C    1.418   354 C    1.054
   356   6 C    3.865 --   357 C    1.445   355 C    1.418   382 H    0.989
   357   6 C    3.907 --   358 C    1.455   356 C    1.445   383 H    0.981
   358   6 C    3.890 --   357 C    1.455   359 C    1.402   384 H    0.986
   359   6 C    3.908 --   363 C    1.409   358 C    1.402   360 C    1.035
   360   6 C    4.097 --   362 O    1.819   361 O    1.212   359 C    1.035
   361   8 O    2.369 --   360 C    1.212   385 H    0.943   362 O    0.184
   362   8 O    2.032 --   360 C    1.819   361 O    0.184
   363   6 C    3.839 --   355 C    1.435   359 C    1.409   386 H    0.995
   364   6 C    3.926 --   354 C    1.374   368 N    1.353   365 C    1.163
   365   6 C    3.833 --   366 C    1.689   364 C    1.163   387 H    0.999
   366   6 C    3.829 --   365 C    1.689   367 C    1.170   388 H    0.999
   367   6 C    3.943 --   368 N    1.419   327 C    1.284   366 C    1.170
   368   7 N    2.545 --   367 C    1.419   364 C    1.353
   369   1 H    1.028 --   329 C    0.998
   370   1 H    1.031 --   330 C    0.998
   371   1 H    1.082 --   332 N    0.962
   372   1 H    1.047 --   335 C    0.995
   373   1 H    0.979 --   338 O    0.943
   374   1 H    1.016 --   340 C    0.987
   375   1 H    1.028 --   341 C    0.981
   376   1 H    1.046 --   342 C    0.989
   377   1 H    1.034 --   344 C    0.998
   378   1 H    1.035 --   345 C    0.999
   379   1 H    1.028 --   350 C    0.998
   380   1 H    1.029 --   351 C    0.998
   381   1 H    1.081 --   353 N    0.962
   382   1 H    1.049 --   356 C    0.989
   383   1 H    1.028 --   357 C    0.981
   384   1 H    1.025 --   358 C    0.986
   385   1 H    0.980 --   361 O    0.943
   386   1 H    1.035 --   363 C    0.995
   387   1 H    1.036 --   365 C    0.999
   388   1 H    1.035 --   366 C    0.999
   389   6 C    3.829 --   429 C    1.283   390 C    1.282   136 C    1.224
   390   6 C    3.903 --   389 C    1.282   391 C    1.274   394 N    1.252
   391   6 C    3.813 --   392 C    1.577   390 C    1.274   431 H    0.998
   392   6 C    3.813 --   391 C    1.577   393 C    1.264   432 H    0.998
   393   6 C    3.888 --   395 C    1.335   392 C    1.264   394 N    1.226
   394   7 N    3.247 --   390 C    1.252   393 C    1.226   433 H    0.962
   395   6 C    3.828 --   405 C    1.374   393 C    1.335   396 C    1.055
   396   6 C    3.894 --   397 C    1.436   404 C    1.416   395 C    1.055
   397   6 C    3.848 --   396 C    1.436   398 C    1.410   434 H    0.995
   398   6 C    3.908 --   397 C    1.410   402 C    1.401   399 C    1.034
   399   6 C    4.097 --   401 O    1.822   400 O    1.211   398 C    1.034
   400   8 O    2.366 --   399 C    1.211   435 H    0.943   401 O    0.184
   401   8 O    2.035 --   399 C    1.822   400 O    0.184
   402   6 C    3.886 --   403 C    1.453   398 C    1.401   436 H    0.987
   403   6 C    3.907 --   402 C    1.453   404 C    1.446   437 H    0.981
   404   6 C    3.861 --   403 C    1.446   396 C    1.416   438 H    0.989
   405   6 C    3.925 --   395 C    1.374   408 N    1.354   406 C    1.162
   406   6 C    3.831 --   407 C    1.691   405 C    1.162   439 H    0.998
   407   6 C    3.829 --   406 C    1.691   409 C    1.169   440 H    0.999
   408   7 N    2.545 --   409 C    1.418   405 C    1.354
   409   6 C    3.943 --   408 N    1.418   410 C    1.285   407 C    1.169
   410   6 C    3.829 --   409 C    1.285   411 C    1.282   137 C    1.222
   411   6 C    3.903 --   410 C    1.282   412 C    1.274   415 N    1.253
   412   6 C    3.813 --   413 C    1.577   411 C    1.274   441 H    0.998
   413   6 C    3.813 --   412 C    1.577   414 C    1.265   442 H    0.998
   414   6 C    3.887 --   416 C    1.337   413 C    1.265   415 N    1.225
   415   7 N    3.247 --   411 C    1.253   414 C    1.225   443 H    0.962
   416   6 C    3.828 --   426 C    1.373   414 C    1.337   417 C    1.054
   417   6 C    3.894 --   425 C    1.435   418 C    1.417   416 C    1.054
   418   6 C    3.865 --   419 C    1.445   417 C    1.417   444 H    0.989
   419   6 C    3.907 --   420 C    1.455   418 C    1.445   445 H    0.981
   420   6 C    3.890 --   419 C    1.455   421 C    1.402   446 H    0.986
   421   6 C    3.908 --   425 C    1.409   420 C    1.402   422 C    1.035
   422   6 C    4.097 --   424 O    1.819   423 O    1.212   421 C    1.035
   423   8 O    2.369 --   422 C    1.212   447 H    0.943   424 O    0.184
   424   8 O    2.032 --   422 C    1.819   423 O    0.184
   425   6 C    3.839 --   417 C    1.435   421 C    1.409   448 H    0.995
   426   6 C    3.926 --   416 C    1.373   430 N    1.353   427 C    1.163
   427   6 C    3.833 --   428 C    1.689   426 C    1.163   449 H    0.999
   428   6 C    3.829 --   427 C    1.689   429 C    1.170   450 H    0.999
   429   6 C    3.942 --   430 N    1.419   389 C    1.283   428 C    1.170
   430   7 N    2.546 --   429 C    1.419   426 C    1.353
   431   1 H    1.028 --   391 C    0.998
   432   1 H    1.031 --   392 C    0.998
   433   1 H    1.082 --   394 N    0.962
   434   1 H    1.047 --   397 C    0.995
   435   1 H    0.979 --   400 O    0.943
   436   1 H    1.016 --   402 C    0.987
   437   1 H    1.028 --   403 C    0.981
   438   1 H    1.046 --   404 C    0.989
   439   1 H    1.034 --   406 C    0.998
   440   1 H    1.035 --   407 C    0.999
   441   1 H    1.028 --   412 C    0.998
   442   1 H    1.029 --   413 C    0.998
   443   1 H    1.081 --   415 N    0.962
   444   1 H    1.049 --   418 C    0.989
   445   1 H    1.028 --   419 C    0.981
   446   1 H    1.025 --   420 C    0.986
   447   1 H    0.980 --   423 O    0.943
   448   1 H    1.035 --   425 C    0.995
   449   1 H    1.036 --   427 C    0.999
   450   1 H    1.035 --   428 C    0.999
   451   6 C    3.831 --   491 C    1.284   452 C    1.284   138 C    1.222
   452   6 C    3.903 --   451 C    1.284   453 C    1.274   456 N    1.252
   453   6 C    3.812 --   454 C    1.577   452 C    1.274   493 H    0.998
   454   6 C    3.814 --   453 C    1.577   455 C    1.264   494 H    0.998
   455   6 C    3.889 --   457 C    1.335   454 C    1.264   456 N    1.227
   456   7 N    3.248 --   452 C    1.252   455 C    1.227   495 H    0.962
   457   6 C    3.828 --   467 C    1.373   455 C    1.335   458 C    1.056
   458   6 C    3.894 --   459 C    1.435   466 C    1.416   457 C    1.056
   459   6 C    3.846 --   458 C    1.435   460 C    1.410   496 H    0.995
   460   6 C    3.908 --   459 C    1.410   464 C    1.401   461 C    1.035
   461   6 C    4.097 --   463 O    1.821   462 O    1.211   460 C    1.035
   462   8 O    2.367 --   461 C    1.211   497 H    0.943   463 O    0.184
   463   8 O    2.035 --   461 C    1.821   462 O    0.184
   464   6 C    3.885 --   465 C    1.453   460 C    1.401   498 H    0.987
   465   6 C    3.907 --   464 C    1.453   466 C    1.446   499 H    0.981
   466   6 C    3.860 --   465 C    1.446   458 C    1.416   500 H    0.989
   467   6 C    3.925 --   457 C    1.373   470 N    1.355   468 C    1.161
   468   6 C    3.831 --   469 C    1.692   467 C    1.161   501 H    0.998
   469   6 C    3.829 --   468 C    1.692   471 C    1.168   502 H    0.999
   470   7 N    2.546 --   471 C    1.416   467 C    1.355
   471   6 C    3.944 --   470 N    1.416   472 C    1.288   469 C    1.168
   472   6 C    3.828 --   471 C    1.288   473 C    1.287   139 C    1.211
   473   6 C    3.907 --   472 C    1.287   474 C    1.271   477 N    1.251
   474   6 C    3.813 --   475 C    1.580   473 C    1.271   503 H    0.998
   475   6 C    3.812 --   474 C    1.580   476 C    1.263   504 H    0.998
   476   6 C    3.887 --   478 C    1.338   475 C    1.263   477 N    1.225
   477   7 N    3.246 --   473 C    1.251   476 C    1.225   505 H    0.962
   478   6 C    3.829 --   488 C    1.372   476 C    1.338   479 C    1.054
   479   6 C    3.894 --   487 C    1.435   480 C    1.417   478 C    1.054
   480   6 C    3.865 --   481 C    1.445   479 C    1.417   506 H    0.989
   481   6 C    3.907 --   482 C    1.455   480 C    1.445   507 H    0.981
   482   6 C    3.890 --   481 C    1.455   483 C    1.402   508 H    0.986
   483   6 C    3.907 --   487 C    1.409   482 C    1.402   484 C    1.035
   484   6 C    4.097 --   486 O    1.819   485 O    1.213   483 C    1.035
   485   8 O    2.370 --   484 C    1.213   509 H    0.944   486 O    0.184
   486   8 O    2.032 --   484 C    1.819   485 O    0.184
   487   6 C    3.839 --   479 C    1.435   483 C    1.409   510 H    0.995
   488   6 C    3.925 --   478 C    1.372   492 N    1.355   489 C    1.163
   489   6 C    3.833 --   490 C    1.689   488 C    1.163   511 H    0.999
   490   6 C    3.829 --   489 C    1.689   491 C    1.170   512 H    0.999
   491   6 C    3.942 --   492 N    1.418   451 C    1.284   490 C    1.170
   492   7 N    2.548 --   491 C    1.418   488 C    1.355
   493   1 H    1.028 --   453 C    0.998
   494   1 H    1.031 --   454 C    0.998
   495   1 H    1.081 --   456 N    0.962
   496   1 H    1.048 --   459 C    0.995
   497   1 H    0.980 --   462 O    0.943
   498   1 H    1.016 --   464 C    0.987
   499   1 H    1.028 --   465 C    0.981
   500   1 H    1.046 --   466 C    0.989
   501   1 H    1.034 --   468 C    0.998
   502   1 H    1.035 --   469 C    0.999
   503   1 H    1.027 --   474 C    0.998
   504   1 H    1.029 --   475 C    0.998
   505   1 H    1.081 --   477 N    0.962
   506   1 H    1.049 --   480 C    0.989
   507   1 H    1.028 --   481 C    0.981
   508   1 H    1.025 --   482 C    0.986
   509   1 H    0.981 --   485 O    0.944
   510   1 H    1.035 --   487 C    0.995
   511   1 H    1.034 --   489 C    0.999
   512   1 H    1.035 --   490 C    0.999
 ---------------------------------------------------------------------------

Topologies differ in total number of bonds
Writing topology from bond orders to xtbtopo.mol

 dipole moment from electron density (au)
     X       Y       Z   
-304.6020   5.4866   2.5651  total (Debye):  774.374


           -------------------------------------------------
          | TOTAL ENERGY            -1054.614869147387 Eh   |
          | GRADIENT NORM               0.158169633940 Eh/α |
          | HOMO-LUMO GAP               0.080680499758 eV   |
           -------------------------------------------------
########################################################################
[WARNING] Runtime exception occurred
-1- restart_readRestart: Dimension missmatch in restart file.
########################################################################

------------------------------------------------------------------------
 * finished run on 2022/07/27 at 15:06:10.982     
------------------------------------------------------------------------
 total:
 * wall-time:     0 d,  0 h,  2 min,  5.624 sec
 *  cpu-time:     0 d,  0 h,  2 min,  4.988 sec
 * ratio c/w:     0.995 speedup
 SCF:
 * wall-time:     0 d,  0 h,  2 min,  3.532 sec
 *  cpu-time:     0 d,  0 h,  2 min,  3.000 sec
 * ratio c/w:     0.996 speedup

