138
 energy: -212.341238056501 gnorm: 1.026237673370 xtb: 6.5.1 (b24c23e)
Zn          16.94403500000000       -0.00526400000000       -0.00645300000000
C           13.58534700000000        0.19799600000000       -0.24176300000000
C           14.24966600000000        1.29883300000000        0.11971200000000
C           13.60001700000000        2.54232100000000        0.51715800000000
C           14.54273100000000        3.41816100000000        0.80731000000000
C           15.84845300000000        2.77739400000000        0.59999800000000
N           15.66928700000000        1.42883700000000        0.16692600000000
C           17.04362500000000        3.37290100000000        0.78627200000000
C           18.33894200000000        2.68144000000000        0.55845000000000
C           19.63571200000000        3.36808200000000        0.55934700000000
C           20.56889500000000        2.46511400000000        0.34228000000000
N           18.47181200000000        1.40719100000000        0.34650500000000
C           19.87526900000000        1.19011100000000        0.19898800000000
C           20.46685800000000        0.00000000000000        0.00000000000000
C           19.70829000000000       -1.26647500000000       -0.14110900000000
C           20.26547800000000       -2.47099900000000       -0.12479400000000
C           19.21824200000000       -3.43658300000000       -0.38476900000000
C           18.08407400000000       -2.76225100000000       -0.53957200000000
C           16.78212100000000       -3.38680000000000       -0.89820500000000
C           16.75705500000000       -4.82859400000000       -1.23277000000000
C           16.69057800000000       -5.24164600000000       -2.57103000000000
C           16.68593600000000       -6.60755600000000       -2.89053400000000
C           16.58015500000000       -7.04742600000000       -4.32086100000000
C           16.71374200000000       -7.55959300000000       -1.85958000000000
C           16.77080600000000       -7.15450200000000       -0.51773900000000
C           16.83755100000000       -8.18508800000000        0.57079200000000
C           16.80234300000000       -5.78610500000000       -0.20926800000000
C           15.62897700000000       -2.69240100000000       -0.91206300000000
C           14.30830600000000       -3.23284200000000       -1.23058500000000
C           13.45305200000000       -2.24833700000000       -1.04114800000000
C           14.21673500000000       -1.08039800000000       -0.60554200000000
N           15.48695400000000       -1.32739000000000       -0.52637500000000
N           18.30429300000000       -1.35703700000000       -0.39258900000000
C           17.09315700000000        4.78316600000000        1.23097200000000
C           16.77767400000000        5.81865700000000        0.33919200000000
C           16.82066000000000        7.15493300000000        0.76247900000000
C           16.50051500000000        8.26394900000000       -0.19606200000000
C           17.22129600000000        7.45304300000000        2.07350700000000
C           17.56232400000000        6.42448600000000        2.96455300000000
C           17.94465500000000        6.74525700000000        4.37921400000000
C           17.48120800000000        5.08960000000000        2.54253500000000
H           12.50239600000000        0.23497500000000       -0.26004200000000
H           12.53540300000000        2.72887400000000        0.57653400000000
H           14.35679800000000        4.43084600000000        1.13994000000000
H           19.81563700000000        4.42499200000000        0.70581000000000
H           21.63113300000000        2.66262800000000        0.28753800000000
H           21.31111700000000       -2.70246300000000        0.02539000000000
H           19.35380500000000       -4.50626800000000       -0.47121300000000
H           16.64649400000000       -4.50023900000000       -3.36083600000000
H           17.08265300000000       -8.02718900000000       -4.46841800000000
H           15.50983300000000       -7.14388100000000       -4.59838600000000
H           17.06467800000000       -6.30877100000000       -4.99499200000000
H           16.69260600000000       -8.61605800000000       -2.10107500000000
H           16.66898700000000       -7.72986900000000        1.57110800000000
H           16.05878100000000       -8.96002400000000        0.40731500000000
H           17.83672899999999       -8.66912800000000        0.56161600000000
H           16.85911000000000       -5.46239000000000        0.82415300000000
H           14.05445600000000       -4.23619600000000       -1.54568300000000
H           12.38145300000000       -2.30984900000000       -1.17831600000000
H           16.49364800000000        5.58315300000000       -0.67984200000000
H           16.01161200000000        9.10780200000000        0.33597000000000
H           15.80932400000000        7.91206000000000       -0.99100600000000
H           17.43779600000000        8.62761500000000       -0.66599800000000
H           17.26711200000000        8.48585900000000        2.39958500000000
H           17.03519400000000        6.75248700000000        5.01422600000000
H           18.43478400000000        7.74014400000000        4.43776400000000
H           18.65597800000000        5.98805100000000        4.77402600000000
H           17.72327100000000        4.28865600000000        3.23144800000000
Zn          27.45626300000000        0.00766300000000        0.00326000000000
C           30.81495100000000        0.17709300000000       -0.25746900000000
C           30.15063200000000       -0.47652800000000       -1.21417400000000
C           30.80028099999999       -1.20440600000000       -2.29788100000000
C           29.85756600000000       -1.72689200000000       -3.05833500000000
C           28.55184500000000       -1.34940800000000       -2.50060200000000
N           28.73101100000000       -0.55806400000000       -1.32589700000000
C           27.35667300000000       -1.69408600000000       -3.02072100000000
C           26.06135600000000       -1.28279200000000       -2.42000700000000
C           24.76458600000000       -1.47478900000000       -3.07926000000000
C           23.83140200000000       -1.01494900000000       -2.27240500000000
N           25.92848600000000       -0.72452000000000       -1.25511900000000
C           24.52502800000000       -0.52240600000000       -1.08768200000000
C           23.93344000000000        0.00000000000000        0.00000000000000
C           24.69200800000000        0.48807100000000        1.17713900000000
C           24.13481900000000        0.80769600000000        2.33859700000000
C           25.18205500000000        1.32617900000000        3.19364900000000
C           26.31622400000000        1.28715500000000        2.50287900000000
C           27.61817700000000        1.80546400000000        3.00291300000000
C           27.64324300000000        2.52814900000000        4.29459100000000
C           27.70971900000000        3.92849400000000        4.31879500000000
C           27.71436100000000        4.61558900000000        5.54178000000000
C           27.82014300000000        6.11182700000000        5.56611500000000
C           27.68655500000000        3.89039400000000        6.74316900000000
C           27.62949200000000        2.48882500000000        6.72760700000000
C           27.56274700000000        1.73019500000000        8.02046800000000
C           27.59795400000000        1.81163600000000        5.49916200000000
C           28.77132100000000        1.62547900000000        2.33210200000000
C           30.09199100000000        2.08185200000000        2.76251700000000
C           30.94724500000000        1.62585100000000        1.86965700000000
C           30.18356300000000        0.88235200000000        0.86913600000000
N           28.91334400000000        0.87506700000000        1.12840300000000
N           26.09600500000000        0.75482100000000        1.19411900000000
C           27.30714000000000       -2.51377600000000       -4.25145900000000
C           27.62262300000000       -1.94548500000000       -5.49426100000000
C           27.57963800000000       -2.72401300000000       -6.65989400000000
C           27.89978199999999       -2.11206600000000       -7.99190000000000
C           27.17900200000000       -4.06620600000000       -6.58128100000000
C           26.83797300000000       -4.63572200000000       -5.34534200000000
C           26.45564200000000       -6.08376000000000       -5.25964500000000
C           26.91908900000000       -3.85880100000000       -4.18069000000000
H           31.89790200000000        0.18435500000000       -0.29807400000000
H           31.86489500000000       -1.31336600000000       -2.46053200000000
H           30.04349900000000       -2.32826900000000       -3.93840300000000
H           24.58466100000000       -1.90966900000000       -4.05362600000000
H           22.76916400000000       -1.01735100000000       -2.47735000000000
H           23.08918000000000        0.72787900000000        2.60271800000000
H           25.04649300000000        1.70696800000000        4.19699400000000
H           27.75380400000000        4.48070300000000        3.38683800000000
H           27.31764400000000        6.52628100000000        6.46607900000000
H           28.89046400000000        6.40523200000000        5.58150500000000
H           27.33561900000000        6.55369900000000        4.66900100000000
H           27.70769100000000        4.41642500000000        7.69065400000000
H           27.73131000000000        0.64269900000000        7.86169100000000
H           28.34151700000000        2.10292400000000        8.71926900000000
H           26.56356800000000        1.87374700000000        8.48282200000000
H           27.54118700000000        0.72894900000000        5.47590800000000
H           30.34584200000000        2.66379200000000        3.63850300000000
H           32.01884500000000        1.77472100000000        1.89055500000000
H           27.90664900000000       -0.90117300000000       -5.55172700000000
H           28.38868500000000       -2.85796800000000       -8.65430300000000
H           28.59097400000000       -1.25058900000000       -7.87520300000000
H           26.96250100000000       -1.76193500000000       -8.47200500000000
H           27.13318500000000       -4.66689400000000       -7.48250700000000
H           27.36510300000000       -6.69568700000000       -5.08982600000000
H           25.96551400000000       -6.41693600000000       -6.19891200000000
H           25.74432000000000       -6.25219000000000       -4.42246500000000
H           26.67702700000000       -4.29753200000000       -3.21963400000000
C           21.58919000000000        0.00000000000000        0.00000000000000
C           22.81110800000000        0.00000000000000        0.00000000000000
138
 energy: -212.573669191288 gnorm: 0.309659578066 xtb: 6.5.1 (b24c23e)
Zn          16.94257052531973       -0.00210663578554       -0.00947604667433
C           13.58536190453743        0.18154286827976       -0.24726482454980
C           14.25468456228611        1.30021091454033        0.12082603972223
C           13.59905709478699        2.53631090449237        0.51497570623175
C           14.55209306932166        3.42104249883519        0.80803015591009
C           15.84609104837270        2.77360587323361        0.59969587086862
N           15.64797006064746        1.44843153475913        0.17509800916441
C           17.05639947384712        3.37383026949019        0.78546544338445
C           18.32702994200330        2.70905217929636        0.56556897871921
C           19.61981288375279        3.38295785918809        0.56437443363468
C           20.55866728458099        2.45588600880242        0.34147683413605
N           18.46305119647946        1.42143241873407        0.34508665679648
C           19.82324821036634        1.21113781554363        0.20502251157554
C           20.34672236528107       -0.01513863799021       -0.00176379962234
C           19.66221706374672       -1.27151304184245       -0.14818860772747
C           20.26190055145159       -2.49381789564146       -0.12938253203835
C           19.23804121788299       -3.44346078704428       -0.38409620341374
C           18.07050248325291       -2.75614795770123       -0.54301154455332
C           16.79496786217932       -3.37946865364802       -0.89487278729498
C           16.76391367762700       -4.82935347175242       -1.23256828324246
C           16.69114916254341       -5.24439873426023       -2.56689516236655
C           16.68290345057642       -6.60607262306023       -2.88606485748370
C           16.58204348986141       -7.04749488063144       -4.32167825822557
C           16.71413727884738       -7.55349229523310       -1.85822644566204
C           16.77202017832617       -7.15078650126059       -0.52009856025395
C           16.83618358501804       -8.18526896838941        0.57177978620335
C           16.80363500248409       -5.78733430954457       -0.21355478115674
C           15.62722911201938       -2.69146472292617       -0.91181134079265
C           14.31509961591303       -3.23278125359863       -1.22941504748913
C           13.44250202164410       -2.23767592943001       -1.03891779212600
C           14.19654162881991       -1.07294690815369       -0.60316810327983
N           15.48244799898991       -1.33863224252209       -0.53223271230033
N           18.29591776147031       -1.37392644451010       -0.39307942252152
C           17.09816516794496        4.78785143736804        1.23093568193458
C           16.77726240695577        5.82061813609701        0.34411939948694
C           16.82335443857370        7.15236910437745        0.76432970833048
C           16.49858606164790        8.26465493683350       -0.19615266823541
C           17.22098280303011        7.44769939899192        2.07188360851457
C           17.55858058295798        6.42383364662970        2.96187533740328
C           17.94693475916370        6.74560701756884        4.37968911924877
C           17.48222213802799        5.09403764237580        2.53960141806852
H           12.50252017476468        0.22936193569821       -0.26249445415790
H           12.53524772691592        2.72094139969196        0.57375627425087
H           14.36709813456564        4.43232878549719        1.14033067934960
H           19.80844097896901        4.43199729802622        0.70799016776489
H           21.62562270612052        2.64838114413411        0.28541722045164
H           21.31012216601516       -2.70477912894471        0.02567130622581
H           19.36033877492149       -4.50944241313273       -0.46943069461590
H           16.64746902489532       -4.50192592370117       -3.35854079471908
H           17.07734203351167       -8.02088420010267       -4.46797601653670
H           15.51869740229523       -7.14383582817817       -4.59879069881974
H           17.05943974218632       -6.31383407232274       -4.99114128289227
H           16.69296087631135       -8.61287373164424       -2.10042252556037
H           16.67118460767064       -7.73339488112720        1.56355512492436
H           16.06568037172602       -8.95636410664728        0.40926258765689
H           17.82824868378956       -8.66726115785658        0.56325293233311
H           16.85872393458228       -5.46332682070424        0.82163195514031
H           14.06416872915625       -4.23601897740274       -1.54494078512129
H           12.37644871891168       -2.30297651118669       -1.17707053983708
H           16.49397111278146        5.58348220350313       -0.67713941467945
H           16.01642854773819        9.10331504560168        0.33136958449505
H           15.81548210846638        7.91505663760999       -0.98658602239037
H           17.42943507659550        8.62676510309105       -0.66385607293717
H           17.26716084485780        8.48306406496190        2.39875370539814
H           17.04345814069845        6.75299539432602        5.01176162218350
H           18.43016495295112        7.73380573633274        4.43866367929362
H           18.64975016091689        5.99318238514501        4.77271853241961
H           17.72326735111418        4.29060461553459        3.22953372437389
Zn          27.45772742194291        0.00968765297151       -0.00061411268435
C           30.81493610949262        0.18695732664998       -0.24319742619869
C           30.14561342859765       -0.47798148390588       -1.21518748906665
C           30.80124086007301       -1.20063711524204       -2.29271570043608
C           29.84820412558374       -1.72838581469254       -3.06090234737504
C           28.55420678032006       -1.34806332143250       -2.49704777138964
N           28.75232787467073       -0.57136745323800       -1.34244231648165
C           27.34389837147959       -1.69357018852088       -3.02183806037534
C           26.07326791964580       -1.29731567510101       -2.44454599970030
C           24.78048499393640       -1.48375870599692       -3.09214843328615
C           23.84162991525564       -1.01160875509570       -2.26376519843276
N           25.93724663248405       -0.72712190093721       -1.26919230982123
C           24.57704903133856       -0.53405521399318       -1.10619812817885
C           24.05357556384572        0.00590811432579        0.01404932508750
C           24.73808094113639        0.49627330602146        1.18000738006670
C           24.13839668223915        0.81845516749368        2.35923663901672
C           25.16225590652564        1.32744742339685        3.20044250763430
C           26.32979533582815        1.28875961428557        2.49605972486360
C           27.60532995628067        1.80022287822055        2.99679896477463
C           27.63638416555793        2.52816657014393        4.29537639541080
C           27.70914798209009        3.92528877121212        4.32258980032083
C           27.71739361147597        4.61088335134609        5.54159948522090
C           27.81825413132330        6.11263102133584        5.56595353522744
C           27.68615979537791        3.88739569602256        6.73768592761964
C           27.62827763534588        2.49005736104895        6.72338181972502
C           27.56411421518735        1.72929654378511        8.02091655223864
C           27.59666213155831        1.81609526566487        5.49914946105989
C           28.77306874720581        1.62497684816017        2.33127270829844
C           30.08519759529463        2.08071118357669        2.76278454037704
C           30.95779537098275        1.62074151586038        1.86003793936052
C           30.20375637726597        0.87799760136623        0.86264013364963
N           28.91784996084914        0.88382252079697        1.13757028252501
N           26.10438014910857        0.75999343835219        1.21020451173339
C           27.30213195521302       -2.51504543132490       -4.25596908397264
C           27.62303464370513       -1.95076381455149       -5.49477308742806
C           27.57694342003963       -2.72507670709896       -6.65691653457448
C           27.90171112938533       -2.11217552701095       -7.99260338613293
C           27.17931502527875       -4.06315936025388       -6.57660016594356
C           26.84171651389795       -4.63296847925147       -5.34546061112062
C           26.45336237123696       -6.08431395163000       -5.25984893259655
C           26.91807496683175       -3.85721855187017       -4.18576887575277
H           31.89777784162349        0.18827308978226       -0.29336542687719
H           31.86505020651644       -1.30848983805128       -2.45368615312742
H           30.03319890188864       -2.32905704591335       -3.93971846899153
H           24.59185697560751       -1.91371302412852       -4.05974767730803
H           22.77467440071432       -1.01134826539100       -2.46425661129982
H           23.09017496148946        0.72825353438373        2.60502084874906
H           25.03995922577430        1.70613965052265        4.20053875282491
H           27.75282893182941        4.47896804726523        3.38909726123859
H           27.32295497598986        6.52410155561467        6.46014646856881
H           28.88159976913992        6.40560821504515        5.58134894871077
H           27.34085736949657        6.55140987345395        4.67493597159195
H           27.70733613962074        4.41491199886203        7.68777735305280
H           27.72911244136495        0.65093492524535        7.86297521120408
H           28.33461756120404        2.10003457651203        8.71629585943048
H           26.57204855114948        1.87165512862038        8.48148454681584
H           27.54157308875858        0.73163129894351        5.47610599680725
H           30.33612922879549        2.66302989040327        3.63853961204133
H           32.02384906071513        1.77161169264341        1.88430084083515
H           27.90632595553267       -0.90386007413446       -5.55129091066212
H           28.38386836161002       -2.85230031567923       -8.65127389622908
H           28.58481581728777       -1.25566844690000       -7.87685080080018
H           26.97086196896005       -1.76375569149597       -8.47059242470968
H           27.13313621011055       -4.66531763167728       -7.48005400235496
H           27.35683893662352       -6.69346148697474       -5.09100024411458
H           25.97013284684395       -6.41603581090087       -6.19257380930500
H           25.75054778752553       -6.25236255572826       -4.42775766060966
H           26.67703062830958       -4.29623574340790       -3.22203865232666
C           21.62005857342574       -0.00980577395539        0.00234948580226
C           22.78023933123544        0.00047293943592        0.01007220546253
138
 energy: -212.646248191640 gnorm: 0.154804452464 xtb: 6.5.1 (b24c23e)
Zn          16.93709001404505        0.00459550522593       -0.01978477415713
C           13.58494345937143        0.16445509108107       -0.25288086308158
C           14.25488966912256        1.30227654592943        0.12372062192070
C           13.59799988574156        2.53066540141917        0.51299321590203
C           14.55967151361311        3.42373652460657        0.80899349839462
C           15.83906832967600        2.77382105289932        0.60240340946304
N           15.62038105889221        1.47304473328601        0.18692593252989
C           17.06371205308985        3.38094247854711        0.78536795421332
C           18.30761220926789        2.74815352497332        0.57539615226545
C           19.59923725775214        3.40116248363779        0.57384540629942
C           20.53304079837862        2.45007061801686        0.34335754724681
N           18.44731721772287        1.44568102537386        0.33837009147647
C           19.77870986105795        1.22336017449503        0.20636391154779
C           20.26747249227577       -0.03607152626657        0.00234065216057
C           19.62097317239146       -1.27527043592028       -0.15401128451162
C           20.25265558903995       -2.51984495071705       -0.14087355736888
C           19.25996425488940       -3.45260831107891       -0.38912150958562
C           18.05765465517944       -2.75976826103138       -0.54844043459989
C           16.81094269572176       -3.37060863283669       -0.89164517600769
C           16.77711447922886       -4.82703306981406       -1.23100396838389
C           16.69409789094277       -5.24453827821263       -2.56103507410176
C           16.67816236593077       -6.60239923648904       -2.88050347646471
C           16.58346766090187       -7.04583184725488       -4.31910024219878
C           16.71458148595473       -7.54602367575319       -1.85635667305451
C           16.77454622717614       -7.14552280584612       -0.52207146350913
C           16.83468056057070       -8.18324723915649        0.57052720780820
C           16.80890435063919       -5.78650718945446       -0.21713907042007
C           15.62263445394591       -2.68676984320441       -0.91111306900988
C           14.31964784714063       -3.22695560957421       -1.22628388840095
C           13.42952158107553       -2.22867235425236       -1.03557666857983
C           14.17085578863015       -1.06749751595866       -0.60086461825543
N           15.47389102463422       -1.35077252852388       -0.54113348853560
N           18.28262817904409       -1.40296840681012       -0.38716550429774
C           17.10166886582649        4.79595330412843        1.23075557001333
C           16.77586580936597        5.82450196862298        0.34843290306588
C           16.82635177128798        7.15142493705844        0.76585966313857
C           16.49716537755583        8.26450799811087       -0.19497417771833
C           17.22025230758518        7.44334369020594        2.07057875131064
C           17.55385850011163        6.42404546194562        2.95998089763282
C           17.94806434137419        6.74583888530427        4.37839377420742
C           17.48473313994192        5.09952859189590        2.53620372032045
H           12.50228466919943        0.21999473721065       -0.26881772401881
H           12.53406594699153        2.70597544525121        0.56789045272948
H           14.38631784975314        4.43570149252511        1.14084933871888
H           19.79459662168798        4.44812091620399        0.71397089607960
H           21.60321559248539        2.62236416303861        0.28250718048411
H           21.30303829324141       -2.70948705422397        0.02469680529507
H           19.37262151376790       -4.51887736697476       -0.46672968292004
H           16.65070408303540       -4.50336349280123       -3.35385143137818
H           17.07064092224954       -8.01362699509341       -4.46517916328655
H           15.52938905065974       -7.14386405316439       -4.60050463469412
H           17.05296430905731       -6.31797309218808       -4.98574236867338
H           16.69405577251031       -8.60601168342994       -2.09896627565965
H           16.67399777869273       -7.73547711577047        1.55437867213458
H           16.07383836163457       -8.95240706583996        0.41043497804258
H           17.81780835091664       -8.66566943328360        0.56536878673878
H           16.85907936390470       -5.46410848799252        0.81844842958739
H           14.08283497327611       -4.23255345658113       -1.54314830972323
H           12.36495398097241       -2.29242390551359       -1.17533672628677
H           16.49317413200512        5.58464815354244       -0.67247685318405
H           16.02244672058903        9.09921855088411        0.32694834656774
H           15.82298467545937        7.91722181936732       -0.98190148097785
H           17.41900405581788        8.62696157241018       -0.66218503224766
H           17.26725596515766        8.47879010584512        2.39749675770572
H           17.05370469669889        6.75395761082903        5.01046758989288
H           18.42398805565701        7.72769746516388        4.43905977232579
H           18.64191827903447        5.99788093809205        4.77066519296978
H           17.72446637287104        4.29434604403645        3.22508796476817
Zn          27.46320784996851        0.01772331605178       -0.00992093546217
C           30.81535448273959        0.19710788527418       -0.22834799256060
C           30.14540827271706       -0.48133655933659       -1.21636581797363
C           30.80229795305641       -1.19716168057413       -2.28784487029006
C           29.84062589571409       -1.73006100147522       -3.06322199750997
C           28.56122933984240       -1.35072368759421       -2.49650089240379
N           28.77991678387404       -0.58957930009024       -1.36279030132537
C           27.33658565554719       -1.69545658878696       -3.02869624894129
C           26.09268548730198       -1.31763872975177       -2.47936620998769
C           24.80106049562195       -1.49792301890094       -3.10699719859348
C           23.86725663886688       -1.01179621753237       -2.25765598555515
N           25.95298035853255       -0.72742055820933       -1.29435210910036
C           24.62158758045623       -0.53874594374294       -1.11756405959660
C           24.13282536308753        0.00779272520702        0.03529734847050
C           24.77932479340699        0.50291189701116        1.18199553820606
C           24.14764186650434        0.83673709142540        2.38103632888750
C           25.14033305368179        1.33482053883263        3.20782990521076
C           26.34264301297572        1.29498154347060        2.49802565170515
C           27.58935496778921        1.79465674303557        2.98918746752040
C           27.62318316527564        2.52601803315234        4.29358296992252
C           27.70619947736514        3.91969898545304        4.32435497157791
C           27.72213480942801        4.60451901652026        5.53961949832081
C           27.81682962365439        6.10969183802763        5.56507376326054
C           27.68571568671770        3.88352083681891        6.73103278282531
C           27.62575133269124        2.49048733911266        6.71777717494662
C           27.56561703729598        1.72993678034538        8.01862579246466
C           27.59139294648387        1.81930743447328        5.49735731279664
C           28.77766328444414        1.62299954575682        2.32695762869197
C           30.08064962302548        2.07608181598111        2.75806095830185
C           30.97077608945461        1.61502648658064        1.85232006307272
C           30.22944218683192        0.87426796740612        0.85804727978460
N           28.92640688281541        0.89575079461677        1.14675303681178
N           26.11766963834716        0.76239746119903        1.23974495632730
C           27.29862847810239       -2.51712774962938       -4.26380060564960
C           27.62443138712985       -1.95598813910435       -5.49730278211411
C           27.57394586097590       -2.72628318339119       -6.65558405421698
C           27.90313196796910       -2.11326662732474       -7.99213432484227