      -----------------------------------------------------------      
     |                   =====================                   |     
     |                           x T B                           |     
     |                   =====================                   |     
     |                         S. Grimme                         |     
     |          Mulliken Center for Theoretical Chemistry        |     
     |                    University of Bonn                     |     
      -----------------------------------------------------------      

   * xtb version 6.5.1 (b24c23e) compiled by 'conda@728c89f4b128' on 2022-07-12

   xtb is free software: you can redistribute it and/or modify it under
   the terms of the GNU Lesser General Public License as published by
   the Free Software Foundation, either version 3 of the License, or
   (at your option) any later version.
   
   xtb is distributed in the hope that it will be useful,
   but WITHOUT ANY WARRANTY; without even the implied warranty of
   MERCHANTABILITY or FITNESS FOR A PARTICULAR PURPOSE.  See the
   GNU Lesser General Public License for more details.
   
   Cite this work as:
   * C. Bannwarth, E. Caldeweyher, S. Ehlert, A. Hansen, P. Pracht,
     J. Seibert, S. Spicher, S. Grimme, WIREs Comput. Mol. Sci., 2020, 11,
     e01493. DOI: 10.1002/wcms.1493
   
   for GFN2-xTB:
   * C. Bannwarth, S. Ehlert and S. Grimme., J. Chem. Theory Comput., 2019,
     15, 1652-1671. DOI: 10.1021/acs.jctc.8b01176
   for GFN1-xTB:
   * S. Grimme, C. Bannwarth, P. Shushkov, J. Chem. Theory Comput., 2017,
     13, 1989-2009. DOI: 10.1021/acs.jctc.7b00118
   for GFN0-xTB:
   * P. Pracht, E. Caldeweyher, S. Ehlert, S. Grimme, ChemRxiv, 2019, preprint.
     DOI: 10.26434/chemrxiv.8326202.v1
   for GFN-FF:
   * S. Spicher and S. Grimme, Angew. Chem. Int. Ed., 2020, 59, 15665-15673.
     DOI: 10.1002/anie.202004239
   
   for ALPB and GBSA implicit solvation:
   * S. Ehlert, M. Stahn, S. Spicher, S. Grimme, J. Chem. Theory Comput.,
     2021, 17, 4250-4261. DOI: 10.1021/acs.jctc.1c00471
   
   for DFT-D4:
   * E. Caldeweyher, C. Bannwarth and S. Grimme, J. Chem. Phys., 2017,
     147, 034112. DOI: 10.1063/1.4993215
   * E. Caldeweyher, S. Ehlert, A. Hansen, H. Neugebauer, S. Spicher,
     C. Bannwarth and S. Grimme, J. Chem. Phys., 2019, 150, 154122.
     DOI: 10.1063/1.5090222
   * E. Caldeweyher, J.-M. Mewes, S. Ehlert and S. Grimme, Phys. Chem. Chem. Phys.
     2020, 22, 8499-8512. DOI: 10.1039/D0CP00502A
   
   for sTDA-xTB:
   * S. Grimme and C. Bannwarth, J. Chem. Phys., 2016, 145, 054103.
     DOI: 10.1063/1.4959605
   
   in the mass-spec context:
   * V. Asgeirsson, C. Bauer and S. Grimme, Chem. Sci., 2017, 8, 4879.
     DOI: 10.1039/c7sc00601b
   * J. Koopman and S. Grimme, ACS Omega 2019, 4, 12, 15120-15133.
     DOI: 10.1021/acsomega.9b02011
   
   for metadynamics refer to:
   * S. Grimme, J. Chem. Theory Comput., 2019, 155, 2847-2862
     DOI: 10.1021/acs.jctc.9b00143
   
   for SPH calculations refer to:
   * S. Spicher and S. Grimme, J. Chem. Theory Comput., 2021, 17, 1701-1714
     DOI: 10.1021/acs.jctc.0c01306
   
   with help from (in alphabetical order)
   P. Atkinson, C. Bannwarth, F. Bohle, G. Brandenburg, E. Caldeweyher
   M. Checinski, S. Dohm, S. Ehlert, S. Ehrlich, I. Gerasimov, C. Hölzer
   A. Katbashev, J. Koopman, C. Lavigne, S. Lehtola, F. März, M. Müller,
   F. Musil, H. Neugebauer, J. Pisarek, C. Plett, P. Pracht, F. Pultar,
   J. Seibert, P. Shushkov, S. Spicher, M. Stahn, M. Steiner, T. Strunk,
   J. Stückrath, T. Rose, and J. Unsleber
   
 * started run on 2022/07/27 at 22:33:55.389     

           -------------------------------------------------
          |                Calculation Setup                |
           -------------------------------------------------

          program call               : xtb xtbopt.xyz --gfn 1 --vipea
          hostname                   : cx3-14-14.cx3.hpc.ic.ac.uk
          coordinate file            : xtbopt.xyz
          omp threads                :                     1

   ID    Z sym.   atoms
    1    6 C      1-5, 7-10, 12-16, 18-23, 25-28, 30-35, 60-64, 66-69, 71-75,
                  77-82, 84-87, 89-94, 119-143, 145-148, 150-154, 156-161,
                  163-166, 168-173, 197-201, 203-206, 208-212, 214-219,
                  221-224, 226-231, 255-259, 261-264, 266-270, 272-277,
                  279-282, 284-289, 313-317, 319-322, 324-328, 330-335,
                  337-340, 342-347
    2    7 N      6, 11, 17, 24, 29, 36, 65, 70, 76, 83, 88, 95, 144, 149,
                  155, 162, 167, 174, 202, 207, 213, 220, 225, 232, 260, 265,
                  271, 278, 283, 290, 318, 323, 329, 336, 341, 348
    3    1 H      37-59, 96-118, 175-196, 233-254, 291-312, 349-370

           -------------------------------------------------
          |                 I P E A - x T B                 |
           -------------------------------------------------

        Reference                      10.1039/c7sc00601b
      * Hamiltonian:
        H0-scaling (s, p, d)           2.150000    2.300000    2.000000
        zeta-weighting                 0.000000
      * Dispersion:
        s8                             2.400000
        a1                             0.630000
        a2                             5.000000
        s9                             0.000000
      * Repulsion:
        kExp                           1.500000
        rExp                           1.000000
      * Coulomb:
        alpha                          1.000000
        third order                    atomic
        anisotropic                    false
      * Halogen bond correction:
        rad-scale                      1.300000
        damping                        0.440000


          ...................................................
          :                      SETUP                      :
          :.................................................:
          :  # basis functions                1448          :
          :  # atomic orbitals                1448          :
          :  # shells                          976          :
          :  # electrons                      1114          :
          :  # halogen bonds                     0          :
          :  max. iterations                   250          :
          :  Hamiltonian                  GFN1-xTB          :
          :  restarted?                      false          :
          :  GBSA solvation                  false          :
          :  PC potential                    false          :
          :  electronic temp.          300.0000000     K    :
          :  accuracy                    1.0000000          :
          :  -> integral cutoff          0.2500000E+02      :
          :  -> integral neglect         0.1000000E-07      :
          :  -> SCF convergence          0.1000000E-05 Eh   :
          :  -> wf. convergence          0.2000000E-04 e    :
          :  Broyden damping             0.4000000          :
          ...................................................

 iter      E             dE          RMSdq      gap      omega  full diag
   1   -704.6931476 -0.704693E+03  0.996E+00    0.49       0.0  T
   2   -705.6910302 -0.997883E+00  0.619E+00    1.16       1.0  T
   3   -694.6610440  0.110300E+02  0.464E+00    0.17       1.0  T
   4   -707.3928905 -0.127318E+02  0.108E+00    0.88       1.0  T
   5   -708.3524484 -0.959558E+00  0.291E-01    0.82       1.0  T
   6   -708.4135873 -0.611389E-01  0.119E-01    0.88       1.0  T
   7   -708.4228963 -0.930904E-02  0.403E-02    0.86       1.0  T
   8   -708.4233103 -0.414005E-03  0.330E-02    0.86       1.0  T
   9   -708.4236605 -0.350127E-03  0.210E-02    0.87       1.0  T
  10   -708.4238863 -0.225813E-03  0.669E-03    0.87       1.0  T
  11   -708.4239073 -0.209916E-04  0.242E-03    0.87       2.1  T
  12   -708.4239119 -0.461679E-05  0.823E-04    0.87       6.3  T
  13   -708.4239123 -0.413670E-06  0.363E-04    0.87      14.3  T
  14   -708.4239124 -0.796687E-07  0.136E-04    0.87      38.3  T
  15   -708.4239124 -0.968976E-08  0.625E-05    0.87      83.2  T

   *** convergence criteria satisfied after 15 iterations ***

         #    Occupation            Energy/Eh            Energy/eV
      -------------------------------------------------------------
         1        2.0000           -1.0347120             -28.1559
       ...           ...                  ...                  ...
       551        2.0000           -0.3531059              -9.6085
       552        2.0000           -0.3526834              -9.5970
       553        2.0000           -0.3522293              -9.5846
       554        2.0000           -0.3513547              -9.5608
       555        2.0000           -0.3512432              -9.5578
       556        2.0000           -0.3511446              -9.5551
       557        2.0000           -0.3487571              -9.4902 (HOMO)
       558        0.0000           -0.3168320              -8.6214 (LUMO)
       559                         -0.3093882              -8.4189
       560                         -0.3013494              -8.2001
       561                         -0.3006768              -8.1818
       562                         -0.2997608              -8.1569
       ...                                ...                  ...
      1448                        544.4462053           14815.1353
      -------------------------------------------------------------
                  HL-Gap            0.0319250 Eh            0.8687 eV
             Fermi-level           -0.3326664 Eh           -9.0523 eV

 SCC (total)                   0 d,  0 h,  0 min, 28.853 sec
 SCC setup                      ...        0 min,  0.023 sec (  0.080%)
 Dispersion                     ...        0 min,  0.025 sec (  0.086%)
 classical contributions        ...        0 min,  0.007 sec (  0.024%)
 integral evaluation            ...        0 min,  1.979 sec (  6.860%)
 iterations                     ...        0 min, 22.650 sec ( 78.500%)
 molecular gradient             ...        0 min,  3.885 sec ( 13.466%)
 printout                       ...        0 min,  0.284 sec (  0.983%)

         :::::::::::::::::::::::::::::::::::::::::::::::::::::
         ::                     SUMMARY                     ::
         :::::::::::::::::::::::::::::::::::::::::::::::::::::
         :: total energy            -694.369217364701 Eh    ::
         :: gradient norm              0.107159901380 Eh/a0 ::
         :: HOMO-LUMO gap              0.868724825073 eV    ::
         ::.................................................::
         :: SCC energy              -708.423912391282 Eh    ::
         :: -> electrostatic           0.533385118383 Eh    ::
         :: repulsion energy          14.367860693905 Eh    ::
         :: dispersion energy         -0.313165667325 Eh    ::
         :: halogen bond corr.         0.000000000000 Eh    ::
         :: add. restraining           0.000000000000 Eh    ::
         :: total charge               0.000000000183 e     ::
         :::::::::::::::::::::::::::::::::::::::::::::::::::::

           ------------------------------------------------- 
          |        vertical delta SCC IP calculation        |
           ------------------------------------------------- 
   1   -708.0567594 -0.708057E+03  0.488E-02    0.87       0.0  T
   2   -708.0420817  0.146777E-01  0.932E-02    0.81       1.0  T
   3   -708.0574728 -0.153911E-01  0.398E-02    0.87       1.0  T
   4   -708.0581011 -0.628216E-03  0.368E-02    0.87       1.0  T
   5   -708.0571160  0.985036E-03  0.348E-02    0.87       1.0  T
   6   -708.0563337  0.782306E-03  0.366E-02    0.87       1.0  T
   7   -708.0558252  0.508516E-03  0.415E-02    0.87       1.0  T
   8   -708.0593297 -0.350454E-02  0.136E-02    0.87       1.0  T
   9   -708.0595244 -0.194641E-03  0.939E-03    0.87       1.0  T
  10   -708.0596404 -0.115992E-03  0.552E-03    0.87       1.0  T
  11   -708.0596810 -0.406697E-04  0.284E-03    0.87       1.8  T
  12   -708.0596963 -0.152457E-04  0.100E-03    0.87       5.2  T
  13   -708.0596958  0.522674E-06  0.955E-04    0.87       5.4  T
  14   -708.0596975 -0.171962E-05  0.508E-04    0.87      10.2  T
  15   -708.0596980 -0.488685E-06  0.257E-04    0.87      20.3  T
  16   -708.0596981 -0.996762E-07  0.123E-04    0.87      42.3  T
  17   -708.0596981 -0.261205E-07  0.529E-05    0.87      98.3  T
     SCC iter.                  ...        0 min, 24.746 sec
     gradient                   ...        0 min,  3.928 sec
------------------------------------------------------------------------
empirical IP shift (eV):    4.8455
delta SCC IP (eV):    5.0653
------------------------------------------------------------------------
           ------------------------------------------------- 
          |        vertical delta SCC EA calculation        |
           ------------------------------------------------- 
   1   -708.7055118 -0.708706E+03  0.933E-02    0.22       0.0  T
   2   -708.7100426 -0.453076E-02  0.876E-02    0.06       1.0  T
   3   -708.7170269 -0.698430E-02  0.491E-02    0.15       1.0  T
   4   -708.7179097 -0.882794E-03  0.377E-02    0.07       1.0  T
   5   -708.7184970 -0.587296E-03  0.253E-02    0.12       1.0  T
   6   -708.7174731  0.102391E-02  0.246E-02    0.08       1.0  T
   7   -708.7175535 -0.803911E-04  0.230E-02    0.07       1.0  T
   8   -708.7191499 -0.159646E-02  0.746E-03    0.11       1.0  T
   9   -708.7192659 -0.115986E-03  0.249E-03    0.10       2.1  T
  10   -708.7192726 -0.668744E-05  0.136E-03    0.10       3.8  T
  11   -708.7192759 -0.326779E-05  0.459E-04    0.10      11.3  T
  12   -708.7192761 -0.246199E-06  0.241E-04    0.10      21.6  T
  13   -708.7192762 -0.580200E-07  0.158E-04    0.10      33.0  T
  14   -708.7192762 -0.138886E-07  0.464E-05    0.10     112.0  T
     SCC iter.                  ...        0 min, 21.099 sec
     gradient                   ...        0 min,  3.915 sec
------------------------------------------------------------------------
empirical EA shift (eV):    4.8455
delta SCC EA (eV):    3.1918
------------------------------------------------------------------------
           -------------------------------------------------
          |                Property Printout                |
           -------------------------------------------------

    * Orbital Energies and Occupations

         #    Occupation            Energy/Eh            Energy/eV
      -------------------------------------------------------------
         1        2.0000           -1.0052949             -27.3555
       ...           ...                  ...                  ...
       546        2.0000           -0.3265406              -8.8856
       547        2.0000           -0.3264118              -8.8821
       548        2.0000           -0.3236322              -8.8065
       549        2.0000           -0.3217896              -8.7563
       550        2.0000           -0.3216968              -8.7538
       551        2.0000           -0.3209475              -8.7334
       552        2.0000           -0.3187655              -8.6741
       553        2.0000           -0.3185860              -8.6692
       554        2.0000           -0.3183285              -8.6622
       555        2.0000           -0.3182969              -8.6613
       556        2.0000           -0.3155143              -8.5856
       557        2.0000           -0.3090197              -8.4089
       558        0.8244           -0.2755492              -7.4981 (HOMO)
       559        0.0967           -0.2719572              -7.4003 (LUMO)
       560        0.0708           -0.2716337              -7.3915
       561        0.0071           -0.2693864              -7.3304
       562        0.0005           -0.2669157              -7.2631
       563        0.0004           -0.2667382              -7.2583
       564        0.0000           -0.2603939              -7.0857
       565                         -0.2578396              -7.0162
       566                         -0.2575700              -7.0088
       567                         -0.2539312              -6.9098
       568                         -0.2535632              -6.8998
       569                         -0.2500600              -6.8045
       ...                                ...                  ...
      1448                        544.4819805           14816.1088
      -------------------------------------------------------------
                  HL-Gap            0.0035920 Eh            0.0977 eV
             Fermi-level           -0.2831913 Eh           -7.7060 eV

  Mulliken/CM5 charges         n(s)   n(p)   n(d)
     1C    -0.02487 -0.06570   1.087  2.938  0.000
     2C     0.06094  0.12133   1.104  2.835  0.000
     3C    -0.03705 -0.08234   1.080  2.957  0.000
     4C    -0.03328 -0.07822   1.075  2.958  0.000
     5C     0.06255  0.12639   1.101  2.836  0.000
     6N    -0.16023 -0.51306   1.312  3.848  0.000
     7C     0.00925  0.01507   1.095  2.896  0.000
     8C     0.00355 -0.00325   1.078  2.919  0.000
     9C    -0.03824 -0.09027   1.069  2.969  0.000
    10C     0.03034 -0.01481   1.102  2.867  0.000
    11N    -0.23865 -0.59839   1.304  3.935  0.000
    12C     0.03693  0.04872   1.097  2.866  0.000
    13C    -0.05893 -0.10749   1.041  3.018  0.000
    14C     0.05968  0.12795   1.120  2.821  0.000
    15C    -0.03692 -0.08285   1.086  2.950  0.000
    16C    -0.03804 -0.08348   1.091  2.947  0.000
    17N    -0.28669 -0.47326   1.293  3.994  0.000
    18C     0.06374  0.13429   1.129  2.807  0.000
    19C     0.01686  0.02406   1.085  2.898  0.000
    20C     0.06593  0.13074   1.109  2.825  0.000
    21C    -0.03336 -0.07778   1.080  2.954  0.000
    22C    -0.03208 -0.07696   1.076  2.956  0.000
    23C     0.06221  0.12558   1.101  2.837  0.000
    24N    -0.15789 -0.50997   1.314  3.844  0.000
    25C     0.00898  0.01486   1.095  2.896  0.000
    26C     0.00295 -0.00383   1.077  2.920  0.000
    27C    -0.03677 -0.08892   1.071  2.965  0.000
    28C     0.03032 -0.01493   1.102  2.867  0.000
    29N    -0.23921 -0.59872   1.305  3.935  0.000
    30C     0.03648  0.04819   1.097  2.867  0.000
    31C    -0.05958 -0.10804   1.040  3.019  0.000
    32C     0.06005  0.12933   1.121  2.819  0.000
    33C    -0.03816 -0.08414   1.086  2.952  0.000
    34C    -0.04175 -0.08810   1.090  2.951  0.000
    35C     0.05788  0.12367   1.124  2.818  0.000
    36N    -0.28908 -0.47607   1.293  3.996  0.000
    37H     0.02503  0.08404   0.975  0.000  0.000
    38H     0.03593  0.09259   0.964  0.000  0.000
    39H     0.02719  0.08583   0.973  0.000  0.000
    40H     0.16255  0.37088   0.837  0.000  0.000
    41H     0.02153  0.07942   0.978  0.000  0.000
    42H     0.02628  0.08830   0.974  0.000  0.000
    43H     0.01983  0.08343   0.980  0.000  0.000
    44H     0.16855  0.36143   0.831  0.000  0.000
    45H     0.04181  0.10731   0.958  0.000  0.000
    46H     0.01418  0.07252   0.986  0.000  0.000
    47H     0.01863  0.07770   0.981  0.000  0.000
    48H     0.02259  0.08067   0.977  0.000  0.000
    49H     0.03247  0.09057   0.968  0.000  0.000
    50H     0.02798  0.08704   0.972  0.000  0.000
    51H     0.16098  0.36929   0.839  0.000  0.000
    52H     0.02124  0.07915   0.979  0.000  0.000
    53H     0.02694  0.08898   0.973  0.000  0.000
    54H     0.01960  0.08322   0.980  0.000  0.000
    55H     0.16828  0.36112   0.832  0.000  0.000
    56H     0.04158  0.10706   0.958  0.000  0.000
    57H     0.01477  0.07311   0.985  0.000  0.000
    58H     0.01773  0.07632   0.982  0.000  0.000
    59H     0.02596  0.08237   0.974  0.000  0.000
    60C    -0.02483 -0.06566   1.087  2.938  0.000
    61C     0.06094  0.12134   1.104  2.835  0.000
    62C    -0.03703 -0.08232   1.080  2.957  0.000
    63C    -0.03328 -0.07822   1.075  2.958  0.000
    64C     0.06258  0.12643   1.101  2.836  0.000
    65N    -0.16020 -0.51303   1.312  3.848  0.000
    66C     0.00921  0.01503   1.094  2.896  0.000
    67C     0.00354 -0.00326   1.078  2.919  0.000
    68C    -0.03829 -0.09033   1.069  2.969  0.000
    69C     0.03031 -0.01484   1.102  2.867  0.000
    70N    -0.23870 -0.59841   1.304  3.935  0.000
    71C     0.03693  0.04871   1.097  2.866  0.000
    72C    -0.05885 -0.10739   1.041  3.018  0.000
    73C     0.05974  0.12802   1.120  2.820  0.000
    74C    -0.03687 -0.08279   1.086  2.950  0.000
    75C    -0.03799 -0.08343   1.091  2.947  0.000
    76N    -0.28667 -0.47326   1.293  3.994  0.000
    77C     0.06376  0.13430   1.129  2.807  0.000
    78C     0.01688  0.02409   1.085  2.898  0.000
    79C     0.06592  0.13073   1.109  2.825  0.000
    80C    -0.03336 -0.07778   1.080  2.954  0.000
    81C    -0.03208 -0.07696   1.076  2.956  0.000
    82C     0.06222  0.12560   1.101  2.837  0.000
    83N    -0.15788 -0.50998   1.314  3.844  0.000
    84C     0.00897  0.01484   1.095  2.896  0.000
    85C     0.00295 -0.00384   1.077  2.920  0.000
    86C    -0.03671 -0.08885   1.071  2.965  0.000
    87C     0.03034 -0.01491   1.102  2.867  0.000
    88N    -0.23918 -0.59870   1.305  3.935  0.000
    89C     0.03646  0.04818   1.097  2.867  0.000
    90C    -0.05965 -0.10810   1.040  3.020  0.000
    91C     0.06009  0.12937   1.121  2.819  0.000
    92C    -0.03815 -0.08412   1.086  2.952  0.000
    93C    -0.04171 -0.08806   1.090  2.951  0.000
    94C     0.05790  0.12370   1.125  2.818  0.000
    95N    -0.28905 -0.47604   1.293  3.996  0.000
    96H     0.02509  0.08409   0.975  0.000  0.000
    97H     0.03598  0.09264   0.964  0.000  0.000
    98H     0.02724  0.08588   0.973  0.000  0.000
    99H     0.16255  0.37090   0.837  0.000  0.000
   100H     0.02143  0.07932   0.979  0.000  0.000
   101H     0.02631  0.08833   0.974  0.000  0.000
   102H     0.01974  0.08334   0.980  0.000  0.000
   103H     0.16851  0.36139   0.831  0.000  0.000
   104H     0.04190  0.10740   0.958  0.000  0.000
   105H     0.01434  0.07270   0.986  0.000  0.000
   106H     0.01864  0.07770   0.981  0.000  0.000
   107H     0.02263  0.08069   0.977  0.000  0.000
   108H     0.03253  0.09063   0.967  0.000  0.000
   109H     0.02802  0.08708   0.972  0.000  0.000
   110H     0.16099  0.36931   0.839  0.000  0.000
   111H     0.02134  0.07925   0.979  0.000  0.000
   112H     0.02696  0.08900   0.973  0.000  0.000
   113H     0.01969  0.08331   0.980  0.000  0.000
   114H     0.16832  0.36115   0.832  0.000  0.000
   115H     0.04153  0.10701   0.958  0.000  0.000
   116H     0.01463  0.07297   0.985  0.000  0.000
   117H     0.01774  0.07633   0.982  0.000  0.000
   118H     0.02600  0.08241   0.974  0.000  0.000
   119C    -0.02024 -0.02110   1.061  2.959  0.000
   120C    -0.02183 -0.02349   1.089  2.933  0.000
   121C    -0.02498 -0.02581   1.057  2.968  0.000
   122C    -0.01734 -0.01893   1.095  2.923  0.000
   123C    -0.02358 -0.02440   1.060  2.963  0.000
   124C    -0.02318 -0.02476   1.088  2.935  0.000
   125C    -0.02603 -0.02685   1.058  2.968  0.000
   126C    -0.02081 -0.02238   1.092  2.929  0.000
   127C    -0.02504 -0.02586   1.059  2.966  0.000
   128C    -0.02216 -0.02373   1.090  2.932  0.000
   129C    -0.02503 -0.02585   1.059  2.966  0.000
   130C    -0.02216 -0.02374   1.090  2.932  0.000
   131C    -0.02604 -0.02687   1.058  2.968  0.000
   132C    -0.02076 -0.02234   1.092  2.929  0.000
   133C    -0.02353 -0.02436   1.060  2.963  0.000
   134C    -0.02322 -0.02479   1.088  2.935  0.000
   135C    -0.02493 -0.02576   1.057  2.968  0.000
   136C    -0.01724 -0.01883   1.095  2.922  0.000
   137C    -0.02016 -0.02102   1.061  2.959  0.000
   138C    -0.02177 -0.02342   1.089  2.933  0.000
   139C     0.01086  0.01813   1.080  2.909  0.000
   140C     0.06489  0.12970   1.109  2.826  0.000
   141C    -0.03710 -0.08152   1.078  2.959  0.000
   142C    -0.03396 -0.07880   1.077  2.957  0.000
   143C     0.05987  0.12329   1.098  2.843  0.000
   144N    -0.15868 -0.51094   1.313  3.845  0.000
   145C     0.01168  0.01738   1.096  2.892  0.000
   146C     0.00517 -0.00174   1.078  2.917  0.000
   147C    -0.03751 -0.08955   1.066  2.971  0.000
   148C     0.03061 -0.01455   1.102  2.867  0.000
   149N    -0.23998 -0.59957   1.305  3.935  0.000
   150C     0.03656  0.04836   1.097  2.866  0.000
   151C    -0.05821 -0.10665   1.041  3.017  0.000
   152C     0.05713  0.12511   1.116  2.827  0.000
   153C    -0.03864 -0.08461   1.085  2.954  0.000
   154C    -0.04029 -0.08571   1.089  2.951  0.000
   155N    -0.28613 -0.47230   1.293  3.993  0.000
   156C     0.06262  0.13347   1.129  2.808  0.000
   157C     0.01461  0.02185   1.084  2.901  0.000
   158C     0.06515  0.13009   1.109  2.825  0.000
   159C    -0.03570 -0.08011   1.077  2.958  0.000
   160C    -0.03410 -0.07894   1.076  2.958  0.000
   161C     0.06011  0.12344   1.098  2.842  0.000
   162N    -0.15745 -0.50973   1.314  3.843  0.000
   163C     0.01102  0.01673   1.095  2.894  0.000
   164C     0.00502 -0.00190   1.078  2.917  0.000
   165C    -0.03728 -0.08933   1.066  2.971  0.000
   166C     0.03074 -0.01443   1.102  2.867  0.000
   167N    -0.23974 -0.59939   1.304  3.935  0.000
   168C     0.03648  0.04834   1.097  2.866  0.000
   169C    -0.05861 -0.10708   1.041  3.018  0.000
   170C     0.05771  0.12592   1.116  2.826  0.000
   171C    -0.03835 -0.08433   1.086  2.953  0.000
   172C    -0.04098 -0.08643   1.089  2.952  0.000
   173C     0.06232  0.13289   1.129  2.808  0.000
   174N    -0.28779 -0.47390   1.292  3.996  0.000
   175H     0.02883  0.08686   0.971  0.000  0.000
   176H     0.02504  0.08385   0.975  0.000  0.000
   177H     0.16082  0.36877   0.839  0.000  0.000
   178H     0.02270  0.08048   0.977  0.000  0.000
   179H     0.02626  0.08826   0.974  0.000  0.000
   180H     0.01956  0.08318   0.980  0.000  0.000
   181H     0.16740  0.36023   0.833  0.000  0.000
   182H     0.04041  0.10592   0.960  0.000  0.000
   183H     0.01436  0.07282   0.986  0.000  0.000
   184H     0.01592  0.07474   0.984  0.000  0.000
   185H     0.02039  0.07838   0.980  0.000  0.000
   186H     0.03116  0.08921   0.969  0.000  0.000
   187H     0.02561  0.08442   0.974  0.000  0.000
   188H     0.16055  0.36851   0.839  0.000  0.000
   189H     0.02315  0.08093   0.977  0.000  0.000
   190H     0.02585  0.08786   0.974  0.000  0.000
   191H     0.02029  0.08389   0.980  0.000  0.000
   192H     0.16752  0.36037   0.832  0.000  0.000
   193H     0.03998  0.10550   0.960  0.000  0.000
   194H     0.01367  0.07212   0.986  0.000  0.000
   195H     0.01566  0.07452   0.984  0.000  0.000
   196H     0.01882  0.07685   0.981  0.000  0.000
   197C     0.01150  0.01874   1.081  2.907  0.000
   198C     0.06488  0.12982   1.110  2.826  0.000
   199C    -0.03734 -0.08175   1.076  2.961  0.000
   200C    -0.03454 -0.07938   1.076  2.958  0.000
   201C     0.05892  0.12226   1.097  2.844  0.000
   202N    -0.15797 -0.51026   1.314  3.844  0.000
   203C     0.01203  0.01772   1.096  2.891  0.000
   204C     0.00535 -0.00157   1.078  2.917  0.000
   205C    -0.03727 -0.08933   1.066  2.971  0.000
   206C     0.03070 -0.01447   1.102  2.867  0.000
   207N    -0.24007 -0.59966   1.305  3.935  0.000
   208C     0.03640  0.04820   1.097  2.866  0.000
   209C    -0.05806 -0.10651   1.041  3.017  0.000
   210C     0.05635  0.12425   1.115  2.829  0.000
   211C    -0.03893 -0.08490   1.085  2.954  0.000
   212C    -0.04108 -0.08651   1.089  2.953  0.000
   213N    -0.28674 -0.47282   1.293  3.994  0.000
   214C     0.06240  0.13328   1.129  2.808  0.000
   215C     0.01274  0.01998   1.082  2.905  0.000
   216C     0.06489  0.12982   1.109  2.826  0.000
   217C    -0.03685 -0.08126   1.077  2.960  0.000
   218C    -0.03452 -0.07936   1.076  2.958  0.000
   219C     0.05910  0.12244   1.097  2.844  0.000
   220N    -0.15775 -0.51002   1.315  3.843  0.000
   221C     0.01183  0.01752   1.096  2.892  0.000
   222C     0.00529 -0.00163   1.078  2.917  0.000
   223C    -0.03724 -0.08930   1.066  2.971  0.000
   224C     0.03071 -0.01446   1.102  2.867  0.000
   225N    -0.24003 -0.59962   1.305  3.935  0.000
   226C     0.03634  0.04814   1.097  2.867  0.000
   227C    -0.05813 -0.10658   1.041  3.017  0.000
   228C     0.05637  0.12430   1.115  2.829  0.000
   229C    -0.03893 -0.08490   1.085  2.954  0.000
   230C    -0.04143 -0.08686   1.088  2.953  0.000
   231C     0.06231  0.13317   1.130  2.808  0.000
   232N    -0.28715 -0.47323   1.293  3.994  0.000
   233H     0.02934  0.08740   0.971  0.000  0.000
   234H     0.02447  0.08331   0.976  0.000  0.000
   235H     0.16031  0.36822   0.840  0.000  0.000
   236H     0.02276  0.08054   0.977  0.000  0.000
   237H     0.02576  0.08776   0.974  0.000  0.000
   238H     0.01950  0.08312   0.980  0.000  0.000
   239H     0.16695  0.35979   0.833  0.000  0.000
   240H     0.03987  0.10537   0.960  0.000  0.000
   241H     0.01406  0.07251   0.986  0.000  0.000
   242H     0.01507  0.07389   0.985  0.000  0.000
   243H     0.01927  0.07725   0.981  0.000  0.000
   244H     0.02993  0.08798   0.970  0.000  0.000
   245H     0.02468  0.08351   0.975  0.000  0.000
   246H     0.16027  0.36817   0.840  0.000  0.000
   247H     0.02286  0.08064   0.977  0.000  0.000
   248H     0.02558  0.08758   0.974  0.000  0.000
   249H     0.01975  0.08337   0.980  0.000  0.000
   250H     0.16693  0.35977   0.833  0.000  0.000
   251H     0.03972  0.10523   0.960  0.000  0.000
   252H     0.01387  0.07233   0.986  0.000  0.000
   253H     0.01488  0.07371   0.985  0.000  0.000
   254H     0.01870  0.07668   0.981  0.000  0.000
   255C     0.01276  0.02000   1.082  2.905  0.000
   256C     0.06489  0.12983   1.109  2.826  0.000
   257C    -0.03685 -0.08126   1.077  2.960  0.000
   258C    -0.03452 -0.07936   1.076  2.958  0.000
   259C     0.05910  0.12243   1.097  2.844  0.000
   260N    -0.15774 -0.51002   1.315  3.843  0.000
   261C     0.01183  0.01752   1.096  2.892  0.000
   262C     0.00529 -0.00163   1.078  2.917  0.000
   263C    -0.03723 -0.08928   1.066  2.971  0.000
   264C     0.03071 -0.01446   1.102  2.867  0.000
   265N    -0.24004 -0.59962   1.305  3.935  0.000
   266C     0.03634  0.04814   1.097  2.867  0.000
   267C    -0.05813 -0.10658   1.041  3.017  0.000
   268C     0.05637  0.12429   1.115  2.829  0.000
   269C    -0.03893 -0.08490   1.085  2.954  0.000
   270C    -0.04144 -0.08687   1.088  2.953  0.000
   271N    -0.28715 -0.47324   1.293  3.994  0.000
   272C     0.06231  0.13317   1.130  2.808  0.000
   273C     0.01146  0.01870   1.081  2.907  0.000
   274C     0.06488  0.12981   1.110  2.826  0.000
   275C    -0.03736 -0.08177   1.076  2.961  0.000
   276C    -0.03455 -0.07939   1.076  2.958  0.000
   277C     0.05891  0.12225   1.097  2.844  0.000
   278N    -0.15797 -0.51026   1.314  3.844  0.000
   279C     0.01203  0.01772   1.096  2.891  0.000
   280C     0.00534 -0.00157   1.078  2.917  0.000
   281C    -0.03726 -0.08932   1.066  2.971  0.000
   282C     0.03071 -0.01445   1.102  2.867  0.000
   283N    -0.24006 -0.59967   1.305  3.936  0.000
   284C     0.03642  0.04823   1.097  2.866  0.000
   285C    -0.05810 -0.10655   1.041  3.017  0.000
   286C     0.05635  0.12425   1.115  2.829  0.000
   287C    -0.03893 -0.08491   1.085  2.954  0.000
   288C    -0.04108 -0.08651   1.089  2.953  0.000
   289C     0.06240  0.13327   1.129  2.808  0.000
   290N    -0.28674 -0.47281   1.293  3.994  0.000
   291H     0.02994  0.08799   0.970  0.000  0.000
   292H     0.02468  0.08351   0.975  0.000  0.000
   293H     0.16027  0.36817   0.840  0.000  0.000
   294H     0.02287  0.08065   0.977  0.000  0.000
   295H     0.02559  0.08759   0.974  0.000  0.000
   296H     0.01975  0.08337   0.980  0.000  0.000
   297H     0.16694  0.35977   0.833  0.000  0.000
   298H     0.03972  0.10523   0.960  0.000  0.000
   299H     0.01386  0.07233   0.986  0.000  0.000
   300H     0.01488  0.07371   0.985  0.000  0.000
   301H     0.01869  0.07666   0.981  0.000  0.000
   302H     0.02932  0.08738   0.971  0.000  0.000
   303H     0.02446  0.08331   0.976  0.000  0.000
   304H     0.16031  0.36822   0.840  0.000  0.000
   305H     0.02275  0.08054   0.977  0.000  0.000
   306H     0.02576  0.08776   0.974  0.000  0.000
   307H     0.01951  0.08313   0.980  0.000  0.000
   308H     0.16699  0.35983   0.833  0.000  0.000
   309H     0.03988  0.10539   0.960  0.000  0.000
   310H     0.01405  0.07251   0.986  0.000  0.000
   311H     0.01507  0.07389   0.985  0.000  0.000
   312H     0.01928  0.07726   0.981  0.000  0.000
   313C     0.01468  0.02193   1.084  2.901  0.000
   314C     0.06516  0.13009   1.109  2.825  0.000
   315C    -0.03567 -0.08008   1.077  2.958  0.000
   316C    -0.03408 -0.07893   1.076  2.958  0.000
   317C     0.06015  0.12348   1.098  2.842  0.000
   318N    -0.15744 -0.50972   1.314  3.843  0.000
   319C     0.01099  0.01670   1.095  2.894  0.000
   320C     0.00501 -0.00191   1.078  2.917  0.000
   321C    -0.03726 -0.08932   1.066  2.971  0.000
   322C     0.03074 -0.01443   1.102  2.867  0.000
   323N    -0.23973 -0.59938   1.304  3.935  0.000
   324C     0.03649  0.04834   1.097  2.866  0.000
   325C    -0.05860 -0.10707   1.041  3.018  0.000
   326C     0.05776  0.12598   1.116  2.826  0.000
   327C    -0.03831 -0.08429   1.086  2.952  0.000
   328C    -0.04094 -0.08638   1.090  2.951  0.000
   329N    -0.28781 -0.47391   1.292  3.996  0.000
   330C     0.06228  0.13284   1.129  2.808  0.000
   331C     0.01088  0.01815   1.080  2.909  0.000
   332C     0.06492  0.12974   1.109  2.826  0.000
   333C    -0.03709 -0.08151   1.078  2.959  0.000
   334C    -0.03394 -0.07879   1.077  2.957  0.000
   335C     0.05990  0.12332   1.098  2.842  0.000
   336N    -0.15866 -0.51093   1.313  3.845  0.000
   337C     0.01168  0.01738   1.096  2.892  0.000
   338C     0.00517 -0.00174   1.078  2.917  0.000
   339C    -0.03751 -0.08956   1.066  2.971  0.000
   340C     0.03062 -0.01455   1.102  2.867  0.000
   341N    -0.23995 -0.59956   1.305  3.935  0.000
   342C     0.03657  0.04838   1.097  2.866  0.000
   343C    -0.05822 -0.10666   1.041  3.017  0.000
   344C     0.05714  0.12512   1.116  2.827  0.000
   345C    -0.03864 -0.08461   1.085  2.954  0.000
   346C    -0.04027 -0.08570   1.089  2.951  0.000
   347C     0.06263  0.13347   1.129  2.808  0.000
   348N    -0.28612 -0.47228   1.293  3.993  0.000
   349H     0.03119  0.08924   0.969  0.000  0.000
   350H     0.02564  0.08446   0.974  0.000  0.000
   351H     0.16055  0.36850   0.839  0.000  0.000
   352H     0.02315  0.08094   0.977  0.000  0.000
   353H     0.02584  0.08785   0.974  0.000  0.000
   354H     0.02033  0.08393   0.980  0.000  0.000
   355H     0.16753  0.36037   0.832  0.000  0.000
   356H     0.04003  0.10555   0.960  0.000  0.000
   357H     0.01371  0.07216   0.986  0.000  0.000
   358H     0.01571  0.07456   0.984  0.000  0.000
   359H     0.01884  0.07683   0.981  0.000  0.000
   360H     0.02888  0.08694   0.971  0.000  0.000
   361H     0.02507  0.08391   0.975  0.000  0.000
   362H     0.16083  0.36878   0.839  0.000  0.000
   363H     0.02266  0.08044   0.977  0.000  0.000
   364H     0.02625  0.08824   0.974  0.000  0.000
   365H     0.01958  0.08320   0.980  0.000  0.000
   366H     0.16744  0.36027   0.833  0.000  0.000
   367H     0.04046  0.10597   0.960  0.000  0.000
   368H     0.01440  0.07286   0.986  0.000  0.000
   369H     0.01593  0.07474   0.984  0.000  0.000
   370H     0.02042  0.07841   0.980  0.000  0.000

Wiberg/Mayer (AO) data.
largest (>0.10) Wiberg bond orders for each atom

 ---------------------------------------------------------------------------
     #   Z sym  total        # sym  WBO       # sym  WBO       # sym  WBO
 ---------------------------------------------------------------------------
     1   6 C    3.812 --    35 C    1.383     2 C    1.373    37 H    0.996
     2   6 C    3.925 --     1 C    1.373     3 C    1.240     6 N    1.229
     3   6 C    3.836 --     4 C    1.597     2 C    1.240    38 H    0.993
     4   6 C    3.821 --     3 C    1.597     5 C    1.252    39 H    1.000
     5   6 C    3.898 --     7 C    1.344     4 C    1.252     6 N    1.228
     6   7 N    3.249 --     2 C    1.229     5 C    1.228    40 H    0.961
     7   6 C    3.849 --    14 C    1.366     5 C    1.344     8 C    1.047
     8   6 C    3.875 --     9 C    1.797    13 C    1.119     7 C    1.047
     9   6 C    3.826 --     8 C    1.797    10 C    1.010    41 H    0.986
    10   6 C    3.936 --     9 C    1.010    43 H    0.987    42 H    0.980
                            11 N    0.966
    11   7 N    3.088 --    12 C    1.184    10 C    0.966    44 H    0.955
    12   6 C    3.941 --    13 C    1.705    11 N    1.184    45 H    0.980
    13   6 C    3.817 --    12 C    1.705     8 C    1.119    46 H    0.987
    14   6 C    3.928 --     7 C    1.366    17 N    1.359    15 C    1.161
    15   6 C    3.841 --    16 C    1.696    14 C    1.161    47 H    1.000
    16   6 C    3.853 --    15 C    1.696    18 C    1.163    48 H    0.999
    17   7 N    2.564 --    18 C    1.405    14 C    1.359
    18   6 C    3.947 --    17 N    1.405    19 C    1.301    16 C    1.163
    19   6 C    3.846 --    18 C    1.301    20 C    1.296   120 C    1.196
    20   6 C    3.906 --    19 C    1.296    21 C    1.264    24 N    1.247
    21   6 C    3.833 --    22 C    1.586    20 C    1.264    49 H    0.998
    22   6 C    3.819 --    21 C    1.586    23 C    1.259    50 H    0.999
    23   6 C    3.895 --    25 C    1.344    22 C    1.259    24 N    1.222
    24   7 N    3.259 --    20 C    1.247    23 C    1.222    51 H    0.960
    25   6 C    3.839 --    32 C    1.359    23 C    1.344    26 C    1.049
    26   6 C    3.875 --    27 C    1.797    31 C    1.117    25 C    1.049
    27   6 C    3.830 --    26 C    1.797    28 C    1.010    52 H    0.987
    28   6 C    3.936 --    27 C    1.010    54 H    0.987    53 H    0.980
                            29 N    0.966
    29   7 N    3.086 --    30 C    1.183    28 C    0.966    55 H    0.955
    30   6 C    3.942 --    31 C    1.707    29 N    1.183    56 H    0.979
    31   6 C    3.814 --    30 C    1.707    26 C    1.117    57 H    0.987
    32   6 C    3.944 --    36 N    1.378    25 C    1.359    33 C    1.155
    33   6 C    3.841 --    34 C    1.705    32 C    1.155    58 H    1.000
    34   6 C    3.862 --    33 C    1.705    35 C    1.148    59 H    0.994
    35   6 C    3.970 --     1 C    1.383    36 N    1.376    34 C    1.148
    36   7 N    2.554 --    32 C    1.378    35 C    1.376
    37   1 H    1.034 --     1 C    0.996
    38   1 H    1.017 --     3 C    0.993
    39   1 H    1.035 --     4 C    1.000
    40   1 H    1.084 --     6 N    0.961
    41   1 H    1.044 --     9 C    0.986
    42   1 H    1.015 --    10 C    0.980
    43   1 H    1.058 --    10 C    0.987
    44   1 H    1.038 --    11 N    0.955
    45   1 H    1.026 --    12 C    0.980
    46   1 H    1.057 --    13 C    0.987
    47   1 H    1.040 --    15 C    1.000
    48   1 H    1.031 --    16 C    0.999
    49   1 H    1.027 --    21 C    0.998
    50   1 H    1.036 --    22 C    0.999
    51   1 H    1.088 --    24 N    0.960
    52   1 H    1.048 --    27 C    0.987
    53   1 H    1.016 --    28 C    0.980
    54   1 H    1.058 --    28 C    0.987
    55   1 H    1.038 --    29 N    0.955
    56   1 H    1.026 --    30 C    0.979
    57   1 H    1.054 --    31 C    0.987
    58   1 H    1.038 --    33 C    1.000
    59   1 H    1.020 --    34 C    0.994
    60   6 C    3.812 --    94 C    1.383    61 C    1.373    96 H    0.996
    61   6 C    3.925 --    60 C    1.373    62 C    1.240    65 N    1.229
    62   6 C    3.836 --    63 C    1.597    61 C    1.240    97 H    0.993
    63   6 C    3.821 --    62 C    1.597    64 C    1.252    98 H    1.000
    64   6 C    3.898 --    66 C    1.344    63 C    1.252    65 N    1.228
    65   7 N    3.249 --    61 C    1.229    64 C    1.228    99 H    0.961
    66   6 C    3.849 --    73 C    1.366    64 C    1.344    67 C    1.048
    67   6 C    3.875 --    68 C    1.797    72 C    1.119    66 C    1.048
    68   6 C    3.826 --    67 C    1.797    69 C    1.010   100 H    0.986
    69   6 C    3.936 --    68 C    1.010   102 H    0.987   101 H    0.980
                            70 N    0.967
    70   7 N    3.087 --    71 C    1.183    69 C    0.967   103 H    0.955
    71   6 C    3.941 --    72 C    1.706    70 N    1.183   104 H    0.979
    72   6 C    3.817 --    71 C    1.706    67 C    1.119   105 H    0.987
    73   6 C    3.929 --    66 C    1.366    76 N    1.359    74 C    1.161
    74   6 C    3.842 --    75 C    1.696    73 C    1.161   106 H    1.000
    75   6 C    3.853 --    74 C    1.696    77 C    1.163   107 H    0.999
    76   7 N    2.564 --    77 C    1.405    73 C    1.359
    77   6 C    3.947 --    76 N    1.405    78 C    1.302    75 C    1.163
    78   6 C    3.846 --    77 C    1.302    79 C    1.296   138 C    1.195
    79   6 C    3.906 --    78 C    1.296    80 C    1.264    83 N    1.247
    80   6 C    3.833 --    81 C    1.586    79 C    1.264   108 H    0.998
    81   6 C    3.819 --    80 C    1.586    82 C    1.259   109 H    0.999
    82   6 C    3.895 --    84 C    1.344    81 C    1.259    83 N    1.222
    83   7 N    3.259 --    79 C    1.247    82 C    1.222   110 H    0.960
    84   6 C    3.839 --    91 C    1.359    82 C    1.344    85 C    1.049
    85   6 C    3.875 --    86 C    1.797    90 C    1.117    84 C    1.049
    86   6 C    3.830 --    85 C    1.797    87 C    1.010   111 H    0.987
    87   6 C    3.936 --    86 C    1.010   113 H    0.987   112 H    0.980
                            88 N    0.966
    88   7 N    3.086 --    89 C    1.183    87 C    0.966   114 H    0.955
    89   6 C    3.942 --    90 C    1.707    88 N    1.183   115 H    0.979
    90   6 C    3.814 --    89 C    1.707    85 C    1.117   116 H    0.987
    91   6 C    3.945 --    95 N    1.378    84 C    1.359    92 C    1.155
    92   6 C    3.841 --    93 C    1.705    91 C    1.155   117 H    1.000
    93   6 C    3.862 --    92 C    1.705    94 C    1.148   118 H    0.994
    94   6 C    3.970 --    60 C    1.383    95 N    1.376    93 C    1.148
    95   7 N    2.553 --    91 C    1.378    94 C    1.376
    96   1 H    1.034 --    60 C    0.996
    97   1 H    1.016 --    62 C    0.993
    98   1 H    1.034 --    63 C    1.000
    99   1 H    1.084 --    65 N    0.961
   100   1 H    1.045 --    68 C    0.986
   101   1 H    1.015 --    69 C    0.980
   102   1 H    1.058 --    69 C    0.987
   103   1 H    1.038 --    70 N    0.955
   104   1 H    1.026 --    71 C    0.979
   105   1 H    1.057 --    72 C    0.987
   106   1 H    1.040 --    74 C    1.000
   107   1 H    1.031 --    75 C    0.999
   108   1 H    1.027 --    80 C    0.998
   109   1 H    1.036 --    81 C    0.999
   110   1 H    1.088 --    83 N    0.960
   111   1 H    1.048 --    86 C    0.987
   112   1 H    1.016 --    87 C    0.980
   113   1 H    1.058 --    87 C    0.987
   114   1 H    1.038 --    88 N    0.955
   115   1 H    1.026 --    89 C    0.979
   116   1 H    1.054 --    90 C    0.987
   117   1 H    1.038 --    92 C    1.000
   118   1 H    1.020 --    93 C    0.994
   119   6 C    3.799 --   120 C    2.522   121 C    1.306
   120   6 C    3.791 --   119 C    2.522    19 C    1.196   122 C    0.179
   121   6 C    3.794 --   122 C    2.518   119 C    1.306
   122   6 C    3.795 --   121 C    2.518   139 C    1.200   120 C    0.179
   123   6 C    3.797 --   124 C    2.487   125 C    1.337
   124   6 C    3.799 --   123 C    2.487   157 C    1.231   126 C    0.179
   125   6 C    3.796 --   126 C    2.486   123 C    1.337
   126   6 C    3.800 --   125 C    2.486   197 C    1.232   124 C    0.179
   127   6 C    3.796 --   128 C    2.483   129 C    1.339
   128   6 C    3.799 --   127 C    2.483   215 C    1.234   130 C    0.178
   129   6 C    3.796 --   130 C    2.483   127 C    1.339
   130   6 C    3.799 --   129 C    2.483   255 C    1.234   128 C    0.178
   131   6 C    3.796 --   132 C    2.486   133 C    1.337
   132   6 C    3.800 --   131 C    2.486   273 C    1.232   134 C    0.179
   133   6 C    3.797 --   134 C    2.487   131 C    1.337
   134   6 C    3.798 --   133 C    2.487   313 C    1.231   132 C    0.179
   135   6 C    3.794 --   136 C    2.519   137 C    1.305
   136   6 C    3.795 --   135 C    2.519   331 C    1.199   138 C    0.179
   137   6 C    3.799 --   138 C    2.523   135 C    1.305
   138   6 C    3.791 --   137 C    2.523    78 C    1.195   136 C    0.179
   139   6 C    3.824 --   173 C    1.294   140 C    1.291   122 C    1.200
   140   6 C    3.910 --   139 C    1.291   141 C    1.267   144 N    1.248
   141   6 C    3.827 --   142 C    1.581   140 C    1.267   175 H    0.999
   142   6 C    3.826 --   141 C    1.581   143 C    1.262   176 H    1.000
   143   6 C    3.889 --   145 C    1.344   142 C    1.262   144 N    1.218
   144   7 N    3.248 --   140 C    1.248   143 C    1.218   177 H    0.961
   145   6 C    3.842 --   152 C    1.371   143 C    1.344   146 C    1.044
   146   6 C    3.874 --   147 C    1.799   151 C    1.120   145 C    1.044
   147   6 C    3.825 --   146 C    1.799   148 C    1.009   178 H    0.985
   148   6 C    3.936 --   147 C    1.009   180 H    0.987   179 H    0.977
                           149 N    0.968
   149   7 N    3.087 --   150 C    1.180   148 C    0.968   181 H    0.956
   150   6 C    3.942 --   151 C    1.706   149 N    1.180   182 H    0.980
   151   6 C    3.818 --   150 C    1.706   146 C    1.120   183 H    0.987
   152   6 C    3.922 --   145 C    1.371   155 N    1.351   153 C    1.165
   153   6 C    3.838 --   154 C    1.688   152 C    1.165   184 H    1.000
   154   6 C    3.846 --   153 C    1.688   156 C    1.170   185 H    1.000
   155   7 N    2.553 --   156 C    1.417   152 C    1.351
   156   6 C    3.942 --   155 N    1.417   157 C    1.282   154 C    1.170
   157   6 C    3.826 --   156 C    1.282   158 C    1.279   124 C    1.231
   158   6 C    3.904 --   157 C    1.279   159 C    1.274   162 N    1.251
   159   6 C    3.827 --   160 C    1.574   158 C    1.274   186 H    0.999
   160   6 C    3.821 --   159 C    1.574   161 C    1.266   187 H    1.000
   161   6 C    3.888 --   163 C    1.337   160 C    1.266   162 N    1.221
   162   7 N    3.253 --   158 C    1.251   161 C    1.221   188 H    0.962
   163   6 C    3.837 --   170 C    1.375   161 C    1.337   164 C    1.044
   164   6 C    3.873 --   165 C    1.799   169 C    1.120   163 C    1.044
   165   6 C    3.824 --   164 C    1.799   166 C    1.010   189 H    0.985
   166   6 C    3.935 --   165 C    1.010   191 H    0.987   190 H    0.977
                           167 N    0.967
   167   7 N    3.087 --   168 C    1.181   166 C    0.967   192 H    0.956
   168   6 C    3.942 --   169 C    1.705   167 N    1.181   193 H    0.980
   169   6 C    3.817 --   168 C    1.705   164 C    1.120   194 H    0.987
   170   6 C    3.926 --   163 C    1.375   174 N    1.353   171 C    1.162
   171   6 C    3.842 --   172 C    1.694   170 C    1.162   195 H    1.000
   172   6 C    3.848 --   171 C    1.694   173 C    1.165   196 H    1.000
   173   6 C    3.948 --   174 N    1.410   139 C    1.294   172 C    1.165
   174   7 N    2.547 --   173 C    1.410   170 C    1.353
   175   1 H    1.027 --   141 C    0.999
   176   1 H    1.037 --   142 C    1.000
   177   1 H    1.086 --   144 N    0.961
   178   1 H    1.043 --   147 C    0.985
   179   1 H    1.023 --   148 C    0.977
   180   1 H    1.054 --   148 C    0.987
   181   1 H    1.039 --   149 N    0.956
   182   1 H    1.027 --   150 C    0.980
   183   1 H    1.056 --   151 C    0.987
   184   1 H    1.042 --   153 C    1.000
   185   1 H    1.032 --   154 C    1.000
   186   1 H    1.028 --   159 C    0.999
   187   1 H    1.037 --   160 C    1.000
   188   1 H    1.086 --   162 N    0.962
   189   1 H    1.043 --   165 C    0.985
   190   1 H    1.023 --   166 C    0.977
   191   1 H    1.054 --   166 C    0.987
   192   1 H    1.039 --   167 N    0.956
   193   1 H    1.027 --   168 C    0.980
   194   1 H    1.056 --   169 C    0.987
   195   1 H    1.042 --   171 C    1.000
   196   1 H    1.031 --   172 C    1.000
   197   6 C    3.819 --   231 C    1.279   198 C    1.276   126 C    1.232
   198   6 C    3.905 --   197 C    1.276   199 C    1.274   202 N    1.253
   199   6 C    3.825 --   200 C    1.573   198 C    1.274   233 H    0.999
   200   6 C    3.822 --   199 C    1.573   201 C    1.267   234 H    1.001
   201   6 C    3.887 --   203 C    1.338   200 C    1.267   202 N    1.218
   202   7 N    3.249 --   198 C    1.253   201 C    1.218   235 H    0.962
   203   6 C    3.838 --   210 C    1.375   201 C    1.338   204 C    1.044
   204   6 C    3.874 --   205 C    1.799   209 C    1.120   203 C    1.044
   205   6 C    3.824 --   204 C    1.799   206 C    1.009   236 H    0.985
   206   6 C    3.936 --   205 C    1.009   238 H    0.987   237 H    0.977
                           207 N    0.968
   207   7 N    3.086 --   208 C    1.180   206 C    0.968   239 H    0.956
   208   6 C    3.942 --   209 C    1.706   207 N    1.180   240 H    0.980
   209   6 C    3.818 --   208 C    1.706   204 C    1.120   241 H    0.987
   210   6 C    3.923 --   203 C    1.375   213 N    1.347   211 C    1.165
   211   6 C    3.839 --   212 C    1.688   210 C    1.165   242 H    1.000
   212   6 C    3.845 --   211 C    1.688   214 C    1.170   243 H    1.000
   213   7 N    2.547 --   214 C    1.420   210 C    1.347
   214   6 C    3.942 --   213 N    1.420   215 C    1.279   212 C    1.170
   215   6 C    3.819 --   214 C    1.279   216 C    1.276   128 C    1.234
   216   6 C    3.905 --   215 C    1.276   217 C    1.275   220 N    1.253
   217   6 C    3.825 --   218 C    1.572   216 C    1.275   244 H    0.999
   218   6 C    3.821 --   217 C    1.572   219 C    1.268   245 H    1.001
   219   6 C    3.887 --   221 C    1.336   218 C    1.268   220 N    1.219
   220   7 N    3.250 --   216 C    1.253   219 C    1.219   246 H    0.962
   221   6 C    3.838 --   228 C    1.377   219 C    1.336   222 C    1.044
   222   6 C    3.874 --   223 C    1.799   227 C    1.120   221 C    1.044
   223   6 C    3.824 --   222 C    1.799   224 C    1.009   247 H    0.985
   224   6 C    3.936 --   223 C    1.009   249 H    0.987   248 H    0.977
                           225 N    0.968
   225   7 N    3.086 --   226 C    1.180   224 C    0.968   250 H    0.956
   226   6 C    3.942 --   227 C    1.706   225 N    1.180   251 H    0.980
   227   6 C    3.818 --   226 C    1.706   222 C    1.120   252 H    0.987
   228   6 C    3.923 --   221 C    1.377   232 N    1.346   229 C    1.165
   229   6 C    3.839 --   230 C    1.689   228 C    1.165   253 H    1.000
   230   6 C    3.845 --   229 C    1.689   231 C    1.169   254 H    1.001
   231   6 C    3.943 --   232 N    1.420   197 C    1.279   230 C    1.169
   232   7 N    2.546 --   231 C    1.420   228 C    1.346
   233   1 H    1.028 --   199 C    0.999
   234   1 H    1.037 --   200 C    1.001
   235   1 H    1.086 --   202 N    0.962
   236   1 H    1.044 --   205 C    0.985
   237   1 H    1.023 --   206 C    0.977
   238   1 H    1.055 --   206 C    0.987
   239   1 H    1.040 --   207 N    0.956
   240   1 H    1.027 --   208 C    0.980
   241   1 H    1.056 --   209 C    0.987
   242   1 H    1.043 --   211 C    1.000
   243   1 H    1.033 --   212 C    1.000
   244   1 H    1.028 --   217 C    0.999
   245   1 H    1.037 --   218 C    1.001
   246   1 H    1.086 --   220 N    0.962
   247   1 H    1.044 --   223 C    0.985
   248   1 H    1.023 --   224 C    0.977
   249   1 H    1.054 --   224 C    0.987
   250   1 H    1.040 --   225 N    0.956
   251   1 H    1.027 --   226 C    0.980
   252   1 H    1.056 --   227 C    0.987
   253   1 H    1.043 --   229 C    1.000
   254   1 H    1.033 --   230 C    1.001
   255   6 C    3.819 --   289 C    1.279   256 C    1.276   130 C    1.234
   256   6 C    3.905 --   255 C    1.276   257 C    1.275   260 N    1.253
   257   6 C    3.825 --   258 C    1.572   256 C    1.275   291 H    0.999
   258   6 C    3.821 --   257 C    1.572   259 C    1.268   292 H    1.000
   259   6 C    3.887 --   261 C    1.336   258 C    1.268   260 N    1.219
   260   7 N    3.250 --   256 C    1.253   259 C    1.219   293 H    0.962
   261   6 C    3.838 --   268 C    1.377   259 C    1.336   262 C    1.044
   262   6 C    3.874 --   263 C    1.799   267 C    1.119   261 C    1.044
   263   6 C    3.824 --   262 C    1.799   264 C    1.009   294 H    0.985
   264   6 C    3.936 --   263 C    1.009   296 H    0.987   295 H    0.977
                           265 N    0.968
   265   7 N    3.086 --   266 C    1.180   264 C    0.968   297 H    0.956
   266   6 C    3.942 --   267 C    1.706   265 N    1.180   298 H    0.980
   267   6 C    3.818 --   266 C    1.706   262 C    1.119   299 H    0.987
   268   6 C    3.923 --   261 C    1.377   271 N    1.346   269 C    1.165
   269   6 C    3.839 --   270 C    1.689   268 C    1.165   300 H    1.000
   270   6 C    3.845 --   269 C    1.689   272 C    1.169   301 H    1.001
   271   7 N    2.546 --   272 C    1.420   268 C    1.346
   272   6 C    3.943 --   271 N    1.420   273 C    1.279   270 C    1.169
   273   6 C    3.819 --   272 C    1.279   274 C    1.276   132 C    1.232
   274   6 C    3.905 --   273 C    1.276   275 C    1.274   278 N    1.253
   275   6 C    3.825 --   276 C    1.573   274 C    1.274   302 H    0.999
   276   6 C    3.822 --   275 C    1.573   277 C    1.267   303 H    1.001
   277   6 C    3.887 --   279 C    1.338   276 C    1.267   278 N    1.218
   278   7 N    3.249 --   274 C    1.253   277 C    1.218   304 H    0.962
   279   6 C    3.838 --   286 C    1.375   277 C    1.338   280 C    1.045
   280   6 C    3.874 --   281 C    1.799   285 C    1.120   279 C    1.045
   281   6 C    3.824 --   280 C    1.799   282 C    1.009   305 H    0.985
   282   6 C    3.936 --   281 C    1.009   307 H    0.987   306 H    0.977
                           283 N    0.968
   283   7 N    3.086 --   284 C    1.180   282 C    0.968   308 H    0.956
   284   6 C    3.942 --   285 C    1.706   283 N    1.180   309 H    0.980
   285   6 C    3.818 --   284 C    1.706   280 C    1.120   310 H    0.987
   286   6 C    3.923 --   279 C    1.375   290 N    1.347   287 C    1.165
   287   6 C    3.839 --   288 C    1.688   286 C    1.165   311 H    1.000
   288   6 C    3.845 --   287 C    1.688   289 C    1.170   312 H    1.000
   289   6 C    3.942 --   290 N    1.420   255 C    1.279   288 C    1.170
   290   7 N    2.547 --   289 C    1.420   286 C    1.347
   291   1 H    1.028 --   257 C    0.999
   292   1 H    1.037 --   258 C    1.000
   293   1 H    1.086 --   260 N    0.962
   294   1 H    1.044 --   263 C    0.985
   295   1 H    1.023 --   264 C    0.977
   296   1 H    1.054 --   264 C    0.987
   297   1 H    1.040 --   265 N    0.956
   298   1 H    1.027 --   266 C    0.980
   299   1 H    1.056 --   267 C    0.987
   300   1 H    1.043 --   269 C    1.000
   301   1 H    1.033 --   270 C    1.001
   302   1 H    1.028 --   275 C    0.999
   303   1 H    1.037 --   276 C    1.001
   304   1 H    1.086 --   278 N    0.962
   305   1 H    1.044 --   281 C    0.985
   306   1 H    1.023 --   282 C    0.977
   307   1 H    1.055 --   282 C    0.987
   308   1 H    1.040 --   283 N    0.956
   309   1 H    1.027 --   284 C    0.980
   310   1 H    1.056 --   285 C    0.987
   311   1 H    1.043 --   287 C    1.000
   312   1 H    1.033 --   288 C    1.000
   313   6 C    3.826 --   347 C    1.282   314 C    1.279   134 C    1.231
   314   6 C    3.904 --   313 C    1.279   315 C    1.274   318 N    1.251
   315   6 C    3.827 --   316 C    1.574   314 C    1.274   349 H    0.999
   316   6 C    3.820 --   315 C    1.574   317 C    1.266   350 H    1.000
   317   6 C    3.888 --   319 C    1.337   316 C    1.266   318 N    1.221
   318   7 N    3.253 --   314 C    1.251   317 C    1.221   351 H    0.962
   319   6 C    3.837 --   326 C    1.375   317 C    1.337   320 C    1.044
   320   6 C    3.873 --   321 C    1.799   325 C    1.120   319 C    1.044
   321   6 C    3.824 --   320 C    1.799   322 C    1.010   352 H    0.985
   322   6 C    3.935 --   321 C    1.010   354 H    0.987   353 H    0.977
                           323 N    0.967
   323   7 N    3.087 --   324 C    1.181   322 C    0.967   355 H    0.956
   324   6 C    3.942 --   325 C    1.705   323 N    1.181   356 H    0.980
   325   6 C    3.817 --   324 C    1.705   320 C    1.120   357 H    0.987
   326   6 C    3.926 --   319 C    1.375   329 N    1.353   327 C    1.162
   327   6 C    3.842 --   328 C    1.694   326 C    1.162   358 H    1.000
   328   6 C    3.848 --   327 C    1.694   330 C    1.165   359 H    1.000
   329   7 N    2.547 --   330 C    1.409   326 C    1.353
   330   6 C    3.948 --   329 N    1.409   331 C    1.295   328 C    1.165
   331   6 C    3.825 --   330 C    1.295   332 C    1.291   136 C    1.199
   332   6 C    3.910 --   331 C    1.291   333 C    1.267   336 N    1.248
   333   6 C    3.827 --   334 C    1.581   332 C    1.267   360 H    0.999
   334   6 C    3.826 --   333 C    1.581   335 C    1.262   361 H    1.000
   335   6 C    3.889 --   337 C    1.344   334 C    1.262   336 N    1.218
   336   7 N    3.248 --   332 C    1.248   335 C    1.218   362 H    0.961
   337   6 C    3.842 --   344 C    1.370   335 C    1.344   338 C    1.044
   338   6 C    3.874 --   339 C    1.799   343 C    1.120   337 C    1.044
   339   6 C    3.824 --   338 C    1.799   340 C    1.009   363 H    0.985
   340   6 C    3.936 --   339 C    1.009   365 H    0.987   364 H    0.977
                           341 N    0.968
   341   7 N    3.087 --   342 C    1.180   340 C    0.968   366 H    0.956
   342   6 C    3.942 --   343 C    1.705   341 N    1.180   367 H    0.980
   343   6 C    3.817 --   342 C    1.705   338 C    1.120   368 H    0.987
   344   6 C    3.922 --   337 C    1.370   348 N    1.351   345 C    1.165
   345   6 C    3.838 --   346 C    1.688   344 C    1.165   369 H    1.000
   346   6 C    3.846 --   345 C    1.688   347 C    1.170   370 H    1.000
   347   6 C    3.942 --   348 N    1.416   313 C    1.282   346 C    1.170
   348   7 N    2.553 --   347 C    1.416   344 C    1.351
   349   1 H    1.028 --   315 C    0.999
   350   1 H    1.037 --   316 C    1.000
   351   1 H    1.086 --   318 N    0.962
   352   1 H    1.043 --   321 C    0.985
   353   1 H    1.023 --   322 C    0.977
   354   1 H    1.054 --   322 C    0.987
   355   1 H    1.039 --   323 N    0.956
   356   1 H    1.027 --   324 C    0.980
   357   1 H    1.056 --   325 C    0.987
   358   1 H    1.042 --   327 C    1.000
   359   1 H    1.031 --   328 C    1.000
   360   1 H    1.027 --   333 C    0.999
   361   1 H    1.037 --   334 C    1.000
   362   1 H    1.086 --   336 N    0.961
   363   1 H    1.043 --   339 C    0.985
   364   1 H    1.023 --   340 C    0.977
   365   1 H    1.054 --   340 C    0.987
   366   1 H    1.039 --   341 N    0.956
   367   1 H    1.027 --   342 C    0.980
   368   1 H    1.056 --   343 C    0.987
   369   1 H    1.042 --   345 C    1.000
   370   1 H    1.032 --   346 C    1.000
 ---------------------------------------------------------------------------

Topologies differ in total number of bonds
Writing topology from bond orders to xtbtopo.mol

 dipole moment from electron density (au)
     X       Y       Z   
-199.6124   0.0607  -0.1650  total (Debye):  507.364


           -------------------------------------------------
          | TOTAL ENERGY             -694.664581161270 Eh   |
          | GRADIENT NORM               0.109750516030 Eh/α |
          | HOMO-LUMO GAP               0.097742558971 eV   |
           -------------------------------------------------
########################################################################
[WARNING] Runtime exception occurred
-1- restart_readRestart: Dimension missmatch in restart file.
########################################################################

------------------------------------------------------------------------
 * finished run on 2022/07/27 at 22:35:24.250     
------------------------------------------------------------------------
 total:
 * wall-time:     0 d,  0 h,  1 min, 28.861 sec
 *  cpu-time:     0 d,  0 h,  1 min, 28.245 sec
 * ratio c/w:     0.993 speedup
 SCF:
 * wall-time:     0 d,  0 h,  1 min, 27.195 sec
 *  cpu-time:     0 d,  0 h,  1 min, 26.622 sec
 * ratio c/w:     0.993 speedup

