      -----------------------------------------------------------      
     |                   =====================                   |     
     |                           x T B                           |     
     |                   =====================                   |     
     |                         S. Grimme                         |     
     |          Mulliken Center for Theoretical Chemistry        |     
     |                    University of Bonn                     |     
      -----------------------------------------------------------      

   * xtb version 6.5.1 (b24c23e) compiled by 'conda@728c89f4b128' on 2022-07-12

   xtb is free software: you can redistribute it and/or modify it under
   the terms of the GNU Lesser General Public License as published by
   the Free Software Foundation, either version 3 of the License, or
   (at your option) any later version.
   
   xtb is distributed in the hope that it will be useful,
   but WITHOUT ANY WARRANTY; without even the implied warranty of
   MERCHANTABILITY or FITNESS FOR A PARTICULAR PURPOSE.  See the
   GNU Lesser General Public License for more details.
   
   Cite this work as:
   * C. Bannwarth, E. Caldeweyher, S. Ehlert, A. Hansen, P. Pracht,
     J. Seibert, S. Spicher, S. Grimme, WIREs Comput. Mol. Sci., 2020, 11,
     e01493. DOI: 10.1002/wcms.1493
   
   for GFN2-xTB:
   * C. Bannwarth, S. Ehlert and S. Grimme., J. Chem. Theory Comput., 2019,
     15, 1652-1671. DOI: 10.1021/acs.jctc.8b01176
   for GFN1-xTB:
   * S. Grimme, C. Bannwarth, P. Shushkov, J. Chem. Theory Comput., 2017,
     13, 1989-2009. DOI: 10.1021/acs.jctc.7b00118
   for GFN0-xTB:
   * P. Pracht, E. Caldeweyher, S. Ehlert, S. Grimme, ChemRxiv, 2019, preprint.
     DOI: 10.26434/chemrxiv.8326202.v1
   for GFN-FF:
   * S. Spicher and S. Grimme, Angew. Chem. Int. Ed., 2020, 59, 15665-15673.
     DOI: 10.1002/anie.202004239
   
   for ALPB and GBSA implicit solvation:
   * S. Ehlert, M. Stahn, S. Spicher, S. Grimme, J. Chem. Theory Comput.,
     2021, 17, 4250-4261. DOI: 10.1021/acs.jctc.1c00471
   
   for DFT-D4:
   * E. Caldeweyher, C. Bannwarth and S. Grimme, J. Chem. Phys., 2017,
     147, 034112. DOI: 10.1063/1.4993215
   * E. Caldeweyher, S. Ehlert, A. Hansen, H. Neugebauer, S. Spicher,
     C. Bannwarth and S. Grimme, J. Chem. Phys., 2019, 150, 154122.
     DOI: 10.1063/1.5090222
   * E. Caldeweyher, J.-M. Mewes, S. Ehlert and S. Grimme, Phys. Chem. Chem. Phys.
     2020, 22, 8499-8512. DOI: 10.1039/D0CP00502A
   
   for sTDA-xTB:
   * S. Grimme and C. Bannwarth, J. Chem. Phys., 2016, 145, 054103.
     DOI: 10.1063/1.4959605
   
   in the mass-spec context:
   * V. Asgeirsson, C. Bauer and S. Grimme, Chem. Sci., 2017, 8, 4879.
     DOI: 10.1039/c7sc00601b
   * J. Koopman and S. Grimme, ACS Omega 2019, 4, 12, 15120-15133.
     DOI: 10.1021/acsomega.9b02011
   
   for metadynamics refer to:
   * S. Grimme, J. Chem. Theory Comput., 2019, 155, 2847-2862
     DOI: 10.1021/acs.jctc.9b00143
   
   for SPH calculations refer to:
   * S. Spicher and S. Grimme, J. Chem. Theory Comput., 2021, 17, 1701-1714
     DOI: 10.1021/acs.jctc.0c01306
   
   with help from (in alphabetical order)
   P. Atkinson, C. Bannwarth, F. Bohle, G. Brandenburg, E. Caldeweyher
   M. Checinski, S. Dohm, S. Ehlert, S. Ehrlich, I. Gerasimov, C. Hölzer
   A. Katbashev, J. Koopman, C. Lavigne, S. Lehtola, F. März, M. Müller,
   F. Musil, H. Neugebauer, J. Pisarek, C. Plett, P. Pracht, F. Pultar,
   J. Seibert, P. Shushkov, S. Spicher, M. Stahn, M. Steiner, T. Strunk,
   J. Stückrath, T. Rose, and J. Unsleber
   
 * started run on 2022/07/29 at 20:59:00.205     

           -------------------------------------------------
          |                Calculation Setup                |
           -------------------------------------------------

          program call               : xtb Fe_PhOH_C8_4.xyz --gfn 1 --opt -T 48
          hostname                   : cx3-15-15.cx3.hpc.ic.ac.uk
          coordinate file            : Fe_PhOH_C8_4.xyz
          omp threads                :                     1

   ID    Z sym.   atoms
    1   26 Fe     1, 59, 141, 198
    2    6 C      2-6, 8-12, 14-18, 20-25, 27-31, 33-38, 60-64, 66-70, 72-76,
                  78-83, 85-89, 91-96, 117-140, 142-146, 148-152, 154-158,
                  160-165, 167-171, 173-178, 199-203, 205-209, 211-215,
                  217-222, 224-228, 230-235
    3    7 N      7, 19, 26, 39, 65, 77, 84, 97, 147, 159, 166, 179, 204,
                  216, 223, 236
    4    8 O      13, 32, 71, 90, 153, 172, 210, 229
    5    1 H      40-58, 98-116, 180-197, 237-254

molecular fragmentation (1/2 indicates fragments):
111111111111111111111111111111111111111111111111111111111122222222222222
222222222222222222222222222222222222222222222222222222222222222222222222
222222222222222222222222222222222222222222222222222222222222222222222222
22222222222222222222222222222222222222
# atoms in fragment 1/2:    58   196
 fragment masses (1/2) :      547.37     1928.34
CMA distance (Bohr)    :  69.371
constraining FC (au)   :  0.0500
########################################################################
[WARNING] Please study the warnings concerning your input carefully
-1- prog_main_parseArguments: Unknown option '-T' provided
########################################################################

           -------------------------------------------------
          |                 G F N 1 - x T B                 |
           -------------------------------------------------

        Reference                      10.1021/acs.jctc.7b00118
      * Hamiltonian:
        H0-scaling (s, p, d)           1.850000    2.250000    2.000000
        zeta-weighting                 0.000000
      * Dispersion:
        s8                             2.400000
        a1                             0.630000
        a2                             5.000000
        s9                             0.000000
      * Repulsion:
        kExp                           1.500000
        rExp                           1.000000
      * Coulomb:
        alpha                          2.000000
        third order                    atomic
        anisotropic                    false
      * Halogen bond correction:
        rad-scale                      1.300000
        damping                        0.440000


          ...................................................
          :                      SETUP                      :
          :.................................................:
          :  # basis functions                 892          :
          :  # atomic orbitals                 888          :
          :  # shells                          512          :
          :  # electrons                       842          :
          :  # halogen bonds                     0          :
          :  max. iterations                   250          :
          :  Hamiltonian                  GFN1-xTB          :
          :  restarted?                      false          :
          :  GBSA solvation                  false          :
          :  PC potential                    false          :
          :  electronic temp.          300.0000000     K    :
          :  accuracy                    1.0000000          :
          :  -> integral cutoff          0.2500000E+02      :
          :  -> integral neglect         0.1000000E-07      :
          :  -> SCF convergence          0.1000000E-05 Eh   :
          :  -> wf. convergence          0.2000000E-04 e    :
          :  Broyden damping             0.4000000          :
          ...................................................

 iter      E             dE          RMSdq      gap      omega  full diag
   1   -422.4794473 -0.422479E+03  0.122E+01    0.04       0.0  T
   2   -161.2376826  0.261242E+03  0.144E+01    0.08       1.0  T
   3    325.6097604  0.486847E+03  0.131E+01    0.01       1.0  T
   4   3325.6322048  0.300002E+04  0.214E+01    0.01       1.0  T
   5   1560.5756967 -0.176506E+04  0.160E+01    0.01       1.0  T
   6   2936.4369675  0.137586E+04  0.196E+01    0.06       1.0  T
   7    204.6314460 -0.273181E+04  0.123E+01    0.04       1.0  T
   8   -144.1447733 -0.348776E+03  0.102E+01    0.02       1.0  T
   9    -43.5383619  0.100606E+03  0.991E+00    0.04       1.0  T
  10   -271.0868362 -0.227548E+03  0.822E+00    0.04       1.0  T
  11   -161.1423148  0.109945E+03  0.858E+00    0.10       1.0  T
  12   -315.8145429 -0.154672E+03  0.652E+00    0.01       1.0  T
  13   -331.1300039 -0.153155E+02  0.680E+00    0.07       1.0  T
  14   -335.5710412 -0.444104E+01  0.653E+00    0.01       1.0  T
  15   -257.2502649  0.783208E+02  0.765E+00    0.01       1.0  T
  16   -323.4875709 -0.662373E+02  0.689E+00    0.01       1.0  T
  17   -311.2564192  0.122312E+02  0.708E+00    0.02       1.0  T
  18   -277.1261023  0.341303E+02  0.714E+00    0.03       1.0  T
  19   -291.2238171 -0.140977E+02  0.688E+00    0.01       1.0  T
  20   -287.1028788  0.412094E+01  0.670E+00    0.04       1.0  T
  21   -230.2281849  0.568747E+02  0.755E+00    0.01       1.0  T
  22   -232.2249583 -0.199677E+01  0.728E+00    0.01       1.0  T
  23   -239.3669769 -0.714202E+01  0.717E+00    0.04       1.0  T
  24   -217.2711640  0.220958E+02  0.719E+00    0.01       1.0  T
  25   -240.9158490 -0.236447E+02  0.675E+00    0.04       1.0  T
  26   -258.6343637 -0.177185E+02  0.650E+00    0.04       1.0  T
  27   -379.0202915 -0.120386E+03  0.549E+00    0.00       1.0  T
  28   -416.4919232 -0.374716E+02  0.627E+00    0.05       1.0  T
  29   -443.7760828 -0.272842E+02  0.401E+00    0.01       1.0  T
  30   -423.9588835  0.198172E+02  0.594E+00    0.07       1.0  T
  31   -424.3930992 -0.434216E+00  0.591E+00    0.07       1.0  T
  32   -425.1710726 -0.777973E+00  0.586E+00    0.03       1.0  T
  33   -423.3332234  0.183785E+01  0.584E+00    0.02       1.0  T
  34   -425.1527290 -0.181951E+01  0.575E+00    0.02       1.0  T
  35   -425.9289716 -0.776243E+00  0.572E+00    0.05       1.0  T
  36   -423.8840129  0.204496E+01  0.572E+00    0.01       1.0  T
  37   -422.5872830  0.129673E+01  0.576E+00    0.03       1.0  T
  38   -423.5713441 -0.984061E+00  0.566E+00    0.02       1.0  T
  39   -422.3426339  0.122871E+01  0.570E+00    0.02       1.0  T
  40   -422.2099196  0.132714E+00  0.565E+00    0.01       1.0  T
  41   -420.4285539  0.178137E+01  0.573E+00    0.01       1.0  T
  42   -423.8160738 -0.338752E+01  0.560E+00    0.05       1.0  T
  43   -422.1159790  0.170009E+01  0.513E+00    0.01       1.0  T
  44   -429.1763502 -0.706037E+01  0.499E+00    0.02       1.0  T
  45   -427.3248949  0.185146E+01  0.496E+00    0.06       1.0  T
  46   -438.5720417 -0.112471E+02  0.436E+00    0.01       1.0  T
  47   -439.1941933 -0.622152E+00  0.426E+00    0.04       1.0  T
  48   -459.3688327 -0.201746E+02  0.277E+00    0.10       1.0  T
  49   -449.8283298  0.954050E+01  0.356E+00    0.01       1.0  T
  50   -450.2089304 -0.380601E+00  0.343E+00    0.01       1.0  T
  51   -461.9003651 -0.116914E+02  0.258E+00    0.06       1.0  T
  52   -462.3013898 -0.401025E+00  0.250E+00    0.07       1.0  T
  53   -452.0570815  0.102443E+02  0.364E+00    0.04       1.0  T
  54   -457.6342157 -0.557713E+01  0.299E+00    0.01       1.0  T
  55   -450.7292591  0.690496E+01  0.348E+00    0.04       1.0  T
  56   -456.4656728 -0.573641E+01  0.296E+00    0.02       1.0  T
  57   -447.5323541  0.893332E+01  0.368E+00    0.04       1.0  T
  58   -445.8479498  0.168440E+01  0.382E+00    0.02       1.0  T
  59   -451.6445731 -0.579662E+01  0.334E+00    0.03       1.0  T
  60   -456.5303655 -0.488579E+01  0.280E+00    0.02       1.0  T
  61   -459.7934575 -0.326309E+01  0.240E+00    0.00       1.0  T
  62   -464.2663543 -0.447290E+01  0.163E+00    0.00       1.0  T
  63   -463.9107045  0.355650E+00  0.183E+00    0.02       1.0  T
  64   -454.4992522  0.941145E+01  0.306E+00    0.02       1.0  T
  65   -455.0219250 -0.522673E+00  0.299E+00    0.01       1.0  T
  66   -465.2674571 -0.102455E+02  0.142E+00    0.03       1.0  T
  67   -464.0852547  0.118220E+01  0.180E+00    0.00       1.0  T
  68   -465.2063166 -0.112106E+01  0.153E+00    0.03       1.0  T
  69   -465.8875548 -0.681238E+00  0.140E+00    0.04       1.0  T
  70   -466.1200522 -0.232497E+00  0.125E+00    0.01       1.0  T
  71   -465.3300466  0.790006E+00  0.151E+00    0.01       1.0  T
  72   -465.3019680  0.280785E-01  0.148E+00    0.06       1.0  T
  73   -467.8052800 -0.250331E+01  0.608E-01    0.02       1.0  T
  74   -465.8073852  0.199789E+01  0.132E+00    0.01       1.0  T
  75   -466.2904518 -0.483067E+00  0.122E+00    0.01       1.0  T
  76   -467.0018491 -0.711397E+00  0.954E-01    0.00       1.0  T
  77   -465.6372579  0.136459E+01  0.138E+00    0.01       1.0  T
  78   -467.1639206 -0.152666E+01  0.898E-01    0.01       1.0  T
  79   -466.6929904  0.470930E+00  0.106E+00    0.02       1.0  T
  80   -466.9283593 -0.235369E+00  0.967E-01    0.00       1.0  T
  81   -468.0139229 -0.108556E+01  0.373E-01    0.02       1.0  T
  82   -467.2361656  0.777757E+00  0.836E-01    0.00       1.0  T
  83   -467.8966183 -0.660453E+00  0.473E-01    0.02       1.0  T
  84   -467.8750754  0.215429E-01  0.486E-01    0.01       1.0  T
  85   -467.9023844 -0.273089E-01  0.460E-01    0.01       1.0  T
  86   -468.0565831 -0.154199E+00  0.314E-01    0.02       1.0  T
  87   -467.9673726  0.892105E-01  0.405E-01    0.01       1.0  T
  88   -468.1504467 -0.183074E+00  0.163E-01    0.02       1.0  T
  89   -467.8825349  0.267912E+00  0.484E-01    0.02       1.0  T
  90   -468.0846498 -0.202115E+00  0.282E-01    0.02       1.0  T
  91   -467.9478261  0.136824E+00  0.426E-01    0.02       1.0  T
  92   -468.1063216 -0.158495E+00  0.246E-01    0.02       1.0  T
  93   -467.9265976  0.179724E+00  0.440E-01    0.01       1.0  T
  94   -468.0861206 -0.159523E+00  0.274E-01    0.02       1.0  T
  95   -468.0999228 -0.138022E-01  0.250E-01    0.02       1.0  T
  96   -468.1658185 -0.658957E-01  0.112E-01    0.02       1.0  T
  97   -468.1756718 -0.985321E-02  0.569E-02    0.02       1.0  T
  98   -468.1632215  0.124502E-01  0.112E-01    0.02       1.0  T
  99   -468.1584686  0.475289E-02  0.123E-01    0.02       1.0  T
 100   -468.1557047  0.276395E-02  0.131E-01    0.02       1.0  T
 101   -468.1486086  0.709603E-02  0.151E-01    0.02       1.0  T
 102   -468.1586330 -0.100244E-01  0.123E-01    0.02       1.0  T
 103   -468.1629007 -0.426771E-02  0.110E-01    0.02       1.0  T
 104   -468.1678969 -0.499616E-02  0.905E-02    0.02       1.0  T
 105   -468.1726806 -0.478369E-02  0.690E-02    0.02       1.0  T
 106   -468.1775908 -0.491026E-02  0.306E-02    0.01       1.0  T
 107   -468.1782330 -0.642192E-03  0.196E-02    0.01       1.0  T
 108   -468.1780731  0.159944E-03  0.215E-02    0.01       1.0  T
 109   -468.1779855  0.875538E-04  0.224E-02    0.01       1.0  T
 110   -468.1780967 -0.111208E-03  0.197E-02    0.01       1.0  T
 111   -468.1781574 -0.606630E-04  0.189E-02    0.01       1.0  T
 112   -468.1778815  0.275944E-03  0.235E-02    0.01       1.0  T
 113   -468.1770356  0.845876E-03  0.345E-02    0.01       1.0  T
 114   -468.1783632 -0.132759E-02  0.135E-02    0.01       1.0  T
 115   -468.1784960 -0.132864E-03  0.905E-03    0.01       1.0  T
 116   -468.1785096 -0.135055E-04  0.828E-03    0.01       1.0  T
 117   -468.1785389 -0.293328E-04  0.669E-03    0.01       1.0  T
 118   -468.1785690 -0.301258E-04  0.467E-03    0.01       1.3  T
 119   -468.1785610  0.803906E-05  0.524E-03    0.01       1.2  T
 120   -468.1785739 -0.129000E-04  0.419E-03    0.01       1.5  T
 121   -468.1785876 -0.137007E-04  0.270E-03    0.01       2.3  T
 122   -468.1785899 -0.230967E-05  0.238E-03    0.01       2.6  T
 123   -468.1785894  0.467635E-06  0.247E-03    0.01       2.5  T
 124   -468.1785953 -0.592636E-05  0.122E-03    0.01       5.1  T
 125   -468.1785945  0.848118E-06  0.145E-03    0.01       4.3  T
 126   -468.1785966 -0.211428E-05  0.638E-04    0.01       9.8  T
 127   -468.1785963  0.284800E-06  0.800E-04    0.01       7.8  T
 128   -468.1785969 -0.560193E-06  0.481E-04    0.01      13.1  T
 129   -468.1785968  0.110297E-06  0.556E-04    0.01      11.3  T
 130   -468.1785968 -0.761144E-07  0.506E-04    0.01      12.4  T
 131   -468.1785970 -0.149495E-06  0.380E-04    0.01      16.5  T
 132   -468.1785972 -0.174076E-06  0.111E-04    0.01      56.3  T
 133   -468.1785971  0.332398E-07  0.190E-04    0.01      33.1  T

   *** convergence criteria satisfied after 133 iterations ***

         #    Occupation            Energy/Eh            Energy/eV
      -------------------------------------------------------------
         1        2.0000           -0.7960497             -21.6616
       ...           ...                  ...                  ...
       415        1.9942           -0.3763850             -10.2420
       416        1.9939           -0.3763422             -10.2408
       417        1.9804           -0.3752287             -10.2105
       418        1.5738           -0.3720851             -10.1249
       419        1.5275           -0.3719588             -10.1215
       420        1.3914           -0.3716297             -10.1126
       421        1.1658           -0.3711620             -10.0998 (HOMO)
       422        0.8990           -0.3706514             -10.0859 (LUMO)
       423        0.7755           -0.3704100             -10.0794
       424        0.6784           -0.3702104             -10.0739
       425        0.0264           -0.3667449              -9.9796
       426        0.0019           -0.3642372              -9.9114
       ...           ...                  ...                  ...
       888                          2.4121646              65.6383
      -------------------------------------------------------------
                  HL-Gap            0.0005106 Eh            0.0139 eV
             Fermi-level           -0.3708440 Eh          -10.0912 eV

 SCC (total)                   0 d,  0 h,  0 min, 35.285 sec
 SCC setup                      ...        0 min,  0.018 sec (  0.051%)
 Dispersion                     ...        0 min,  0.010 sec (  0.029%)
 classical contributions        ...        0 min,  0.003 sec (  0.008%)
 integral evaluation            ...        0 min,  0.295 sec (  0.835%)
 iterations                     ...        0 min, 34.314 sec ( 97.249%)
 molecular gradient             ...        0 min,  0.593 sec (  1.681%)
 printout                       ...        0 min,  0.052 sec (  0.147%)

         :::::::::::::::::::::::::::::::::::::::::::::::::::::
         ::                     SUMMARY                     ::
         :::::::::::::::::::::::::::::::::::::::::::::::::::::
         :: total energy            -459.919050952997 Eh    ::
         :: gradient norm              1.864878378562 Eh/a0 ::
         :: HOMO-LUMO gap              0.013893899063 eV    ::
         ::.................................................::
         :: SCC energy              -468.178597139394 Eh    ::
         :: -> electrostatic           0.540743105993 Eh    ::
         :: repulsion energy           8.482884929047 Eh    ::
         :: dispersion energy         -0.223338742651 Eh    ::
         :: halogen bond corr.         0.000000000000 Eh    ::
         :: add. restraining           0.000000000000 Eh    ::
         :: total charge              -0.000000000001 e     ::
         :::::::::::::::::::::::::::::::::::::::::::::::::::::

      ----------------------------------------------------------- 
     |                   =====================                   |
     |                        A N C O P T                        |
     |                   =====================                   |
     |               Approximate Normal Coordinate               |
     |                Rational Function Optimizer                |
      ----------------------------------------------------------- 

          ...................................................
          :                      SETUP                      :
          :.................................................:
          :   optimization level            normal          :
          :   max. optcycles                   762          :
          :   ANC micro-cycles                  20          :
          :   degrees of freedom               756          :
          :.................................................:
          :   RF solver                   davidson          :
          :   write xtbopt.log                true          :
          :   linear?                        false          :
          :   energy convergence         0.5000000E-05 Eh   :
          :   grad. convergence          0.1000000E-02 Eh/α :
          :   maximium RF displ.         1.0000000          :
          :   Hlow (freq-cutoff)         0.1000000E-01      :
          :   Hmax (freq-cutoff)         5.0000000          :
          :   S6 in model hess.         20.0000000          :
          ...................................................

generating ANC from model Hessian ...
Using Lindh-Hessian (1995)
 Shifting diagonal of input Hessian by    1.0029039674021134E-002
 Lowest  eigenvalues of input Hessian
    0.010000    0.010005    0.010008    0.010013    0.010015    0.010016
    0.010019    0.010022    0.010025    0.010026    0.010028    0.000000
    0.000000    0.000000    0.000000    0.000000    0.000000    0.010032
 Highest eigenvalues
    3.097892    3.169110    3.238149    3.275586    3.529392    3.529621


........................................................................
.............................. CYCLE    1 ..............................
........................................................................
   1   -468.1785972 -0.468179E+03  0.150E-04    0.01       0.0  T
   2   -468.1764941  0.210303E-02  0.388E-02    0.01       1.0  T
   3   -468.1785943 -0.210020E-02  0.148E-03    0.01       4.3  T
   4   -468.1776078  0.986488E-03  0.272E-02    0.01       1.0  T
   5   -468.1784776 -0.869768E-03  0.949E-03    0.01       1.0  T
   6   -468.1769609  0.151671E-02  0.345E-02    0.01       1.0  T
   7   -468.1785870 -0.162609E-02  0.269E-03    0.01       2.3  T
   8   -468.1785356  0.514258E-04  0.647E-03    0.01       1.0  T
   9   -468.1785955 -0.599727E-04  0.108E-03    0.01       5.8  T
  10   -468.1785944  0.115202E-05  0.141E-03    0.01       4.4  T
  11   -468.1785970 -0.258845E-05  0.389E-04    0.01      16.1  T
  12   -468.1785972 -0.205534E-06  0.526E-05    0.01     119.3  T
  13   -468.1785972  0.606184E-08  0.848E-05    0.01      74.0  T
     SCC iter.                  ...        0 min,  3.360 sec
     gradient                   ...        0 min,  0.596 sec
 * total energy  :  -459.9190510 Eh     change       -0.4052936E-07 Eh
   gradient norm :     1.8648782 Eh/α   predicted     0.0000000E+00 (-100.00%)
   displ. norm   :     0.5457954 α      lambda       -0.9625922E+00
   maximum displ.:     0.2305034 α      in ANC's #752, #753, #748, ...

........................................................................
.............................. CYCLE    2 ..............................
........................................................................
   1   -468.0654965 -0.468065E+03  0.317E-01    0.01       0.0  T
   2   -459.7084454  0.835705E+01  0.266E+00    0.14       1.0  T
   3   -442.0705487  0.176379E+02  0.416E+00    0.01       1.0  T
   4   -448.6271020 -0.655655E+01  0.365E+00    0.04       1.0  T
   5   -448.8810707 -0.253969E+00  0.362E+00    0.03       1.0  T
   6   -443.1094750  0.577160E+01  0.406E+00    0.18       1.0  T
   7   -461.5915410 -0.184821E+02  0.213E+00    0.08       1.0  T
   8   -457.4654788  0.412606E+01  0.271E+00    0.03       1.0  T
   9   -460.8649249 -0.339945E+01  0.226E+00    0.07       1.0  T
  10   -462.7307790 -0.186585E+01  0.198E+00    0.01       1.0  T
  11   -465.7602812 -0.302950E+01  0.134E+00    0.01       1.0  T
  12   -467.0640592 -0.130378E+01  0.904E-01    0.00       1.0  T
  13   -465.9702419  0.109382E+01  0.126E+00    0.00       1.0  T
  14   -464.4854555  0.148479E+01  0.165E+00    0.06       1.0  T
  15   -467.7153573 -0.322990E+01  0.576E-01    0.01       1.0  T
  16   -459.5172575  0.819810E+01  0.247E+00    0.03       1.0  T
  17   -464.7857558 -0.526850E+01  0.154E+00    0.04       1.0  T
  18   -467.2189493 -0.243319E+01  0.839E-01    0.00       1.0  T
  19   -467.4940556 -0.275106E+00  0.677E-01    0.01       1.0  T
  20   -467.5201442 -0.260886E-01  0.685E-01    0.01       1.0  T
  21   -468.0950360 -0.574892E+00  0.191E-01    0.01       1.0  T
  22   -468.0444620  0.505741E-01  0.267E-01    0.00       1.0  T
  23   -467.9282044  0.116258E+00  0.402E-01    0.01       1.0  T
  24   -467.9331354 -0.493107E-02  0.394E-01    0.01       1.0  T
  25   -467.8306666  0.102469E+00  0.483E-01    0.03       1.0  T
  26   -467.9432583 -0.112592E+00  0.379E-01    0.00       1.0  T
  27   -468.0068785 -0.636202E-01  0.315E-01    0.01       1.0  T
  28   -468.1419270 -0.135048E+00  0.472E-02    0.01       1.0  T
  29   -468.1238609  0.180661E-01  0.123E-01    0.01       1.0  T
  30   -468.1343335 -0.104725E-01  0.883E-02    0.01       1.0  T
  31   -468.1393541 -0.502057E-02  0.633E-02    0.01       1.0  T
  32   -468.1419550 -0.260097E-02  0.468E-02    0.01       1.0  T
  33   -468.1436416 -0.168657E-02  0.306E-02    0.01       1.0  T
  34   -468.1427401  0.901524E-03  0.400E-02    0.01       1.0  T
  35   -468.1447934 -0.205336E-02  0.102E-02    0.01       1.0  T
  36   -468.1446148  0.178651E-03  0.157E-02    0.01       1.0  T
  37   -468.1448572 -0.242413E-03  0.805E-03    0.01       1.0  T
  38   -468.1449138 -0.565528E-04  0.474E-03    0.01       1.3  T
  39   -468.1448992  0.145789E-04  0.576E-03    0.01       1.1  T
  40   -468.1449278 -0.286309E-04  0.327E-03    0.01       1.9  T
  41   -468.1449276  0.214614E-06  0.331E-03    0.01       1.9  T
  42   -468.1449336 -0.599041E-05  0.253E-03    0.01       2.5  T
  43   -468.1449345 -0.939470E-06  0.240E-03    0.01       2.6  T
  44   -468.1449360 -0.146045E-05  0.218E-03    0.01       2.9  T
  45   -468.1449401 -0.407775E-05  0.135E-03    0.01       4.6  T
  46   -468.1449419 -0.181773E-05  0.676E-04    0.01       9.3  T
  47   -468.1449420 -0.170451E-06  0.575E-04    0.01      10.9  T
  48   -468.1449423 -0.220764E-06  0.376E-04    0.01      16.7  T
  49   -468.1449424 -0.119360E-06  0.235E-04    0.01      26.6  T
  50   -468.1449424 -0.399226E-07  0.172E-04    0.01      36.4  T
  51   -468.1449424 -0.196326E-07  0.125E-04    0.01      50.3  T
     SCC iter.                  ...        0 min, 13.149 sec
     gradient                   ...        0 min,  0.598 sec
 * total energy  :  -460.5594532 Eh     change       -0.6404022E+00 Eh
   gradient norm :     0.7367656 Eh/α   predicted    -0.6246710E+00 (  -2.46%)
   displ. norm   :     0.5257633 α      lambda       -0.3158550E+00
   maximum displ.:     0.1224543 α      in ANC's #753, #754, #752, ...

........................................................................
.............................. CYCLE    3 ..............................
........................................................................
   1   -468.1800457 -0.468180E+03  0.343E-01    0.03       0.0  T
   2   -457.2941876  0.108859E+02  0.303E+00    0.12       1.0  T
   3   -457.2207701  0.734175E-01  0.285E+00    0.07       1.0  T
   4   -445.6147004  0.116061E+02  0.391E+00    0.14       1.0  T
   5   -457.7405220 -0.121258E+02  0.273E+00    0.01       1.0  T
   6   -442.0882676  0.156523E+02  0.415E+00    0.34       1.0  T
   7   -466.2763885 -0.241881E+02  0.121E+00    0.02       1.0  T
   8   -464.8608439  0.141554E+01  0.152E+00    0.00       1.0  T
   9   -466.0012635 -0.114042E+01  0.130E+00    0.01       1.0  T
  10   -466.1566075 -0.155344E+00  0.130E+00    0.02       1.0  T
  11   -466.0379420  0.118665E+00  0.134E+00    0.02       1.0  T
  12   -465.7165973  0.321345E+00  0.140E+00    0.05       1.0  T
  13   -464.6128091  0.110379E+01  0.167E+00    0.02       1.0  T
  14   -465.4207198 -0.807911E+00  0.144E+00    0.05       1.0  T
  15   -466.8172196 -0.139650E+01  0.107E+00    0.00       1.0  T
  16   -467.0855205 -0.268301E+00  0.961E-01    0.01       1.0  T
  17   -466.0851553  0.100037E+01  0.127E+00    0.04       1.0  T
  18   -466.8533303 -0.768175E+00  0.105E+00    0.01       1.0  T
  19   -468.0355528 -0.118222E+01  0.430E-01    0.01       1.0  T
  20   -467.7148908  0.320662E+00  0.656E-01    0.00       1.0  T
  21   -468.1986484 -0.483758E+00  0.287E-01    0.02       1.0  T
  22   -467.6003711  0.598277E+00  0.713E-01    0.01       1.0  T
  23   -468.2064361 -0.606065E+00  0.264E-01    0.00       1.0  T
  24   -468.1104962  0.959399E-01  0.376E-01    0.01       1.0  T
  25   -468.2888370 -0.178341E+00  0.101E-01    0.01       1.0  T
  26   -468.2728414  0.159955E-01  0.149E-01    0.01       1.0  T
  27   -468.2611319  0.117096E-01  0.175E-01    0.00       1.0  T
  28   -468.2945739 -0.334421E-01  0.750E-02    0.01       1.0  T
  29   -468.2945347  0.392911E-04  0.742E-02    0.01       1.0  T
  30   -468.2959388 -0.140413E-02  0.668E-02    0.01       1.0  T
  31   -468.2974846 -0.154580E-02  0.566E-02    0.01       1.0  T
  32   -468.3002177 -0.273310E-02  0.322E-02    0.01       1.0  T
  33   -468.2990794  0.113828E-02  0.436E-02    0.01       1.0  T
  34   -468.3001798 -0.110035E-02  0.317E-02    0.01       1.0  T
  35   -468.3002379 -0.581486E-04  0.316E-02    0.01       1.0  T
  36   -468.3007405 -0.502589E-03  0.240E-02    0.01       1.0  T
  37   -468.3010677 -0.327174E-03  0.187E-02    0.01       1.0  T
  38   -468.3012089 -0.141188E-03  0.154E-02    0.01       1.0  T
  39   -468.3013462 -0.137350E-03  0.116E-02    0.01       1.0  T
  40   -468.3013526 -0.641780E-05  0.113E-02    0.01       1.0  T
  41   -468.3014271 -0.744243E-04  0.829E-03    0.01       1.0  T
  42   -468.3014256  0.146052E-05  0.824E-03    0.01       1.0  T
  43   -468.3014744 -0.488456E-04  0.565E-03    0.01       1.1  T
  44   -468.3014846 -0.101640E-04  0.485E-03    0.01       1.3  T
  45   -468.3015043 -0.196528E-04  0.304E-03    0.01       2.1  T
  46   -468.3015123 -0.805346E-05  0.186E-03    0.01       3.4  T
  47   -468.3015145 -0.217851E-05  0.136E-03    0.01       4.6  T
  48   -468.3015168 -0.233573E-05  0.440E-04    0.01      14.3  T
  49   -468.3015170 -0.159427E-06  0.291E-04    0.01      21.6  T
  50   -468.3015171 -0.683060E-07  0.189E-04    0.01      33.2  T
  51   -468.3015171 -0.381316E-07  0.918E-05    0.01      68.3  T
     SCC iter.                  ...        0 min, 13.100 sec
     gradient                   ...        0 min,  0.594 sec
 * total energy  :  -460.7731659 Eh     change       -0.2137127E+00 Eh
   gradient norm :     0.2724703 Eh/α   predicted    -0.2015831E+00 (  -5.68%)
   displ. norm   :     0.6676712 α      lambda       -0.1284263E+00
   maximum displ.:     0.2472339 α      in ANC's #204, #208, #206, ...

........................................................................
.............................. CYCLE    4 ..............................
........................................................................
   1   -468.2988294 -0.468299E+03  0.259E-01    0.05       0.0  T
   2   -459.9608683  0.833796E+01  0.276E+00    0.03       1.0  T
   3   -459.4246468  0.536222E+00  0.256E+00    0.05       1.0  T
   4   -447.9280241  0.114966E+02  0.373E+00    0.07       1.0  T
   5   -459.8066991 -0.118787E+02  0.246E+00    0.01       1.0  T
   6   -443.9613814  0.158453E+02  0.402E+00    0.20       1.0  T
   7   -466.0671587 -0.221058E+02  0.128E+00    0.02       1.0  T
   8   -462.5006668  0.356649E+01  0.202E+00    0.00       1.0  T
   9   -462.8105961 -0.309929E+00  0.196E+00    0.04       1.0  T
  10   -465.7519123 -0.294132E+01  0.143E+00    0.00       1.0  T
  11   -465.3565688  0.395343E+00  0.147E+00    0.04       1.0  T
  12   -461.9649168  0.339165E+01  0.212E+00    0.02       1.0  T
  13   -467.5490093 -0.558409E+01  0.781E-01    0.00       1.0  T
  14   -465.3081252  0.224088E+01  0.150E+00    0.01       1.0  T
  15   -466.8418887 -0.153376E+01  0.108E+00    0.01       1.0  T
  16   -467.6157124 -0.773824E+00  0.732E-01    0.02       1.0  T
  17   -467.7297807 -0.114068E+00  0.695E-01    0.01       1.0  T
  18   -468.2047434 -0.474963E+00  0.345E-01    0.01       1.0  T
  19   -468.2942842 -0.895408E-01  0.238E-01    0.00       1.0  T
  20   -468.3547564 -0.604722E-01  0.119E-01    0.02       1.0  T
  21   -468.3443497  0.104067E-01  0.141E-01    0.01       1.0  T
  22   -468.3187912  0.255586E-01  0.201E-01    0.01       1.0  T
  23   -468.3099642  0.882695E-02  0.217E-01    0.01       1.0  T
  24   -468.3457206 -0.357564E-01  0.143E-01    0.01       1.0  T
  25   -468.2933630  0.523576E-01  0.241E-01    0.01       1.0  T
  26   -468.3610426 -0.676796E-01  0.940E-02    0.02       1.0  T
  27   -468.3515052  0.953744E-02  0.125E-01    0.01       1.0  T
  28   -468.3657499 -0.142447E-01  0.716E-02    0.02       1.0  T
  29   -468.3655459  0.203995E-03  0.721E-02    0.02       1.0  T
  30   -468.3703450 -0.479906E-02  0.400E-02    0.02       1.0  T
  31   -468.3708280 -0.483019E-03  0.350E-02    0.02       1.0  T
  32   -468.3714366 -0.608572E-03  0.273E-02    0.02       1.0  T
  33   -468.3718288 -0.392278E-03  0.208E-02    0.02       1.0  T
  34   -468.3719725 -0.143675E-03  0.181E-02    0.02       1.0  T
  35   -468.3721166 -0.144095E-03  0.147E-02    0.02       1.0  T
  36   -468.3721813 -0.646588E-04  0.127E-02    0.02       1.0  T
  37   -468.3722900 -0.108770E-03  0.879E-03    0.02       1.0  T
  38   -468.3723589 -0.689057E-04  0.496E-03    0.02       1.3  T
  39   -468.3723689 -0.993688E-05  0.405E-03    0.02       1.5  T
  40   -468.3723832 -0.143145E-04  0.230E-03    0.02       2.7  T
  41   -468.3723877 -0.447592E-05  0.132E-03    0.02       4.8  T
  42   -468.3723892 -0.154450E-05  0.773E-04    0.02       8.1  T
  43   -468.3723898 -0.535698E-06  0.394E-04    0.02      15.9  T
  44   -468.3723896  0.179585E-06  0.531E-04    0.02      11.8  T
  45   -468.3723898 -0.232495E-06  0.320E-04    0.02      19.6  T
  46   -468.3723899 -0.121775E-06  0.942E-05    0.02      66.6  T
  47   -468.3723899 -0.335615E-08  0.757E-05    0.02      82.9  T
     SCC iter.                  ...        0 min, 12.038 sec
     gradient                   ...        0 min,  0.588 sec
 * total energy  :  -460.8699911 Eh     change       -0.9682515E-01 Eh
   gradient norm :     0.1542468 Eh/α   predicted    -0.9283856E-01 (  -4.12%)
   displ. norm   :     0.7805774 α      lambda       -0.8486161E-01
   maximum displ.:     0.2723046 α      in ANC's #204, #57, #208, ...

........................................................................
.............................. CYCLE    5 ..............................
........................................................................
   1   -468.3389522 -0.468339E+03  0.217E-01    0.07       0.0  T
   2   -460.9965267  0.734243E+01  0.264E+00    0.07       1.0  T
   3   -459.3005697  0.169596E+01  0.257E+00    0.00       1.0  T
   4   -447.7388801  0.115617E+02  0.375E+00    0.07       1.0  T
   5   -463.7138095 -0.159749E+02  0.183E+00    0.02       1.0  T
   6   -443.7255898  0.199882E+02  0.404E+00    0.21       1.0  T
   7   -467.3617685 -0.236362E+02  0.855E-01    0.02       1.0  T
   8   -465.6246340  0.173713E+01  0.138E+00    0.01       1.0  T
   9   -464.0439967  0.158064E+01  0.179E+00    0.04       1.0  T
  10   -467.2710479 -0.322705E+01  0.924E-01    0.04       1.0  T
  11   -460.8863534  0.638469E+01  0.230E+00    0.01       1.0  T
  12   -464.3733522 -0.348700E+01  0.168E+00    0.03       1.0  T
  13   -461.2915334  0.308182E+01  0.222E+00    0.02       1.0  T
  14   -468.2130203 -0.692149E+01  0.355E-01    0.04       1.0  T
  15   -465.7656300  0.244739E+01  0.138E+00    0.02       1.0  T
  16   -465.8739382 -0.108308E+00  0.135E+00    0.01       1.0  T
  17   -468.1560367 -0.228210E+01  0.413E-01    0.02       1.0  T
  18   -467.4972957  0.658741E+00  0.796E-01    0.00       1.0  T
  19   -468.1538788 -0.656583E+00  0.415E-01    0.03       1.0  T
  20   -468.2581065 -0.104228E+00  0.304E-01    0.01       1.0  T
  21   -468.2597059 -0.159934E-02  0.306E-01    0.03       1.0  T
  22   -468.3699533 -0.110247E+00  0.116E-01    0.03       1.0  T
  23   -468.3476255  0.223278E-01  0.172E-01    0.03       1.0  T
  24   -468.3751469 -0.275214E-01  0.986E-02    0.04       1.0  T
  25   -468.3657572  0.938973E-02  0.130E-01    0.04       1.0  T
  26   -468.3691744 -0.341719E-02  0.119E-01    0.03       1.0  T
  27   -468.3707555 -0.158117E-02  0.114E-01    0.04       1.0  T
  28   -468.3791568 -0.840130E-02  0.802E-02    0.04       1.0  T
  29   -468.3815549 -0.239808E-02  0.678E-02    0.04       1.0  T
  30   -468.3839965 -0.244160E-02  0.524E-02    0.04       1.0  T
  31   -468.3843133 -0.316770E-03  0.495E-02    0.04       1.0  T
  32   -468.3852346 -0.921351E-03  0.413E-02    0.04       1.0  T
  33   -468.3862458 -0.101116E-02  0.301E-02    0.04       1.0  T
  34   -468.3862738 -0.280376E-04  0.297E-02    0.04       1.0  T
  35   -468.3865896 -0.315821E-03  0.251E-02    0.04       1.0  T
  36   -468.3866668 -0.772092E-04  0.238E-02    0.04       1.0  T
  37   -468.3870082 -0.341318E-03  0.174E-02    0.04       1.0  T
  38   -468.3871295 -0.121318E-03  0.142E-02    0.04       1.0  T
  39   -468.3872155 -0.860532E-04  0.114E-02    0.04       1.0  T
  40   -468.3872919 -0.763797E-04  0.841E-03    0.04       1.0  T
  41   -468.3873091 -0.171672E-04  0.750E-03    0.04       1.0  T
  42   -468.3873354 -0.263275E-04  0.599E-03    0.04       1.0  T
  43   -468.3873580 -0.225746E-04  0.430E-03    0.04       1.5  T
  44   -468.3873738 -0.158510E-04  0.247E-03    0.04       2.5  T
  45   -468.3873805 -0.667860E-05  0.984E-04    0.04       6.4  T
  46   -468.3873816 -0.106903E-05  0.381E-04    0.04      16.5  T
  47   -468.3873817 -0.106234E-06  0.233E-04    0.04      26.9  T
  48   -468.3873817 -0.580274E-07  0.864E-05    0.04      72.6  T
  49   -468.3873818 -0.400928E-08  0.587E-05    0.04     106.8  T
     SCC iter.                  ...        0 min, 12.603 sec
     gradient                   ...        0 min,  0.600 sec
 * total energy  :  -460.9396956 Eh     change       -0.6970456E-01 Eh
   gradient norm :     0.1129091 Eh/α   predicted    -0.6828416E-01 (  -2.04%)
   displ. norm   :     0.8772977 α      lambda       -0.7145692E-01
   maximum displ.:     0.2899513 α      in ANC's #57, #204, #142, ...

........................................................................
.............................. CYCLE    6 ..............................
........................................................................
   1   -468.3376714 -0.468338E+03  0.182E-01    0.07       0.0  T
   2   -461.6405308  0.669714E+01  0.229E+00    0.01       1.0  T
   3   -441.7000274  0.199405E+02  0.422E+00    0.50       1.0  T
   4   -457.0710422 -0.153710E+02  0.283E+00    0.00       1.0  T
   5   -443.3657693  0.137053E+02  0.412E+00    0.19       1.0  T
   6   -464.3668893 -0.210011E+02  0.172E+00    0.00       1.0  T
   7   -463.8909942  0.475895E+00  0.182E+00    0.04       1.0  T
   8   -460.1531659  0.373783E+01  0.241E+00    0.02       1.0  T
   9   -460.9771608 -0.823995E+00  0.231E+00    0.01       1.0  T
  10   -461.3389844 -0.361824E+00  0.222E+00    0.01       1.0  T
  11   -464.9990807 -0.366010E+01  0.158E+00    0.05       1.0  T
  12   -467.2721540 -0.227307E+01  0.936E-01    0.03       1.0  T
  13   -466.2131954  0.105896E+01  0.126E+00    0.01       1.0  T
  14   -466.0740801  0.139115E+00  0.131E+00    0.01       1.0  T
  15   -466.1187380 -0.446579E-01  0.132E+00    0.01       1.0  T
  16   -462.8657923  0.325295E+01  0.200E+00    0.01       1.0  T
  17   -464.7130190 -0.184723E+01  0.164E+00    0.02       1.0  T
  18   -467.4871943 -0.277418E+01  0.835E-01    0.01       1.0  T
  19   -468.0173220 -0.530128E+00  0.566E-01    0.01       1.0  T
  20   -467.7150555  0.302267E+00  0.727E-01    0.03       1.0  T
  21   -468.1294198 -0.414364E+00  0.442E-01    0.01       1.0  T
  22   -468.1592737 -0.298539E-01  0.421E-01    0.03       1.0  T
  23   -468.1947577 -0.354840E-01  0.373E-01    0.01       1.0  T
  24   -468.2468720 -0.521143E-01  0.308E-01    0.02       1.0  T
  25   -468.2187407  0.281314E-01  0.337E-01    0.01       1.0  T
  26   -468.1759566  0.427840E-01  0.383E-01    0.02       1.0  T
  27   -468.2188074 -0.428507E-01  0.340E-01    0.03       1.0  T
  28   -468.3101059 -0.912986E-01  0.214E-01    0.04       1.0  T
  29   -468.3213491 -0.112431E-01  0.191E-01    0.04       1.0  T
  30   -468.3595489 -0.381998E-01  0.873E-02    0.05       1.0  T
  31   -468.3588355  0.713382E-03  0.883E-02    0.05       1.0  T
  32   -468.3625217 -0.368618E-02  0.711E-02    0.05       1.0  T
  33   -468.3649816 -0.245986E-02  0.560E-02    0.05       1.0  T
  34   -468.3669219 -0.194035E-02  0.416E-02    0.05       1.0  T
  35   -468.3684860 -0.156411E-02  0.246E-02    0.05       1.0  T
  36   -468.3687428 -0.256823E-03  0.203E-02    0.05       1.0  T
  37   -468.3689361 -0.193278E-03  0.162E-02    0.05       1.0  T
  38   -468.3690264 -0.903268E-04  0.137E-02    0.05       1.0  T
  39   -468.3691021 -0.756655E-04  0.111E-02    0.05       1.0  T
  40   -468.3691568 -0.547192E-04  0.860E-03    0.05       1.0  T
  41   -468.3691838 -0.269370E-04  0.699E-03    0.05       1.0  T
  42   -468.3692134 -0.296211E-04  0.497E-03    0.05       1.3  T
  43   -468.3692369 -0.234949E-04  0.265E-03    0.05       2.4  T
  44   -468.3692444 -0.753642E-05  0.120E-03    0.05       5.2  T
  45   -468.3692461 -0.171070E-05  0.432E-04    0.05      14.5  T
  46   -468.3692464 -0.241465E-06  0.100E-04    0.05      62.7  T
  47   -468.3692464 -0.430873E-08  0.785E-05    0.05      80.0  T
     SCC iter.                  ...        0 min, 12.092 sec
     gradient                   ...        0 min,  0.601 sec
 * total energy  :  -461.0068945 Eh     change       -0.6719893E-01 Eh
   gradient norm :     0.1072236 Eh/α   predicted    -0.6322711E-01 (  -5.91%)
   displ. norm   :     0.9387459 α      lambda       -0.7352282E-01
   maximum displ.:     0.3302673 α      in ANC's #57, #142, #204, ...

........................................................................
.............................. CYCLE    7 ..............................
........................................................................
   1   -468.3151449 -0.468315E+03  0.171E-01    0.07       0.0  T
   2   -442.2998857  0.260153E+02  0.419E+00    0.29       1.0  T
   3   -443.1850945 -0.885209E+00  0.412E+00    0.21       1.0  T
   4   -462.9891835 -0.198041E+02  0.226E+00    0.03       1.0  T
   5   -457.6121500  0.537703E+01  0.277E+00    0.01       1.0  T
   6   -447.4689914  0.101432E+02  0.378E+00    0.09       1.0  T
   7   -468.0014562 -0.205325E+02  0.515E-01    0.08       1.0  T
   8   -463.7670954  0.423436E+01  0.179E+00    0.04       1.0  T
   9   -465.7137469 -0.194665E+01  0.139E+00    0.02       1.0  T
  10   -461.2709236  0.444282E+01  0.226E+00    0.01       1.0  T
  11   -464.0371211 -0.276620E+01  0.178E+00    0.03       1.0  T
  12   -464.6524996 -0.615379E+00  0.164E+00    0.03       1.0  T
  13   -458.5196662  0.613283E+01  0.259E+00    0.02       1.0  T
  14   -466.2413631 -0.772170E+01  0.123E+00    0.03       1.0  T
  15   -467.8653577 -0.162399E+01  0.581E-01    0.02       1.0  T
  16   -467.7714820  0.938756E-01  0.643E-01    0.02       1.0  T
  17   -467.8555355 -0.840535E-01  0.587E-01    0.02       1.0  T
  18   -468.3123922 -0.456857E+00  0.149E-01    0.04       1.0  T
  19   -468.2396093  0.727829E-01  0.274E-01    0.04       1.0  T
  20   -468.3048580 -0.652487E-01  0.169E-01    0.04       1.0  T
  21   -468.2791501  0.257079E-01  0.216E-01    0.05       1.0  T
  22   -468.2919857 -0.128356E-01  0.194E-01    0.04       1.0  T
  23   -468.2894779  0.250780E-02  0.197E-01    0.05       1.0  T
  24   -468.2693147  0.201632E-01  0.230E-01    0.05       1.0  T
  25   -468.3205374 -0.512227E-01  0.125E-01    0.05       1.0  T
  26   -468.3104203  0.101171E-01  0.151E-01    0.05       1.0  T
  27   -468.3294803 -0.190600E-01  0.948E-02    0.06       1.0  T
  28   -468.3386680 -0.918769E-02  0.490E-02    0.06       1.0  T
  29   -468.3406178 -0.194975E-02  0.317E-02    0.06       1.0  T
  30   -468.3402466  0.371129E-03  0.359E-02    0.06       1.0  T
  31   -468.3401078  0.138863E-03  0.373E-02    0.06       1.0  T
  32   -468.3409409 -0.833094E-03  0.276E-02    0.06       1.0  T
  33   -468.3412159 -0.274997E-03  0.236E-02    0.06       1.0  T
  34   -468.3412916 -0.756886E-04  0.222E-02    0.06       1.0  T
  35   -468.3413656 -0.740714E-04  0.209E-02    0.06       1.0  T
  36   -468.3414092 -0.435858E-04  0.200E-02    0.06       1.0  T
  37   -468.3415183 -0.109036E-03  0.176E-02    0.06       1.0  T
  38   -468.3416136 -0.953679E-04  0.153E-02    0.06       1.0  T
  39   -468.3417067 -0.930968E-04  0.127E-02    0.06       1.0  T
  40   -468.3417753 -0.685658E-04  0.102E-02    0.06       1.0  T
  41   -468.3418672 -0.918633E-04  0.575E-03    0.06       1.1  T
  42   -468.3418885 -0.213112E-04  0.416E-03    0.06       1.5  T
  43   -468.3419065 -0.180653E-04  0.181E-03    0.06       3.5  T
  44   -468.3419098 -0.322535E-05  0.957E-04    0.06       6.6  T
  45   -468.3419105 -0.706182E-06  0.640E-04    0.06       9.8  T
  46   -468.3419108 -0.310119E-06  0.361E-04    0.06      17.4  T
  47   -468.3419108 -0.225018E-07  0.310E-04    0.06      20.2  T
  48   -468.3419108 -0.261014E-07  0.267E-04    0.06      23.5  T
  49   -468.3419109 -0.406492E-07  0.187E-04    0.06      33.5  T
  50   -468.3419109 -0.304791E-07  0.110E-04    0.06      57.3  T
     SCC iter.                  ...        0 min, 12.952 sec
     gradient                   ...        0 min,  0.603 sec
 * total energy  :  -461.0754637 Eh     change       -0.6856919E-01 Eh
   gradient norm :     0.1025504 Eh/α   predicted    -0.6915721E-01 (   0.86%)
   displ. norm   :     0.9005572 α      lambda       -0.6365276E-01
   maximum displ.:     0.3703296 α      in ANC's #57, #142, #204, ...

........................................................................
.............................. CYCLE    8 ..............................
........................................................................
   1   -468.3073690 -0.468307E+03  0.134E-01    0.06       0.0  T
   2   -440.6074097  0.277000E+02  0.429E+00    0.38       1.0  T
   3   -441.8531864 -0.124578E+01  0.420E+00    0.56       1.0  T
   4   -463.9562278 -0.221030E+02  0.177E+00    0.02       1.0  T
   5   -445.5197186  0.184365E+02  0.393E+00    0.12       1.0  T
   6   -466.5865308 -0.210668E+02  0.114E+00    0.00       1.0  T
   7   -461.1276046  0.545893E+01  0.226E+00    0.01       1.0  T
   8   -462.6072047 -0.147960E+01  0.205E+00    0.00       1.0  T
   9   -461.3406763  0.126653E+01  0.219E+00    0.01       1.0  T
  10   -456.4585310  0.488215E+01  0.282E+00    0.00       1.0  T
  11   -464.9698131 -0.851128E+01  0.156E+00    0.03       1.0  T
  12   -466.1673276 -0.119751E+01  0.126E+00    0.01       1.0  T
  13   -464.8416531  0.132567E+01  0.157E+00    0.01       1.0  T
  14   -463.0408872  0.180077E+01  0.196E+00    0.00       1.0  T
  15   -462.6500573  0.390830E+00  0.203E+00    0.03       1.0  T
  16   -459.5299869  0.312007E+01  0.250E+00    0.01       1.0  T
  17   -461.9135822 -0.238360E+01  0.215E+00    0.01       1.0  T
  18   -465.1441493 -0.323057E+01  0.154E+00    0.01       1.0  T
  19   -467.9912834 -0.284713E+01  0.469E-01    0.04       1.0  T
  20   -467.9102827  0.810007E-01  0.557E-01    0.02       1.0  T
  21   -467.8185865  0.916963E-01  0.614E-01    0.02       1.0  T
  22   -468.1887361 -0.370150E+00  0.311E-01    0.03       1.0  T
  23   -468.1644196  0.243165E-01  0.347E-01    0.04       1.0  T
  24   -468.1793951 -0.149755E-01  0.327E-01    0.04       1.0  T
  25   -468.0429437  0.136451E+00  0.458E-01    0.03       1.0  T
  26   -468.0456084 -0.266463E-02  0.458E-01    0.03       1.0  T
  27   -467.9706897  0.749187E-01  0.516E-01    0.03       1.0  T
  28   -467.9207442  0.499455E-01  0.554E-01    0.03       1.0  T
  29   -467.9515550 -0.308108E-01  0.534E-01    0.03       1.0  T
  30   -467.9511004  0.454613E-03  0.534E-01    0.03       1.0  T
  31   -467.9751620 -0.240616E-01  0.515E-01    0.03       1.0  T
  32   -468.0848303 -0.109668E+00  0.425E-01    0.03       1.0  T
  33   -468.1921286 -0.107298E+00  0.314E-01    0.04       1.0  T
  34   -468.2399764 -0.478478E-01  0.252E-01    0.05       1.0  T
  35   -468.2658332 -0.258568E-01  0.211E-01    0.05       1.0  T
  36   -468.2830072 -0.171740E-01  0.178E-01    0.05       1.0  T
  37   -468.2856250 -0.261782E-02  0.172E-01    0.05       1.0  T
  38   -468.2989821 -0.133571E-01  0.138E-01    0.05       1.0  T
  39   -468.3098428 -0.108607E-01  0.101E-01    0.05       1.0  T
  40   -468.3172674 -0.742463E-02  0.656E-02    0.06       1.0  T
  41   -468.3206044 -0.333696E-02  0.417E-02    0.06       1.0  T
  42   -468.3222209 -0.161654E-02  0.225E-02    0.06       1.0  T
  43   -468.3226484 -0.427444E-03  0.137E-02    0.06       1.0  T
  44   -468.3227703 -0.121956E-03  0.981E-03    0.06       1.0  T
  45   -468.3228685 -0.981728E-04  0.522E-03    0.06       1.2  T
  46   -468.3228850 -0.164643E-04  0.406E-03    0.06       1.5  T
  47   -468.3228975 -0.125603E-04  0.265E-03    0.06       2.4  T
  48   -468.3229044 -0.686275E-05  0.134E-03    0.06       4.7  T
  49   -468.3229060 -0.163486E-05  0.705E-04    0.06       8.9  T
  50   -468.3229066 -0.564369E-06  0.276E-04    0.06      22.8  T
  51   -468.3229067 -0.834589E-07  0.115E-04    0.06      54.6  T
  52   -468.3229067 -0.150146E-07  0.415E-05    0.06     151.3  T
     SCC iter.                  ...        0 min, 13.484 sec
     gradient                   ...        0 min,  0.604 sec
 * total energy  :  -461.1260498 Eh     change       -0.5058607E-01 Eh
   gradient norm :     0.0911705 Eh/α   predicted    -0.5763780E-01 (  13.94%)
   displ. norm   :     0.7725635 α      lambda       -0.4092724E-01
   maximum displ.:     0.3895484 α      in ANC's #57, #18, #138, ...

........................................................................
.............................. CYCLE    9 ..............................
........................................................................
   1   -468.3564834 -0.468356E+03  0.485E-02    0.06       0.0  T
   2   -455.7492351  0.126072E+02  0.296E+00    0.04       1.0  T
   3   -466.6331257 -0.108839E+02  0.119E+00    0.02       1.0  T
   4   -458.6364107  0.799672E+01  0.263E+00    0.01       1.0  T
   5   -466.2550810 -0.761867E+01  0.125E+00    0.01       1.0  T
   6   -466.7733307 -0.518250E+00  0.109E+00    0.01       1.0  T
   7   -465.1519364  0.162139E+01  0.148E+00    0.01       1.0  T
   8   -467.0050116 -0.185308E+01  0.975E-01    0.02       1.0  T
   9   -459.5387299  0.746628E+01  0.251E+00    0.01       1.0  T
  10   -467.0616469 -0.752292E+01  0.980E-01    0.02       1.0  T
  11   -468.0409803 -0.979333E+00  0.491E-01    0.06       1.0  T
  12   -468.1616085 -0.120628E+00  0.391E-01    0.08       1.0  T
  13   -468.2441312 -0.825227E-01  0.296E-01    0.08       1.0  T
  14   -468.0462930  0.197838E+00  0.477E-01    0.05       1.0  T
  15   -468.0767533 -0.304603E-01  0.451E-01    0.04       1.0  T
  16   -468.2361662 -0.159413E+00  0.303E-01    0.04       1.0  T
  17   -468.2730614 -0.368953E-01  0.246E-01    0.05       1.0  T
  18   -468.3555008 -0.824394E-01  0.428E-02    0.06       1.0  T
  19   -468.3274757  0.280251E-01  0.152E-01    0.05       1.0  T
  20   -468.3314852 -0.400951E-02  0.142E-01    0.05       1.0  T
  21   -468.3399380 -0.845276E-02  0.119E-01    0.05       1.0  T
  22   -468.3537939 -0.138560E-01  0.617E-02    0.05       1.0  T
  23   -468.3552716 -0.147764E-02  0.494E-02    0.05       1.0  T
  24   -468.3558798 -0.608201E-03  0.450E-02    0.06       1.0  T
  25   -468.3576936 -0.181381E-02  0.249E-02    0.06       1.0  T
  26   -468.3557260  0.196760E-02  0.449E-02    0.06       1.0  T
  27   -468.3563957 -0.669749E-03  0.393E-02    0.06       1.0  T
  28   -468.3578385 -0.144275E-02  0.227E-02    0.06       1.0  T
  29   -468.3579548 -0.116343E-03  0.207E-02    0.06       1.0  T
  30   -468.3580824 -0.127575E-03  0.184E-02    0.06       1.0  T
  31   -468.3583485 -0.266117E-03  0.121E-02    0.06       1.0  T
  32   -468.3584371 -0.885738E-04  0.903E-03    0.06       1.0  T
  33   -468.3584490 -0.118697E-04  0.848E-03    0.06       1.0  T
  34   -468.3584586 -0.967274E-05  0.801E-03    0.06       1.0  T
  35   -468.3584920 -0.333323E-04  0.611E-03    0.06       1.0  T
  36   -468.3585148 -0.228803E-04  0.429E-03    0.06       1.5  T
  37   -468.3585294 -0.145647E-04  0.255E-03    0.06       2.5  T
  38   -468.3585366 -0.718764E-05  0.892E-04    0.06       7.0  T
  39   -468.3585374 -0.847427E-06  0.354E-04    0.06      17.7  T
  40   -468.3585376 -0.121202E-06  0.173E-04    0.06      36.2  T
  41   -468.3585376 -0.203671E-07  0.120E-04    0.06      52.4  T
     SCC iter.                  ...        0 min, 10.615 sec
     gradient                   ...        0 min,  0.604 sec
 * total energy  :  -461.1590006 Eh     change       -0.3295077E-01 Eh
   gradient norm :     0.0732157 Eh/α   predicted    -0.3267749E-01 (  -0.83%)
   displ. norm   :     0.8009447 α      lambda       -0.3684900E-01
   maximum displ.:     0.4357698 α      in ANC's #57, #18, #81, ...

........................................................................
.............................. CYCLE   10 ..............................
........................................................................
   1   -468.4228253 -0.468423E+03  0.516E-02    0.06       0.0  T
   2   -447.0795799  0.213432E+02  0.383E+00    0.09       1.0  T
   3   -456.1748462 -0.909527E+01  0.293E+00    0.03       1.0  T
   4   -463.7439432 -0.756910E+01  0.183E+00    0.01       1.0  T
   5   -465.6364635 -0.189252E+01  0.143E+00    0.00       1.0  T
   6   -467.4676160 -0.183115E+01  0.851E-01    0.03       1.0  T
   7   -463.6583502  0.380927E+01  0.185E+00    0.01       1.0  T
   8   -463.9600611 -0.301711E+00  0.179E+00    0.02       1.0  T
   9   -465.5662393 -0.160618E+01  0.144E+00    0.03       1.0  T
  10   -466.9624431 -0.139620E+01  0.102E+00    0.00       1.0  T
  11   -467.0669845 -0.104541E+00  0.983E-01    0.01       1.0  T
  12   -466.6071438  0.459841E+00  0.113E+00    0.00       1.0  T
  13   -467.3945636 -0.787420E+00  0.870E-01    0.01       1.0  T
  14   -467.6926779 -0.298114E+00  0.725E-01    0.02       1.0  T
  15   -468.3667346 -0.674057E+00  0.215E-01    0.06       1.0  T
  16   -468.1587104  0.208024E+00  0.441E-01    0.06       1.0  T
  17   -468.2370095 -0.782992E-01  0.377E-01    0.05       1.0  T
  18   -468.1700578  0.669518E-01  0.438E-01    0.05       1.0  T
  19   -468.1979180 -0.278602E-01  0.412E-01    0.05       1.0  T
  20   -468.3339686 -0.136051E+00  0.263E-01    0.05       1.0  T
  21   -468.3855331 -0.515645E-01  0.171E-01    0.05       1.0  T
  22   -468.3932228 -0.768976E-02  0.153E-01    0.05       1.0  T
  23   -468.4221161 -0.288933E-01  0.514E-02    0.06       1.0  T
  24   -468.4225676 -0.451493E-03  0.503E-02    0.06       1.0  T
  25   -468.4184676  0.410003E-02  0.735E-02    0.06       1.0  T
  26   -468.4177768  0.690775E-03  0.767E-02    0.06       1.0  T
  27   -468.4210394 -0.326257E-02  0.592E-02    0.06       1.0  T
  28   -468.4240615 -0.302212E-02  0.372E-02    0.06       1.0  T
  29   -468.4250770 -0.101548E-02  0.254E-02    0.06       1.0  T
  30   -468.4251026 -0.255801E-04  0.250E-02    0.06       1.0  T
  31   -468.4252563 -0.153725E-03  0.225E-02    0.06       1.0  T
  32   -468.4256186 -0.362260E-03  0.155E-02    0.06       1.0  T
  33   -468.4257163 -0.977682E-04  0.129E-02    0.06       1.0  T
  34   -468.4258161 -0.997529E-04  0.981E-03    0.06       1.0  T
  35   -468.4258980 -0.819385E-04  0.592E-03    0.06       1.1  T
  36   -468.4259359 -0.378719E-04  0.266E-03    0.06       2.4  T
  37   -468.4259388 -0.290384E-05  0.216E-03    0.06       2.9  T
  38   -468.4259441 -0.526139E-05  0.918E-04    0.06       6.8  T
  39   -468.4259446 -0.575898E-06  0.644E-04    0.06       9.7  T
  40   -468.4259449 -0.255917E-06  0.476E-04    0.06      13.2  T
  41   -468.4259449 -0.420000E-07  0.443E-04    0.06      14.2  T
  42   -468.4259450 -0.443193E-07  0.405E-04    0.06      15.5  T
  43   -468.4259451 -0.996512E-07  0.297E-04    0.06      21.2  T
  44   -468.4259452 -0.882628E-07  0.138E-04    0.06      45.4  T
  45   -468.4259452 -0.193788E-07  0.658E-05    0.06      95.4  T
     SCC iter.                  ...        0 min, 11.612 sec
     gradient                   ...        0 min,  0.603 sec
 * total energy  :  -461.1867614 Eh     change       -0.2776082E-01 Eh
   gradient norm :     0.0731995 Eh/α   predicted    -0.3024408E-01 (   8.95%)
   displ. norm   :     0.8212382 α      lambda       -0.2652546E-01
   maximum displ.:     0.5062553 α      in ANC's #57, #18, #81, ...

........................................................................
.............................. CYCLE   11 ..............................
........................................................................
   1   -468.4651012 -0.468465E+03  0.331E-02    0.06       0.0  T
   2   -444.1399183  0.243252E+02  0.406E+00    0.19       1.0  T
   3   -461.7674014 -0.176275E+02  0.221E+00    0.02       1.0  T
   4   -464.6501012 -0.288270E+01  0.166E+00    0.00       1.0  T
   5   -465.9249254 -0.127482E+01  0.137E+00    0.02       1.0  T
   6   -468.2150090 -0.229008E+01  0.441E-01    0.08       1.0  T
   7   -464.1231156  0.409189E+01  0.175E+00    0.02       1.0  T
   8   -468.3614686 -0.423835E+01  0.286E-01    0.07       1.0  T
   9   -467.5149098  0.846559E+00  0.824E-01    0.01       1.0  T
  10   -467.9101070 -0.395197E+00  0.638E-01    0.04       1.0  T
  11   -467.5045847  0.405522E+00  0.831E-01    0.02       1.0  T
  12   -468.0932676 -0.588683E+00  0.523E-01    0.05       1.0  T
  13   -468.3303118 -0.237044E+00  0.308E-01    0.03       1.0  T
  14   -468.4453833 -0.115072E+00  0.124E-01    0.06       1.0  T
  15   -468.4360251  0.935822E-02  0.151E-01    0.06       1.0  T
  16   -468.4572970 -0.212719E-01  0.848E-02    0.06       1.0  T
  17   -468.4621825 -0.488551E-02  0.602E-02    0.06       1.0  T
  18   -468.4519319  0.102506E-01  0.105E-01    0.05       1.0  T
  19   -468.4508075  0.112440E-02  0.110E-01    0.05       1.0  T
  20   -468.4512656 -0.458126E-03  0.108E-01    0.05       1.0  T
  21   -468.4597278 -0.846213E-02  0.751E-02    0.05       1.0  T
  22   -468.4627273 -0.299953E-02  0.585E-02    0.05       1.0  T
  23   -468.4620739  0.653415E-03  0.626E-02    0.05       1.0  T
  24   -468.4609317  0.114218E-02  0.691E-02    0.05       1.0  T
  25   -468.4619203 -0.988600E-03  0.633E-02    0.05       1.0  T
  26   -468.4637051 -0.178484E-02  0.509E-02    0.05       1.0  T
  27   -468.4658661 -0.216093E-02  0.308E-02    0.05       1.0  T
  28   -468.4665633 -0.697243E-03  0.200E-02    0.05       1.0  T
  29   -468.4665263  0.370106E-04  0.202E-02    0.05       1.0  T
  30   -468.4665807 -0.543853E-04  0.189E-02    0.05       1.0  T
  31   -468.4666905 -0.109840E-03  0.162E-02    0.06       1.0  T
  32   -468.4667531 -0.626257E-04  0.143E-02    0.06       1.0  T
  33   -468.4668562 -0.103032E-03  0.112E-02    0.06       1.0  T
  34   -468.4669205 -0.643287E-04  0.844E-03    0.06       1.0  T
  35   -468.4669469 -0.264350E-04  0.702E-03    0.06       1.0  T
  36   -468.4669771 -0.301547E-04  0.506E-03    0.06       1.2  T
  37   -468.4669781 -0.994827E-06  0.496E-03    0.06       1.3  T
  38   -468.4669843 -0.623137E-05  0.443E-03    0.06       1.4  T
  39   -468.4669969 -0.126032E-04  0.310E-03    0.06       2.0  T
  40   -468.4670035 -0.658943E-05  0.206E-03    0.06       3.0  T
  41   -468.4670079 -0.435850E-05  0.891E-04    0.06       7.0  T
  42   -468.4670088 -0.929226E-06  0.263E-04    0.06      23.8  T
  43   -468.4670089 -0.816354E-07  0.839E-05    0.06      74.8  T
  44   -468.4670089 -0.621577E-08  0.471E-05    0.06     133.1  T
     SCC iter.                  ...        0 min, 11.325 sec
     gradient                   ...        0 min,  0.594 sec
 * total energy  :  -461.2086670 Eh     change       -0.2190557E-01 Eh
   gradient norm :     0.0481720 Eh/α   predicted    -0.2220754E-01 (   1.38%)
   displ. norm   :     0.8444245 α      lambda       -0.2106924E-01
   maximum displ.:     0.5346681 α      in ANC's #57, #18, #55, ...

........................................................................
.............................. CYCLE   12 ..............................
........................................................................
   1   -468.5105485 -0.468511E+03  0.386E-02    0.06       0.0  T
   2   -444.7059166  0.238046E+02  0.402E+00    0.15       1.0  T
   3   -451.2304388 -0.652452E+01  0.345E+00    0.04       1.0  T
   4   -466.2562027 -0.150258E+02  0.127E+00    0.04       1.0  T
   5   -466.3121863 -0.559836E-01  0.127E+00    0.00       1.0  T
   6   -468.1463208 -0.183413E+01  0.530E-01    0.06       1.0  T
   7   -462.1473289  0.599899E+01  0.213E+00    0.02       1.0  T
   8   -461.5392987  0.608030E+00  0.223E+00    0.01       1.0  T
   9   -462.4240728 -0.884774E+00  0.209E+00    0.00       1.0  T
  10   -462.0326157  0.391457E+00  0.214E+00    0.03       1.0  T
  11   -467.0044618 -0.497185E+01  0.104E+00    0.01       1.0  T
  12   -467.4921559 -0.487694E+00  0.847E-01    0.01       1.0  T
  13   -468.0826634 -0.590508E+00  0.542E-01    0.02       1.0  T
  14   -467.3703790  0.712284E+00  0.917E-01    0.03       1.0  T
  15   -468.2899725 -0.919593E+00  0.403E-01    0.03       1.0  T
  16   -468.4740912 -0.184119E+00  0.172E-01    0.05       1.0  T
  17   -468.3949318  0.791594E-01  0.298E-01    0.04       1.0  T
  18   -468.2830677  0.111864E+00  0.415E-01    0.03       1.0  T
  19   -468.2897292 -0.666145E-02  0.409E-01    0.04       1.0  T
  20   -468.2900136 -0.284380E-03  0.409E-01    0.04       1.0  T
  21   -468.4174750 -0.127461E+00  0.268E-01    0.04       1.0  T
  22   -468.4666635 -0.491885E-01  0.186E-01    0.04       1.0  T
  23   -468.5110306 -0.443672E-01  0.417E-02    0.05       1.0  T
  24   -468.5090408  0.198980E-02  0.565E-02    0.05       1.0  T
  25   -468.5101606 -0.111979E-02  0.489E-02    0.05       1.0  T
  26   -468.5099222  0.238415E-03  0.508E-02    0.05       1.0  T
  27   -468.5096579  0.264325E-03  0.529E-02    0.05       1.0  T
  28   -468.5093164  0.341485E-03  0.553E-02    0.05       1.0  T
  29   -468.5096454 -0.329045E-03  0.529E-02    0.05       1.0  T
  30   -468.5106051 -0.959701E-03  0.453E-02    0.06       1.0  T
  31   -468.5117119 -0.110674E-02  0.344E-02    0.06       1.0  T
  32   -468.5123513 -0.639475E-03  0.261E-02    0.06       1.0  T
  33   -468.5125679 -0.216534E-03  0.227E-02    0.06       1.0  T
  34   -468.5128436 -0.275695E-03  0.169E-02    0.06       1.0  T
  35   -468.5130749 -0.231348E-03  0.103E-02    0.06       1.0  T
  36   -468.5131534 -0.784683E-04  0.616E-03    0.06       1.0  T
  37   -468.5131791 -0.257579E-04  0.411E-03    0.06       1.5  T
  38   -468.5131774  0.178010E-05  0.418E-03    0.06       1.5  T
  39   -468.5131811 -0.371402E-05  0.382E-03    0.06       1.6  T
  40   -468.5131812 -0.160946E-06  0.377E-03    0.06       1.7  T
  41   -468.5131851 -0.384201E-05  0.334E-03    0.06       1.9  T
  42   -468.5131933 -0.821109E-05  0.217E-03    0.06       2.9  T
  43   -468.5131981 -0.484026E-05  0.936E-04    0.06       6.7  T
  44   -468.5131991 -0.964161E-06  0.345E-04    0.06      18.2  T
  45   -468.5131992 -0.145589E-06  0.892E-05    0.06      70.3  T
  46   -468.5131993 -0.102040E-07  0.129E-05    0.06     486.7  T
     SCC iter.                  ...        0 min, 11.747 sec
     gradient                   ...        0 min,  0.595 sec
 * total energy  :  -461.2260945 Eh     change       -0.1742753E-01 Eh
   gradient norm :     0.0401817 Eh/α   predicted    -0.1804637E-01 (   3.55%)
   displ. norm   :     0.9024750 α      lambda       -0.2080518E-01
   maximum displ.:     0.5345169 α      in ANC's #57, #18, #54, ...

........................................................................
.............................. CYCLE   13 ..............................
........................................................................
   1   -468.5494097 -0.468549E+03  0.674E-02    0.05       0.0  T
   2   -447.7481940  0.208012E+02  0.378E+00    0.06       1.0  T
   3   -443.0231478  0.472505E+01  0.415E+00    0.37       1.0  T
   4   -466.6994375 -0.236763E+02  0.115E+00    0.07       1.0  T
   5   -466.6995907 -0.153247E-03  0.117E+00    0.04       1.0  T
   6   -467.4002487 -0.700658E+00  0.914E-01    0.04       1.0  T
   7   -460.9164198  0.648383E+01  0.233E+00    0.02       1.0  T
   8   -460.1088145  0.807605E+00  0.244E+00    0.03       1.0  T
   9   -460.5870682 -0.478254E+00  0.238E+00    0.03       1.0  T
  10   -458.1024706  0.248460E+01  0.269E+00    0.03       1.0  T
  11   -463.9537402 -0.585127E+01  0.182E+00    0.00       1.0  T
  12   -465.6747735 -0.172103E+01  0.147E+00    0.01       1.0  T
  13   -467.1860772 -0.151130E+01  0.100E+00    0.03       1.0  T
  14   -467.3811227 -0.195045E+00  0.917E-01    0.01       1.0  T
  15   -468.0603813 -0.679259E+00  0.588E-01    0.02       1.0  T
  16   -466.5300562  0.153033E+01  0.123E+00    0.01       1.0  T
  17   -466.2199512  0.310105E+00  0.132E+00    0.01       1.0  T
  18   -466.1549404  0.650108E-01  0.134E+00    0.01       1.0  T
  19   -468.4046740 -0.224973E+01  0.341E-01    0.04       1.0  T
  20   -468.2526284  0.152046E+00  0.473E-01    0.03       1.0  T
  21   -468.4945733 -0.241945E+00  0.215E-01    0.05       1.0  T
  22   -468.5218414 -0.272680E-01  0.160E-01    0.05       1.0  T
  23   -468.5459462 -0.241048E-01  0.881E-02    0.05       1.0  T
  24   -468.5528028 -0.685666E-02  0.517E-02    0.06       1.0  T
  25   -468.5537263 -0.923468E-03  0.439E-02    0.06       1.0  T
  26   -468.5562411 -0.251479E-02  0.106E-02    0.06       1.0  T
  27   -468.5562954 -0.542564E-04  0.855E-03    0.06       1.0  T
  28   -468.5563576 -0.622118E-04  0.517E-03    0.06       1.2  T
  29   -468.5563330  0.245659E-04  0.679E-03    0.06       1.0  T
  30   -468.5563251  0.788189E-05  0.721E-03    0.06       1.0  T
  31   -468.5563290 -0.391080E-05  0.697E-03    0.06       1.0  T
  32   -468.5563125  0.165002E-04  0.786E-03    0.06       1.0  T
  33   -468.5562996  0.128798E-04  0.848E-03    0.06       1.0  T
  34   -468.5562972  0.246899E-05  0.860E-03    0.06       1.0  T
  35   -468.5563078 -0.105938E-04  0.809E-03    0.06       1.0  T
  36   -468.5563216 -0.138510E-04  0.737E-03    0.06       1.0  T
  37   -468.5563489 -0.273082E-04  0.567E-03    0.06       1.1  T
  38   -468.5563795 -0.306072E-04  0.270E-03    0.06       2.3  T
  39   -468.5563875 -0.800807E-05  0.750E-04    0.06       8.4  T
  40   -468.5563879 -0.339475E-06  0.589E-04    0.06      10.7  T
  41   -468.5563880 -0.149663E-06  0.493E-04    0.06      12.7  T
  42   -468.5563883 -0.246118E-06  0.248E-04    0.06      25.3  T
  43   -468.5563884 -0.735536E-07  0.815E-05    0.06      76.9  T
  44   -468.5563884 -0.582156E-08  0.478E-05    0.06     131.1  T
     SCC iter.                  ...        0 min, 11.232 sec
     gradient                   ...        0 min,  0.595 sec
 * total energy  :  -461.2395293 Eh     change       -0.1343479E-01 Eh
   gradient norm :     0.0545676 Eh/α   predicted    -0.1887509E-01 (  40.49%)
   displ. norm   :     0.7618613 α      lambda       -0.1651607E-01
   maximum displ.:     0.4995830 α      in ANC's #57, #18, #55, ...

........................................................................
.............................. CYCLE   14 ..............................
........................................................................
   1   -468.5862593 -0.468586E+03  0.722E-02    0.05       0.0  T
   2   -458.3917850  0.101945E+02  0.275E+00    0.01       1.0  T
   3   -463.6004077 -0.520862E+01  0.191E+00    0.00       1.0  T
   4   -467.8649337 -0.426453E+01  0.741E-01    0.05       1.0  T
   5   -465.2074371  0.265750E+01  0.157E+00    0.00       1.0  T
   6   -466.9235740 -0.171614E+01  0.109E+00    0.01       1.0  T
   7   -462.1000296  0.482354E+01  0.214E+00    0.03       1.0  T
   8   -466.3742891 -0.427426E+01  0.126E+00    0.00       1.0  T
   9   -449.4980197  0.168763E+02  0.357E+00    0.07       1.0  T
  10   -462.0454576 -0.125474E+02  0.214E+00    0.01       1.0  T
  11   -464.9939037 -0.294845E+01  0.161E+00    0.01       1.0  T
  12   -465.6663770 -0.672473E+00  0.147E+00    0.00       1.0  T
  13   -468.5379206 -0.287154E+01  0.200E-01    0.08       1.0  T
  14   -466.6084258  0.192949E+01  0.119E+00    0.01       1.0  T
  15   -467.7884593 -0.118003E+01  0.766E-01    0.02       1.0  T
  16   -468.1440266 -0.355567E+00  0.570E-01    0.06       1.0  T
  17   -467.4922321  0.651794E+00  0.887E-01    0.02       1.0  T
  18   -468.4042601 -0.912028E+00  0.373E-01    0.05       1.0  T
  19   -468.4554008 -0.511407E-01  0.319E-01    0.04       1.0  T
  20   -468.4752088 -0.198080E-01  0.296E-01    0.05       1.0  T
  21   -468.5147454 -0.395366E-01  0.246E-01    0.05       1.0  T
  22   -468.4967163  0.180292E-01  0.271E-01    0.05       1.0  T
  23   -468.5142260 -0.175097E-01  0.245E-01    0.05       1.0  T
  24   -468.5628928 -0.486668E-01  0.153E-01    0.05       1.0  T
  25   -468.5748100 -0.119172E-01  0.118E-01    0.05       1.0  T
  26   -468.5704920  0.431797E-02  0.130E-01    0.05       1.0  T
  27   -468.5652093  0.528272E-02  0.144E-01    0.05       1.0  T
  28   -468.5641131  0.109619E-02  0.147E-01    0.05       1.0  T
  29   -468.5707568 -0.664368E-02  0.131E-01    0.05       1.0  T
  30   -468.5746940 -0.393717E-02  0.120E-01    0.05       1.0  T
  31   -468.5749933 -0.299348E-03  0.119E-01    0.05       1.0  T
  32   -468.5747980  0.195285E-03  0.120E-01    0.05       1.0  T
  33   -468.5759258 -0.112774E-02  0.116E-01    0.05       1.0  T
  34   -468.5791454 -0.321960E-02  0.105E-01    0.06       1.0  T
  35   -468.5836915 -0.454615E-02  0.867E-02    0.06       1.0  T
  36   -468.5900688 -0.637727E-02  0.521E-02    0.06       1.0  T
  37   -468.5925198 -0.245101E-02  0.292E-02    0.06       1.0  T
  38   -468.5931228 -0.603015E-03  0.201E-02    0.06       1.0  T
  39   -468.5932142 -0.913900E-04  0.182E-02    0.06       1.0  T
  40   -468.5932887 -0.745097E-04  0.165E-02    0.06       1.0  T
  41   -468.5933934 -0.104718E-03  0.135E-02    0.06       1.0  T
  42   -468.5935583 -0.164894E-03  0.706E-03    0.06       1.0  T
  43   -468.5936027 -0.443634E-04  0.375E-03    0.06       1.7  T
  44   -468.5936186 -0.158789E-04  0.131E-03    0.06       4.8  T
  45   -468.5936204 -0.186776E-05  0.531E-04    0.06      11.8  T
  46   -468.5936207 -0.277311E-06  0.273E-04    0.06      23.0  T
  47   -468.5936208 -0.874278E-07  0.100E-04    0.06      62.5  T
  48   -468.5936208 -0.123028E-07  0.292E-05    0.06     214.6  T
     SCC iter.                  ...        0 min, 12.238 sec
     gradient                   ...        0 min,  0.595 sec
 * total energy  :  -461.2523088 Eh     change       -0.1277955E-01 Eh
   gradient norm :     0.0409093 Eh/α   predicted    -0.1305126E-01 (   2.13%)
   displ. norm   :     0.8238629 α      lambda       -0.1276618E-01
   maximum displ.:     0.5012903 α      in ANC's #57, #18, #55, ...

........................................................................
.............................. CYCLE   15 ..............................
........................................................................
   1   -468.6160929 -0.468616E+03  0.552E-02    0.06       0.0  T
   2   -456.8697200  0.117464E+02  0.291E+00    0.01       1.0  T
   3   -444.5416810  0.123280E+02  0.403E+00    0.21       1.0  T
   4   -468.2971318 -0.237555E+02  0.487E-01    0.06       1.0  T
   5   -454.3974631  0.138997E+02  0.312E+00    0.02       1.0  T
   6   -466.5106129 -0.121131E+02  0.133E+00    0.02       1.0  T
   7   -465.1763099  0.133430E+01  0.156E+00    0.01       1.0  T
   8   -467.3465238 -0.217021E+01  0.971E-01    0.04       1.0  T
   9   -466.7733066  0.573217E+00  0.114E+00    0.01       1.0  T
  10   -468.2579011 -0.148459E+01  0.525E-01    0.04       1.0  T
  11   -467.1838581  0.107404E+01  0.101E+00    0.01       1.0  T
  12   -467.3085672 -0.124709E+00  0.989E-01    0.00       1.0  T
  13   -468.1726125 -0.864045E+00  0.576E-01    0.05       1.0  T
  14   -468.3665422 -0.193930E+00  0.417E-01    0.03       1.0  T
  15   -468.3122088  0.543334E-01  0.464E-01    0.04       1.0  T
  16   -468.5372252 -0.225016E+00  0.242E-01    0.05       1.0  T
  17   -468.5783302 -0.411050E-01  0.168E-01    0.05       1.0  T
  18   -468.5845513 -0.622110E-02  0.158E-01    0.06       1.0  T
  19   -468.5897248 -0.517352E-02  0.146E-01    0.05       1.0  T
  20   -468.5862230  0.350180E-02  0.158E-01    0.06       1.0  T
  21   -468.5892828 -0.305982E-02  0.152E-01    0.06       1.0  T
  22   -468.5970068 -0.772398E-02  0.134E-01    0.06       1.0  T
  23   -468.5982990 -0.129221E-02  0.131E-01    0.06       1.0  T
  24   -468.6049292 -0.663013E-02  0.111E-01    0.06       1.0  T
  25   -468.6116188 -0.668965E-02  0.848E-02    0.06       1.0  T
  26   -468.6128569 -0.123806E-02  0.787E-02    0.06       1.0  T
  27   -468.6156454 -0.278851E-02  0.631E-02    0.06       1.0  T
  28   -468.6176594 -0.201399E-02  0.482E-02    0.06       1.0  T
  29   -468.6195173 -0.185793E-02  0.287E-02    0.06       1.0  T
  30   -468.6198614 -0.344074E-03  0.230E-02    0.06       1.0  T
  31   -468.6200409 -0.179466E-03  0.197E-02    0.06       1.0  T
  32   -468.6202169 -0.176043E-03  0.158E-02    0.06       1.0  T
  33   -468.6204565 -0.239652E-03  0.818E-03    0.06       1.0  T
  34   -468.6204899 -0.333843E-04  0.638E-03    0.06       1.0  T
  35   -468.6205141 -0.241278E-04  0.468E-03    0.06       1.3  T
  36   -468.6205315 -0.174602E-04  0.294E-03    0.06       2.1  T
  37   -468.6205371 -0.556179E-05  0.208E-03    0.06       3.0  T
  38   -468.6205391 -0.203893E-05  0.166E-03    0.06       3.8  T
  39   -468.6205402 -0.110223E-05  0.138E-03    0.06       4.6  T
  40   -468.6205413 -0.103110E-05  0.105E-03    0.06       6.0  T
  41   -468.6205418 -0.561741E-06  0.801E-04    0.06       7.8  T
  42   -468.6205421 -0.319360E-06  0.606E-04    0.06      10.3  T
  43   -468.6205426 -0.474773E-06  0.641E-05    0.06      97.9  T
  44   -468.6205426  0.137561E-07  0.114E-04    0.06      55.1  T
     SCC iter.                  ...        0 min, 11.191 sec
     gradient                   ...        0 min,  0.582 sec
 * total energy  :  -461.2613450 Eh     change       -0.9036177E-02 Eh
   gradient norm :     0.0398208 Eh/α   predicted    -0.1071562E-01 (  18.59%)
   displ. norm   :     0.8182469 α      lambda       -0.1236450E-01
   maximum displ.:     0.5079910 α      in ANC's #57, #18, #55, ...

........................................................................
.............................. CYCLE   16 ..............................
........................................................................
   1   -468.6450570 -0.468645E+03  0.450E-02    0.06       0.0  T
   2   -460.0569223  0.858813E+01  0.252E+00    0.00       1.0  T
   3   -466.6745901 -0.661767E+01  0.120E+00    0.01       1.0  T
   4   -468.5021003 -0.182751E+01  0.329E-01    0.06       1.0  T
   5   -465.5590976  0.294300E+01  0.150E+00    0.00       1.0  T
   6   -467.4936592 -0.193456E+01  0.936E-01    0.01       1.0  T
   7   -466.3285251  0.116513E+01  0.129E+00    0.01       1.0  T
   8   -468.4898918 -0.216137E+01  0.354E-01    0.11       1.0  T
   9   -468.2101509  0.279741E+00  0.554E-01    0.03       1.0  T
  10   -468.5138381 -0.303687E+00  0.307E-01    0.04       1.0  T
  11   -468.4495038  0.643343E-01  0.376E-01    0.04       1.0  T
  12   -468.6088184 -0.159315E+00  0.170E-01    0.07       1.0  T
  13   -468.6040372  0.478119E-02  0.177E-01    0.06       1.0  T
  14   -468.6275848 -0.235476E-01  0.120E-01    0.06       1.0  T
  15   -468.6422867 -0.147019E-01  0.628E-02    0.06       1.0  T
  16   -468.6446594 -0.237266E-02  0.477E-02    0.06       1.0  T
  17   -468.6449374 -0.278080E-03  0.457E-02    0.06       1.0  T
  18   -468.6419322  0.300524E-02  0.654E-02    0.06       1.0  T
  19   -468.6432689 -0.133669E-02  0.577E-02    0.06       1.0  T
  20   -468.6429408  0.328148E-03  0.598E-02    0.06       1.0  T
  21   -468.6432486 -0.307857E-03  0.580E-02    0.06       1.0  T
  22   -468.6454301 -0.218151E-02  0.422E-02    0.06       1.0  T
  23   -468.6469673 -0.153720E-02  0.253E-02    0.06       1.0  T
  24   -468.6475420 -0.574689E-03  0.144E-02    0.06       1.0  T
  25   -468.6477055 -0.163517E-03  0.897E-03    0.06       1.0  T
  26   -468.6477273 -0.217936E-04  0.765E-03    0.06       1.0  T
  27   -468.6477240  0.337181E-05  0.782E-03    0.06       1.0  T
  28   -468.6477682 -0.442121E-04  0.520E-03    0.06       1.2  T
  29   -468.6477988 -0.306477E-04  0.215E-03    0.06       2.9  T
  30   -468.6478031 -0.426098E-05  0.123E-03    0.06       5.1  T
  31   -468.6478046 -0.157234E-05  0.611E-04    0.06      10.3  T
  32   -468.6478050 -0.359425E-06  0.341E-04    0.06      18.4  T
  33   -468.6478051 -0.689198E-07  0.259E-04    0.06      24.3  T
  34   -468.6478051 -0.526001E-07  0.171E-04    0.06      36.7  T
  35   -468.6478052 -0.242588E-07  0.108E-04    0.06      58.0  T
     SCC iter.                  ...        0 min,  8.731 sec
     gradient                   ...        0 min,  0.596 sec
 * total energy  :  -461.2695641 Eh     change       -0.8219061E-02 Eh
   gradient norm :     0.0465169 Eh/α   predicted    -0.1032144E-01 (  25.58%)
   displ. norm   :     0.7417012 α      lambda       -0.9368763E-02
   maximum displ.:     0.4476208 α      in ANC's #57, #18, #29, ...

........................................................................
.............................. CYCLE   17 ..............................
........................................................................
   1   -468.6754344 -0.468675E+03  0.392E-02    0.05       0.0  T
   2   -455.9987697  0.126767E+02  0.299E+00    0.01       1.0  T
   3   -462.2634562 -0.626469E+01  0.214E+00    0.01       1.0  T
   4   -466.8291500 -0.456569E+01  0.116E+00    0.01       1.0  T
   5   -467.8244485 -0.995299E+00  0.806E-01    0.03       1.0  T
   6   -464.4639153  0.336053E+01  0.173E+00    0.01       1.0  T
   7   -463.9008541  0.563061E+00  0.185E+00    0.01       1.0  T
   8   -468.2204916 -0.431964E+01  0.588E-01    0.07       1.0  T
   9   -463.9301386  0.429035E+01  0.181E+00    0.01       1.0  T
  10   -466.5595625 -0.262942E+01  0.123E+00    0.01       1.0  T
  11   -459.9691308  0.659043E+01  0.245E+00    0.02       1.0  T
  12   -467.7730421 -0.780391E+01  0.807E-01    0.02       1.0  T
  13   -466.7298681  0.104317E+01  0.118E+00    0.01       1.0  T
  14   -468.2955677 -0.156570E+01  0.524E-01    0.04       1.0  T
  15   -468.4454069 -0.149839E+00  0.419E-01    0.03       1.0  T
  16   -468.6691285 -0.223722E+00  0.796E-02    0.06       1.0  T
  17   -468.6351867  0.339418E-01  0.178E-01    0.05       1.0  T
  18   -468.6305884  0.459830E-02  0.189E-01    0.04       1.0  T
  19   -468.6497338 -0.191454E-01  0.146E-01    0.05       1.0  T
  20   -468.6508001 -0.106637E-02  0.144E-01    0.05       1.0  T
  21   -468.6486883  0.211187E-02  0.149E-01    0.05       1.0  T
[...]
    12   6 C       13   8 O                                       1.3579279
    12   6 C       14   6 C                                       1.3937000
     9   6 C       15   6 C                                       1.3967992
    14   6 C       15   6 C                                       1.3835384
     8   6 C       16   6 C                                       1.3875149
    16   6 C       17   6 C                                       1.4327881
    17   6 C       18   6 C                                       1.3542839
    16   6 C       19   7 N                                       1.3749752
    18   6 C       20   6 C                                       1.4293330
    19   7 N       20   6 C                                       1.3637372
    20   6 C       21   6 C                                       1.3994723
    21   6 C       22   6 C                                       1.3993510
    22   6 C       23   6 C                                       1.4291745
    23   6 C       24   6 C                                       1.3544646
    24   6 C       25   6 C                                       1.4326869
    22   6 C       26   7 N                                       1.3638223
    25   6 C       26   7 N                                       1.3747081
    25   6 C       27   6 C                                       1.3879974
    28   6 C       29   6 C                                       1.3969556
    29   6 C       30   6 C                                       1.3835727
    30   6 C       31   6 C                                       1.3937744
    31   6 C       32   8 O                                       1.3578049
    31   6 C       33   6 C                                       1.3929951
    28   6 C       34   6 C                                       1.3953138
    33   6 C       34   6 C                                       1.3861489
    27   6 C       35   6 C                                       1.3906783
    35   6 C       36   6 C                                       1.4345864 (max)
    36   6 C       37   6 C                                       1.3536275
     2   6 C       38   6 C                                       1.3792740
    37   6 C       38   6 C                                       1.4314255
    35   6 C       39   7 N                                       1.3691938
    38   6 C       39   7 N                                       1.3703707
     2   6 C       40   1 H                                       1.0843003
     4   6 C       41   1 H                                       1.0784969
     5   6 C       42   1 H                                       1.0778753
    10   6 C       43   1 H                                       1.0843054
    11   6 C       44   1 H                                       1.0847375
    13   8 O       45   1 H                                       0.9665838 (min)
    14   6 C       46   1 H                                       1.0829759
    15   6 C       47   1 H                                       1.0842145
    17   6 C       48   1 H                                       1.0777515
    18   6 C       49   1 H                                       1.0780842
    23   6 C       50   1 H                                       1.0781065
    24   6 C       51   1 H                                       1.0777515
    29   6 C       52   1 H                                       1.0842407
    30   6 C       53   1 H                                       1.0829864
    32   8 O       54   1 H                                       0.9666586
    33   6 C       55   1 H                                       1.0847645
    34   6 C       56   1 H                                       1.0843351
    36   6 C       57   1 H                                       1.0778762
    37   6 C       58   1 H                                       1.0784990
    60   6 C       61   6 C                                       1.3794885
    61   6 C       62   6 C                                       1.4316063
    62   6 C       63   6 C                                       1.3537830
    63   6 C       64   6 C                                       1.4344527
    61   6 C       65   7 N                                       1.3704813
    64   6 C       65   7 N                                       1.3685799
    64   6 C       66   6 C                                       1.3913307
    67   6 C       68   6 C                                       1.3947699
    68   6 C       69   6 C                                       1.3864046
    69   6 C       70   6 C                                       1.3929268
    70   6 C       71   8 O                                       1.3578401
    70   6 C       72   6 C                                       1.3937251
    67   6 C       73   6 C                                       1.3966110
    72   6 C       73   6 C                                       1.3836452
    66   6 C       74   6 C                                       1.3873300
    74   6 C       75   6 C                                       1.4329624
    75   6 C       76   6 C                                       1.3544959
    74   6 C       77   7 N                                       1.3754311
    76   6 C       78   6 C                                       1.4293349
    77   7 N       78   6 C                                       1.3627485
    78   6 C       79   6 C                                       1.4006926
    79   6 C       80   6 C                                       1.4004024
    80   6 C       81   6 C                                       1.4291618
    81   6 C       82   6 C                                       1.3548401
    82   6 C       83   6 C                                       1.4327025
    80   6 C       84   7 N                                       1.3631639
    83   6 C       84   7 N                                       1.3746844
    83   6 C       85   6 C                                       1.3881627
    86   6 C       87   6 C                                       1.3972103
    87   6 C       88   6 C                                       1.3834232
    88   6 C       89   6 C                                       1.3938284
    89   6 C       90   8 O                                       1.3575568
    89   6 C       91   6 C                                       1.3930644
    86   6 C       92   6 C                                       1.3954543
    91   6 C       92   6 C                                       1.3860479
    85   6 C       93   6 C                                       1.3914765
    93   6 C       94   6 C                                       1.4344731
    94   6 C       95   6 C                                       1.3540206
    60   6 C       96   6 C                                       1.3796483
    95   6 C       96   6 C                                       1.4313834
    93   6 C       97   7 N                                       1.3688215
    96   6 C       97   7 N                                       1.3702622
    60   6 C       98   1 H                                       1.0842832
    62   6 C       99   1 H                                       1.0784848
    63   6 C      100   1 H                                       1.0778897
    68   6 C      101   1 H                                       1.0842968
    69   6 C      102   1 H                                       1.0847372
    71   8 O      103   1 H                                       0.9666260
    72   6 C      104   1 H                                       1.0829702
    73   6 C      105   1 H                                       1.0842121
    75   6 C      106   1 H                                       1.0777501
    76   6 C      107   1 H                                       1.0780976
    81   6 C      108   1 H                                       1.0781123
    82   6 C      109   1 H                                       1.0777778
    87   6 C      110   1 H                                       1.0842317
    88   6 C      111   1 H                                       1.0829717
    90   8 O      112   1 H                                       0.9666434
    91   6 C      113   1 H                                       1.0847302
    92   6 C      114   1 H                                       1.0843139
    94   6 C      115   1 H                                       1.0779132
    95   6 C      116   1 H                                       1.0784903
   117   6 C      118   6 C                                       1.2258643
   119   6 C      120   6 C                                       1.2321895
   121   6 C      122   6 C                                       1.2322560
   123   6 C      124   6 C                                       1.2261730
   125   6 C      126   6 C                                       1.2270072
   127   6 C      128   6 C                                       1.2333172
   129   6 C      130   6 C                                       1.2333817
   131   6 C      132   6 C                                       1.2270623
   133   6 C      134   6 C                                       1.2269077
   135   6 C      136   6 C                                       1.2331395
   137   6 C      138   6 C                                       1.2330366
   139   6 C      140   6 C                                       1.2266324
   142   6 C      143   6 C                                       1.4005573
   143   6 C      144   6 C                                       1.4284913
   144   6 C      145   6 C                                       1.3557348
   145   6 C      146   6 C                                       1.4319920
   143   6 C      147   7 N                                       1.3636287
   146   6 C      147   7 N                                       1.3729188
   146   6 C      148   6 C                                       1.3907959
   149   6 C      150   6 C                                       1.3973753
   150   6 C      151   6 C                                       1.3832562
   151   6 C      152   6 C                                       1.3939632
   152   6 C      153   8 O                                       1.3569896
   152   6 C      154   6 C                                       1.3932097
   149   6 C      155   6 C                                       1.3956539
   154   6 C      155   6 C                                       1.3858425
   148   6 C      156   6 C                                       1.3894774
   156   6 C      157   6 C                                       1.4322184
   157   6 C      158   6 C                                       1.3556046
   156   6 C      159   7 N                                       1.3740712
   158   6 C      160   6 C                                       1.4287133
   159   7 N      160   6 C                                       1.3625271
   160   6 C      161   6 C                                       1.4015687
   161   6 C      162   6 C                                       1.4014273
   162   6 C      163   6 C                                       1.4287067
   163   6 C      164   6 C                                       1.3555983
   164   6 C      165   6 C                                       1.4322181
   162   6 C      166   7 N                                       1.3627302
   165   6 C      166   7 N                                       1.3739407
   165   6 C      167   6 C                                       1.3896757
   168   6 C      169   6 C                                       1.3956549
   169   6 C      170   6 C                                       1.3858373
   170   6 C      171   6 C                                       1.3931543
   171   6 C      172   8 O                                       1.3570077
   171   6 C      173   6 C                                       1.3938990
   168   6 C      174   6 C                                       1.3973883
   173   6 C      174   6 C                                       1.3832428
   167   6 C      175   6 C                                       1.3907878
   175   6 C      176   6 C                                       1.4320532
   176   6 C      177   6 C                                       1.3557630
   142   6 C      178   6 C                                       1.4005924
   177   6 C      178   6 C                                       1.4283923
   175   6 C      179   7 N                                       1.3730632
   178   6 C      179   7 N                                       1.3634810
   144   6 C      180   1 H                                       1.0780832
   145   6 C      181   1 H                                       1.0777667
   150   6 C      182   1 H                                       1.0842097
   151   6 C      183   1 H                                       1.0829577
   153   8 O      184   1 H                                       0.9666713
   154   6 C      185   1 H                                       1.0846713
   155   6 C      186   1 H                                       1.0842906
   157   6 C      187   1 H                                       1.0777666
   158   6 C      188   1 H                                       1.0781062
   163   6 C      189   1 H                                       1.0781094
   164   6 C      190   1 H                                       1.0777602
   169   6 C      191   1 H                                       1.0842584
   170   6 C      192   1 H                                       1.0846210
   172   8 O      193   1 H                                       0.9666199
   173   6 C      194   1 H                                       1.0829165
   174   6 C      195   1 H                                       1.0841647
   176   6 C      196   1 H                                       1.0777567
   177   6 C      197   1 H                                       1.0781044
   199   6 C      200   6 C                                       1.4018907
   200   6 C      201   6 C                                       1.4285231
   201   6 C      202   6 C                                       1.3561580
   202   6 C      203   6 C                                       1.4320062
   200   6 C      204   7 N                                       1.3628562
   203   6 C      204   7 N                                       1.3733061
   203   6 C      205   6 C                                       1.3907616
   206   6 C      207   6 C                                       1.3977373
   207   6 C      208   6 C                                       1.3829791
   208   6 C      209   6 C                                       1.3940922
   209   6 C      210   8 O                                       1.3566620
   209   6 C      211   6 C                                       1.3932049
   206   6 C      212   6 C                                       1.3957623
   211   6 C      212   6 C                                       1.3858561
   205   6 C      213   6 C                                       1.3908467
   213   6 C      214   6 C                                       1.4320774
   214   6 C      215   6 C                                       1.3561572
   213   6 C      216   7 N                                       1.3733735
   215   6 C      217   6 C                                       1.4283293
   216   7 N      217   6 C                                       1.3626589
   217   6 C      218   6 C                                       1.4019831
   218   6 C      219   6 C                                       1.4016922
   219   6 C      220   6 C                                       1.4284218
   220   6 C      221   6 C                                       1.3561784
   221   6 C      222   6 C                                       1.4319549
   219   6 C      223   7 N                                       1.3631583
   222   6 C      223   7 N                                       1.3727998
   222   6 C      224   6 C                                       1.3912466
   225   6 C      226   6 C                                       1.3957331
   226   6 C      227   6 C                                       1.3858606
   227   6 C      228   6 C                                       1.3931374
   228   6 C      229   8 O                                       1.3567052
   228   6 C      230   6 C                                       1.3940649
   225   6 C      231   6 C                                       1.3977480
   230   6 C      231   6 C                                       1.3829706
   224   6 C      232   6 C                                       1.3904138
   232   6 C      233   6 C                                       1.4321180
   233   6 C      234   6 C                                       1.3561390
   199   6 C      235   6 C                                       1.4021608
   234   6 C      235   6 C                                       1.4284395
   232   6 C      236   7 N                                       1.3739176
   235   6 C      236   7 N                                       1.3623624
   201   6 C      237   1 H                                       1.0781201
   202   6 C      238   1 H                                       1.0778201
   207   6 C      239   1 H                                       1.0842071
   208   6 C      240   1 H                                       1.0828986
   210   8 O      241   1 H                                       0.9666855
   211   6 C      242   1 H                                       1.0846727
   212   6 C      243   1 H                                       1.0842560
   214   6 C      244   1 H                                       1.0777623
   215   6 C      245   1 H                                       1.0781103
   220   6 C      246   1 H                                       1.0780976
   221   6 C      247   1 H                                       1.0777960
   226   6 C      248   1 H                                       1.0842050
   227   6 C      249   1 H                                       1.0846439
   229   8 O      250   1 H                                       0.9666706
   230   6 C      251   1 H                                       1.0828641
   231   6 C      252   1 H                                       1.0842025
   233   6 C      253   1 H                                       1.0777857
   234   6 C      254   1 H                                       1.0781389

 * 5 distinct bonds (by element types)

   Z      Z             #   av. dist./Å        max./Å        min./Å
   1 H    6 C          66     1.0811165     1.0847645     1.0777501
   6 C    6 C         140     1.3828161     1.4345864     1.2258643
   6 C    7 N          32     1.3687876     1.3754311     1.3623624
   1 H    8 O           8     0.9666449     0.9666855     0.9665838
   6 C    8 O           8     1.3573118     1.3579279     1.3566620


optimized geometry written to: xtbopt.xyz


           -------------------------------------------------
          | TOTAL ENERGY             -461.305742500690 Eh   |
          | GRADIENT NORM               0.000940015395 Eh/α |
          | HOMO-LUMO GAP               0.045208284724 eV   |
           -------------------------------------------------

------------------------------------------------------------------------
 * finished run on 2022/07/29 at 21:12:19.508     
------------------------------------------------------------------------
 total:
 * wall-time:     0 d,  0 h, 13 min, 19.304 sec
 *  cpu-time:     0 d,  0 h, 12 min, 56.090 sec
 * ratio c/w:     0.971 speedup
 SCF:
 * wall-time:     0 d,  0 h,  0 min, 35.287 sec
 *  cpu-time:     0 d,  0 h,  0 min, 35.115 sec
 * ratio c/w:     0.995 speedup
 ANC optimizer:
 * wall-time:     0 d,  0 h, 12 min, 43.700 sec
 *  cpu-time:     0 d,  0 h, 12 min, 20.684 sec
 * ratio c/w:     0.970 speedup

