150
 energy: -265.090197768890 gnorm: 2.843294522694 xtb: 6.5.1 (b24c23e)
Cu          13.43189900000000       -0.02019600000000       -0.02231700000000
C           10.08784800000000        0.10942000000000        0.07005500000000
C           10.75572200000000        0.89391000000000        0.92053800000000
C           10.11083200000000        1.77323400000000        1.88880200000000
C           11.05672600000000        2.42368300000000        2.54028000000000
C           12.35865300000000        1.99250200000000        2.01466400000000
N           12.17539500000000        1.01708600000000        0.98866200000000
C           13.55224600000000        2.47081000000000        2.41734300000000
C           14.84577500000000        2.01800500000000        1.84530000000000
C           16.13733900000000        2.63530500000000        2.16766900000000
C           17.07171100000000        1.97990700000000        1.50994500000000
N           14.98345300000000        1.02125300000000        1.02532900000000
C           16.38421400000000        0.93276800000000        0.76353100000000
C           16.97734800000000       -0.00016500000000        0.00004500000000
C           16.21694500000000       -1.04803600000000       -0.72026100000000
C           16.76358100000000       -2.14203400000000       -1.23620700000000
C           15.71507700000000       -2.86415900000000       -1.92852100000000
C           14.59557700000000       -2.16328100000000       -1.79230600000000
C           13.30087800000000       -2.52922500000000       -2.42235900000000
C           13.30474200000000       -3.53840900000000       -3.51164200000000
C           13.83238700000000       -3.19970300000000       -4.77378800000000
O           14.33041500000000       -1.90096100000000       -4.97320200000000
C           14.89361500000000       -1.42966800000000       -6.19251700000000
C           13.84363300000000       -4.16466900000000       -5.79762400000000
C           13.33903800000000       -5.44409000000000       -5.56584500000000
C           12.82202500000000       -5.78130700000000       -4.31506500000000
C           12.80400300000000       -4.83485300000000       -3.27408000000000
O           12.30462400000000       -5.14550400000000       -1.99775300000000
C           11.75719600000000       -6.40700100000000       -1.62953500000000
C           12.13786300000000       -1.96906200000000       -2.04117400000000
C           10.82120500000000       -2.25091500000000       -2.60957600000000
C            9.96065600000000       -1.53208800000000       -1.91529400000000
C           10.71926300000000       -0.78525200000000       -0.91299900000000
N           11.98980600000000       -1.03263300000000       -0.97655200000000
N           14.82202200000000       -0.98127000000000       -1.02111900000000
C           13.59631800000000        3.51012800000000        3.47193300000000
C           13.72673700000000        3.13034100000000        4.82195000000000
O           13.81197100000000        1.76337500000000        5.13526700000000
C           13.93357700000000        1.24338200000000        6.45538400000000
C           13.76645600000000        4.12561400000000        5.81580200000000
C           13.67975500000000        5.47373400000000        5.46654000000000
C           13.55479900000000        5.84877700000000        4.12829900000000
C           13.51352300000000        4.87096100000000        3.11729700000000
O           13.39299800000000        5.21050000000000        1.75915500000000
C           13.31409000000000        6.54327800000000        1.26391900000000
H            9.00445500000000        0.13222100000000        0.09251300000000
H            9.04702900000000        1.88781400000000        2.05384900000000
H           10.87638900000000        3.15289200000000        3.31965400000000
H           16.31392600000000        3.47673500000000        2.82485900000000
H           18.13098300000000        2.19584200000000        1.54609000000000
H           17.80195000000000       -2.43894800000000       -1.17525800000000
H           15.83402900000000       -3.79053000000000       -2.47536900000000
H           14.13844000000000       -1.47746000000000       -7.00527400000000
H           15.20838200000000       -0.37395300000000       -6.06161100000000
H           15.78522000000000       -2.03496800000000       -6.46025300000000
H           14.23951900000000       -3.93563500000000       -6.77754600000000
H           13.35155100000000       -6.17994500000000       -6.35966000000000
H           12.44279700000000       -6.78294300000000       -4.16673200000000
H           11.43872300000000       -6.36745100000000       -0.56795500000000
H           10.87047500000000       -6.63586500000000       -2.25767400000000
H           12.52281800000000       -7.20381500000000       -1.74191100000000
H           10.57439800000000       -2.91425600000000       -3.42841000000000
H            8.89004700000000       -1.50854100000000       -2.07085000000000
H           13.98106300000000        0.13656000000000        6.40527700000000
H           13.05021500000000        1.53428800000000        7.06236900000000
H           14.86584700000000        1.61874100000000        6.92881200000000
H           13.86267800000000        3.86831100000000        6.86187500000000
H           13.71053500000000        6.23283500000000        6.23773000000000
H           13.49178100000000        6.90195800000000        3.89091000000000
H           14.23208100000000        7.10687000000000        1.53602600000000
H           13.23040500000000        6.51398800000000        0.15843900000000
H           12.41563200000000        7.04991300000000        1.67539700000000
Cu          28.92436500000000        0.01912600000000        0.02305100000000
C           32.26841600000000       -0.05389800000000       -0.11837300000000
C           31.60054200000000       -0.78431900000000       -1.01571900000000
C           32.24543100000000       -1.61785500000000       -2.02366800000000
C           31.29953700000000       -2.17033100000000       -2.76006500000000
C           29.99761100000000       -1.71129500000000       -2.25859200000000
N           30.18086900000000       -0.83425500000000       -1.14732300000000
C           28.80401800000000       -2.04194600000000       -2.78925100000000
C           27.51048900000000       -1.54002500000000       -2.25977800000000
C           26.21892400000000       -1.77143700000000       -2.91661100000000
C           25.28455200000000       -1.21348200000000       -2.17442900000000
N           27.37281000000000       -0.86995800000000       -1.15665700000000
C           25.97205000000000       -0.62338400000000       -1.03188000000000
C           25.37891500000000       -0.00016500000000        0.00004500000000
C           26.13931800000000        0.56398600000000        1.13961100000000
C           25.59268300000000        0.91929800000000        2.29580500000000
C           26.64118700000000        1.50201300000000        3.10895100000000
C           27.76068600000000        1.46674000000000        2.39583100000000
C           29.05538500000000        2.03842100000000        2.84756300000000
C           29.05152100000000        2.97330200000000        4.00124700000000
C           28.52387700000000        4.27076300000000        3.84526500000000
O           28.02584800000000        4.65264200000000        2.58802000000000
C           27.46264900000000        5.92653900000000        2.29471000000000
C           28.51263000000000        5.14714300000000        4.94588100000000
C           29.01722600000000        4.73597200000000        6.17940400000000
C           29.53423800000000        3.44997300000000        6.33552700000000
C           29.55226100000000        2.55398900000000        5.25079900000000
O           30.05164000000000        1.24647600000000        5.37699600000000
C           30.59906700000000        0.70279600000000        6.57339500000000
C           30.21840000000000        1.74067200000000        2.23893300000000
C           31.53505800000000        2.26327400000000        2.59867000000000
C           32.39560800000000        1.67814200000000        1.78850900000000
C           31.63700100000000        0.79209900000000        0.90687000000000
N           30.36645800000000        0.81986700000000        1.16077000000000
N           27.53424200000000        0.87127800000000        1.11625900000000
C           28.75994600000000       -2.93820600000000       -3.96783500000000
C           28.62952600000000       -4.32848200000000       -3.78366900000000
O           28.54429300000000       -4.83280000000000       -2.47507300000000
C           28.42268700000000       -6.21339600000000       -2.14787600000000
C           28.58980800000000       -5.17087600000000       -4.91002700000000
C           28.67650799999999       -4.63365500000000       -6.19486300000000
C           28.80146500000000       -3.25571000000000       -6.37600500000000
C           28.84274000000000       -2.39385900000000       -5.26449100000000
O           28.96326600000000       -1.00125800000000       -5.40766200000000
C           29.04217400000000       -0.32172200000000       -6.65657700000000
H           33.35180900000000       -0.07288900000000       -0.14413300000000
H           33.30923500000000       -1.76495300000000       -2.16053200000000
H           31.47987400000000       -2.83821700000000       -3.59258900000000
H           26.04233800000000       -2.30243700000000       -3.84286300000000
H           24.22528000000000       -1.21858700000000       -2.39330900000000
H           24.55431300000000        0.81679000000000        2.58105100000000
H           26.52223500000000        1.91172400000000        4.10360800000000
H           28.21782300000000        6.72426600000000        2.45747000000000
H           27.14788200000000        5.94692600000000        1.23110600000000
H           26.57104400000000        6.10557700000000        2.93190400000000
H           28.11674500000000        6.14966200000000        4.85836900000000
H           29.00471200000000        5.41720800000000        7.02055900000000
H           29.91346700000000        3.16086200000000        7.30593600000000
H           30.91754100000000       -0.34240100000000        6.38344800000000
H           31.48578800000000        1.29205500000000        6.88916600000000
H           29.83344600000000        0.70084500000000        7.37809200000000
H           31.78186500000000        2.97957600000000        3.37160100000000
H           33.46621700000000        1.83546500000000        1.78729800000000
H           28.37520000000000       -6.32102100000000       -1.04515900000000
H           29.30604900000000       -6.77290200000000       -2.52205400000000
H           27.49041600000000       -6.62870300000000       -2.58667900000000
H           28.49358600000000       -6.24289200000000       -4.80392900000000
H           28.64572900000000       -5.28919400000000       -7.05581400000000
H           28.86448200000000       -2.87112300000000       -7.38478500000000
H           28.12418300000000       -0.51101000000000       -7.25310700000000
H           29.12585800000000        0.76838700000000       -6.47055000000000
H           29.94063200000000       -0.65705900000000       -7.21652500000000
C           21.78205200000000        0.00114700000000        0.00847800000000
C           20.57311300000000       -0.01230800000000        0.00003000000000
C           19.15158400000000       -0.00348900000000       -0.01195300000000
C           17.93991400000000        0.00395000000000       -0.00109000000000
C           23.19865600000000       -0.00552800000000        0.00901100000000
C           24.41935200000000        0.00395000000000       -0.00109000000000
150
 energy: -265.825904786191 gnorm: 0.491311687267 xtb: 6.5.1 (b24c23e)
Cu          13.43521166566211       -0.01925117806764       -0.02117228720275
C           10.08838349423622        0.10264798891978        0.06257088695368
C           10.76086827327913        0.89546173673007        0.92233581367461
C           10.10958367487282        1.77072843721500        1.88610161327435
C           11.06177253858213        2.42487830443367        2.54145558747178
C           12.35637755100603        1.98922630765792        2.01175134087965
N           12.16509434005098        1.02382456538133        0.99515138238688
C           13.56073637451981        2.46936544482318        2.41494478551899
C           14.84012491663608        2.02746002049578        1.85444439585284
C           16.12908617224750        2.63931061637336        2.17257523707306
C           17.07088887996362        1.97439146856254        1.50551312719664
N           14.98397913907111        1.02278821301100        1.02499052922408
C           16.35136261180828        0.94657185306402        0.77481882200484
C           16.83769584411701       -0.00632460035569       -0.00314772828182
C           16.18842271659088       -1.04767777807596       -0.72283676929576
C           16.76306866157174       -2.15186482874083       -1.24277968281899
C           15.72698021713260       -2.86673966341057       -1.92823738423228
C           14.58618645498827       -2.15659225861884       -1.79230086875909
C           13.30786987750195       -2.52647853791839       -2.41898265490016
C           13.30654170123447       -3.53831269570647       -3.51044395177953
C           13.83415193534889       -3.19864893914865       -4.77646403133432
O           14.32819726316081       -1.90442440560287       -4.97038138680508
C           14.89246810652386       -1.43270630778306       -6.19199299142739
C           13.84332219861236       -4.16414217569712       -5.79669356282256
C           13.33902947287816       -5.44177061994980       -5.56334784999389
C           12.82216059990784       -5.78033932344526       -4.31449211673190
C           12.80264259216582       -4.83756053318475       -3.27337055888935
O           12.30649714418072       -5.14234363678323       -2.00087048645232
C           11.75840067934100       -6.40627051544265       -1.63256501868042
C           12.13639926906839       -1.96826524927474       -2.04072642507569
C           10.82598287897236       -2.25207268607170       -2.60997531538220
C            9.95624718370349       -1.52775407736775       -1.91085372418421
C           10.70858340798869       -0.78099990037693       -0.90885633144037
N           11.99121879624797       -1.03688121092240       -0.98127462967906
N           14.82131816053229       -0.98805787109364       -1.02428636310976
C           13.59738607478803        3.51058994183918        3.47206367878652
C           13.72710422005571        3.12941135392158        4.82510716988727
O           13.81150709786352        1.76689997621887        5.13205607404733
C           13.93341475452688        1.24667776557447        6.45455805445190
C           13.76631492849365        4.12525842385312        5.81490183700078
C           13.67966277886337        5.47131888583287        5.46408065817157
C           13.55479169624114        5.84788818277456        4.12793120314594
C           13.51341294734994        4.87421716427974        3.11649976381012
O           13.39338076494530        5.20722794533762        1.76258782309181
C           13.31440445341069        6.54239125127788        1.26717190526121
H            9.00465988270638        0.13147146080808        0.09138200584642
H            9.04700820562444        1.88620660582875        2.05221990206681
H           10.87904714825505        3.15303273123864        3.31973501743627
H           16.31183252472652        3.47741295358442        2.82567401177916
H           18.13046055937888        2.19311974374939        1.54380991318584
H           17.80183287829903       -2.43926285797413       -1.17528186410926
H           15.83531307671348       -3.79079587000790       -2.47496372832827
H           14.14043799374473       -1.47746456772877       -7.00438564805387
H           15.20661094942774       -0.37772500935988       -6.06015262594315
H           15.78346902563254       -2.03372817762199       -6.46058325441267
H           14.23963039529886       -3.93508212468338       -6.77736889474833
H           13.35153881864323       -6.17948439492343       -6.35915677458746
H           12.44266380301984       -6.78283610990093       -4.16615193664907
H           11.44047176778486       -6.36568124926505       -0.57154432285366
H           10.87221875928125       -6.63628750746216       -2.25645983236823
H           12.52081622776290       -7.20289315166520       -1.74183947108412
H           10.57694767809120       -2.91431749833911       -3.42811334689529
H            8.88932179977111       -1.50719284343664       -2.06943363495579
H           13.98075794543613        0.14051696876418        6.40345563603895
H           13.05230959810280        1.53373545385380        7.06197982537344
H           14.86374917812479        1.61795974720238        6.92869990072185
H           13.86270502310719        3.86777532163187        6.86173942914364
H           13.71051900855367        6.23234489018249        6.23723177785138
H           13.49174396235332        6.90185940190049        3.89037154585618
H           14.22991059399103        7.10652673387504        1.53553160249080
H           13.23076075636066        6.51209178281563        0.16235352671096
H           12.41766320944247        7.04977262379217        1.67457414068989
Cu          28.92105682177584        0.01812195710930        0.02195141847101
C           32.26788248965182       -0.04744868488465       -0.11060186364555
C           31.59539314344819       -0.78588179167690       -1.01751216460291
C           32.24667965900964       -1.61553527704189       -2.02080237445909
C           31.29448576186080       -2.17132682715393       -2.76141346977739
C           29.99988810088293       -1.70888410607223       -2.25494145770030
N           30.19117274809070       -0.83970924496664       -1.15491603179023
C           28.79552947594734       -2.03977752509784       -2.78748192296525
C           27.51612567332635       -1.54775920084544       -2.27047269037191
C           26.22721307062562       -1.77574359052137       -2.92128177225502
C           25.28535944081997       -1.20987352756947       -2.16832428046108
N           27.37224421425319       -0.86939149390578       -1.15813218969946
C           26.00493955778018       -0.63272518219745       -1.04745820943602
C           25.51944102366704        0.00209700205230        0.00591211752303
C           26.16812265030921        0.56661479858838        1.13963259176246
C           25.59322383724306        0.92437447732873        2.30641968825844
C           26.62930269418106        1.50136863364861        3.11146431668618
C           27.77007150127065        1.46769080435055        2.38922748719346
C           29.04840323609227        2.03547022553301        2.84436754711043
C           29.04972156175770        2.97213012479382        4.00098128564411
C           28.52211216017519        4.27356148925599        3.84460218630051
O           28.02806534107671        4.64935807355250        2.59104701199482
C           27.46379605010095        5.92558871637998        2.29764321435124
C           28.51294083800002        5.14629677311687        4.94522746375660
C           29.01723449440608        4.73382954674633        6.17675346492688
C           29.53410249654621        3.44954347131283        6.33448790294439
C           29.55362135216224        2.55290194429939        5.25337813295719
O           30.04976674445501        1.25001101914216        5.37431069111214
C           30.59786246525654        0.70589902119382        6.57310225825780
C           30.21986046803521        1.74034455779578        2.23808373412904
C           31.53028158915328        2.26350564633435        2.59987161519868
C           32.40001605407088        1.67436344575641        1.78358943401256
C           31.64768125574080        0.78860072384493        0.90206929441810
N           30.36504328420739        0.82393025745033        1.16564635651963
N           27.53499654139941        0.87347955894217        1.12342886363048
C           28.75887858493006       -2.93826902560316       -3.96831009501537
C           28.62915845495289       -4.33173872020242       -3.78319700874266
O           28.54475735583737       -4.82912134779707       -2.47810585735151
C           28.42284904520422       -6.21210986717711       -2.15102103865048
C           28.58994909914248       -5.17003541002177       -4.90954697519269
C           28.67660029812271       -4.63156367097557       -6.19212310202286
C           28.80147227791829       -3.25547204654192       -6.37507279586602
C           28.84284989141898       -2.39260727370857       -5.26760061134199
O           28.96288367727947       -1.00512042416190       -5.40491116726411
C           29.04185940083831       -0.32506811387905       -6.65616096270745
H           33.35160439277153       -0.07187529162046       -0.14323033631746
H           33.30925559305388       -1.76356863604745       -2.15870886399383
H           31.47721556877437       -2.83827709940690       -3.59273986012737
H           26.04443334058646       -2.30314773241854       -3.84365127617895
H           24.22579732843383       -1.21671001460395       -2.39028004934963
H           24.55443462940466        0.81676511797720        2.58135161555497
H           26.52094992682184        1.91128412723397        4.10381251971137
H           28.21582506811482        6.72338604090376        2.45734834623797
H           27.14965301820747        5.94494667078478        1.23463248561541
H           26.57279490014207        6.10608010694400        2.93072368874902
H           28.11663356227340        6.14956539422671        4.85779655337549
H           29.00472419816570        5.41677534776183        7.02003161574837
H           29.91360014916624        3.16030304016096        7.30574769316753
H           30.91579219619723       -0.33859664123106        6.38220607012009
H           31.48404426921531        1.29079313134696        6.88941175184483
H           29.83544770027895        0.70090511418568        7.37716939006518
H           31.77931551181317        2.97927371463765        3.37161968224241
H           33.46694202497140        1.83425470874488        1.78576230036706
H           28.37550507254817       -6.31865602838955       -1.04881726179752
H           29.30395441751269       -6.77259535210181       -2.52145177790724
H           27.49251389308851       -6.62870299475972       -2.58588973131334
H           28.49355897569441       -6.24283379456657       -4.80337944844582
H           28.64574496551255       -5.28877051078801       -7.05525817645890
H           28.86451903734381       -2.87060399605130       -7.38461089458697
H           28.12635337602320       -0.51056943621479       -7.25269699539302
H           29.12550228183029        0.76424284933173       -6.46922907956624
H           29.93860082679340       -0.65626443222705       -7.21626921886683
C           21.78814801082137        0.00098100408628        0.00831348314451
C           20.56695984752588       -0.01215820824643        0.00019448667482
C           19.21862043286452       -0.00495047917429       -0.01360831606273
C           18.07487075030171       -0.00079129539433       -0.00723056656631
C           23.13437596807470       -0.00488911850097        0.00961193912030
C           24.28042660337041        0.01037686549295        0.00654972526363
150
 energy: -265.940223193943 gnorm: 0.292501464750 xtb: 6.5.1 (b24c23e)
Cu          13.43634129403331       -0.01227935100541       -0.01514892153030
C           10.08847591861791        0.09139783168350        0.04996660866363
C           10.76230437876079        0.89523755955435        0.92253130823676
C           10.10995054105559        1.76618284800739        1.88119887155211
C           11.07082021410426        2.42604881173666        2.54210486211942
C           12.35335296096756        1.98778838208239        2.01093462721252
N           12.14121595656786        1.03895320397939        1.01185489441036
C           13.56919046044170        2.47226768112155        2.41616080183774
C           14.82189246782881        2.05278901682990        1.87863641457509
C           16.10953100990053        2.65134296041361        2.18683747347019
C           17.04995679292135        1.97132751812465        1.50468821333943
N           14.96678472105974        1.04516186141096        1.03440068315254
C           16.31132007612079        0.96003307381465        0.78161267784429
C           16.78941428878265       -0.02365792596274       -0.01476276936965
C           16.14825805105789       -1.05174169036993       -0.73180251153782
C           16.75453780795960       -2.17144458310626       -1.26204429849602
C           15.74618643315253       -2.87218860550307       -1.93588031361942
C           14.57528994199273       -2.15251909698968       -1.80067623550617
C           13.32198473216613       -2.51956057183248       -2.41344281072494
C           13.31850168080671       -3.53918298653933       -3.50453845384360
C           13.83837656709160       -3.20056951608299       -4.77631148098163
O           14.32129310111669       -1.91528649056251       -4.95898187619340
C           14.88447145384048       -1.44855887064829       -6.18387374194068
C           13.84280425931607       -4.16119202100785       -5.79429080889839
C           13.33908829057050       -5.43495677698411       -5.55592507008263
C           12.82181154179390       -5.77741052982483       -4.31143790892140
C           12.80346145786334       -4.83778033836267       -3.27398039060434
O           12.31328958861139       -5.12964248500798       -2.01048773908267
C           11.76625752249489       -6.39659717091252       -1.64789270146036
C           12.13484570412242       -1.96505937470758       -2.03945358440166
C           10.83162263806999       -2.24942715291446       -2.60428052336687
C            9.94498455535215       -1.52047034181978       -1.90216328154806
C           10.68693703122917       -0.77731791588103       -0.90381666238937
N           11.98440731722656       -1.04168533856678       -0.99262870078879
N           14.80321189418221       -1.01200227065884       -1.03106060676426
C           13.60156185800574        3.51479474953234        3.47501907425514
C           13.72804974969991        3.13231104940882        4.82868224662885
O           13.80996815056673        1.77916506543762        5.11953204678803
C           13.93192320736631        1.26367881329942        6.44451308288012
C           13.76582899968754        4.12382114382308        5.81429861590201
C           13.67939927336747        5.46529605560488        5.45790077213192
C           13.55459198764455        5.84762272046086        4.12656109830109
C           13.51432140426644        4.87847681768790        3.11936742789531
O           13.39499874387932        5.19472528508699        1.77445213264930
C           13.31597760882391        6.53215425038269        1.28382786220920
H            9.00522055362070        0.12596045594791        0.08264507919881
H            9.04704773863783        1.87647644795020        2.04228330653840
H           10.89600891937792        3.15419903240295        3.32064099943726
H           16.29927212275961        3.48674888021026        2.83604283539585
H           18.11532827397095        2.17655787147033        1.53100205528704
H           17.79646313787542       -2.44451797648786       -1.17806637966921
H           15.84646608359461       -3.79754797066268       -2.47560404245786
H           14.14619699621457       -1.48106329275019       -7.00099991619652
H           15.19477370850834       -0.39916725931844       -6.04667978666538
H           15.77610826953662       -2.03287058502614       -6.46147826517659
H           14.23962999583668       -3.93140775609733       -6.77542550686774
H           13.35136415438697       -6.17391512734168       -6.35306731315953
H           12.44193315616430       -6.78067271502225       -4.16228954563586
H           11.45207821256398       -6.35042612459307       -0.59177278674241
H           10.87957506779490       -6.63722952605949       -2.25580893889472
H           12.51513487824056       -7.19887420936260       -1.74509637147333
H           10.59285551263715       -2.91287356377953       -3.42423563811782
H            8.88047060850169       -1.49927439428614       -2.06143592327290
H           13.97858285089312        0.16333947436783        6.38747530853268
H           13.05951522620154        1.53551535090710        7.06007840623959
H           14.85620548827785        1.61886399059029        6.92775374920490
H           13.86271716812188        3.86479975626158        6.86104585967003
H           13.71033162780664        6.22723371877704        6.23207618593185
H           13.49142858850946        6.90154760461415        3.88748164664822
H           14.22257400418619        7.10475185199515        1.53747750303695
H           13.23296097089774        6.49572197701599        0.18475079100424
H           12.42510314624770        7.04873344556451        1.67531870325475
Cu          28.91991744388892        0.01304649664404        0.01406332451677
C           32.26778778194504       -0.03657906291707       -0.09768476153156
C           31.59395747036396       -0.78610862073410       -1.01732365795980
C           32.24628828698190       -1.61133834017305       -2.01561632620127
C           31.28538946514401       -2.17179808071855       -2.76266411259085
C           30.00281852170736       -1.70826053340983       -2.25338581877119
N           30.21505398454329       -0.85410967147659       -1.17228143217692
C           28.78685763638022       -2.04047509099116       -2.79039399361926
C           27.53387054670507       -1.56795970583951       -2.29879072160047