168
 energy: -286.067310638727 gnorm: 0.000280642134 xtb: 6.5.1 (b24c23e)
C           25.68420496311740        0.07527684477246        0.00902946632084
C           26.29231037830535        1.30483105400733        0.22608871449208
C           25.64089384190377        2.55650216782779        0.41273848205817
C           26.60220863470397        3.50449451564442        0.62254381113805
C           27.87209267124701        2.86080351532638        0.57877517294994
N           27.63475610881040        1.54002590856754        0.32415085636565
C           29.13378349918629        3.44231678114338        0.74599817336359
C           29.16219041999318        4.88990262635365        1.06131033344167
C           29.80188038283025        5.80230283605947        0.22272355429564
C           29.79974592548655        7.14662089337688        0.55932023497034
N           29.21544586817781        7.61806056117743        1.65625562583162
C           28.60574133455443        6.75513998370908        2.46252152749621
C           28.54978409423249        5.39381999022094        2.20850064268888
C           30.35127876347384        2.76468743018802        0.64257590418174
C           31.64328848303943        3.37884746761858        0.89051664202486
C           32.56813323289191        2.41913394282082        0.68261212889075
N           30.51226956769718        1.45300314644864        0.31646134205726
C           31.84078976718089        1.21912166234474        0.31692885754715
C           32.48182958747006        0.00133998669934        0.01487745613664
C           31.84784147864795       -1.22279448283694       -0.26795927886198
C           32.48921836846857       -2.44343447025357       -0.60660302151818
C           31.52285179256717       -3.39402755619535       -0.78639180793195
C           30.25927683375429       -2.78191970757684       -0.55975767831091
N           30.50674554693426       -1.46860642071356       -0.26034051603580
C           28.99817607993798       -3.38150042698690       -0.64973727425285
C           28.97267861162026       -4.83294276837554       -0.94486159802398
C           29.57438741191034       -5.75662029573797       -0.09035565002461
C           29.52455884309346       -7.10459762547647       -0.40831410277869
N           28.93152901544626       -7.56909810266877       -1.50337045238486
C           28.35777528094939       -6.69551863069716       -2.32465123122805
C           28.34951859505930       -5.32982879461634       -2.08928969050785
C           27.77953596178406       -2.71457616931716       -0.48911169477282
C           26.47794171338832       -3.36262534402219       -0.53981849101901
C           25.56057977455358       -2.39123649938091       -0.36063361052069
C           26.30072319430569       -1.15340037116471       -0.18796540250431
N           27.63384353572035       -1.38818113289055       -0.25880607225644
H           24.59898927438136        0.08433314467066       -0.00168122296004
H           24.57258060154342        2.70002034908590        0.38322968171445
H           26.45159707596929        4.55943762358115        0.78474501241347
H           28.35909696630880        0.83695109226784        0.22329115968092
H           30.28082793658571        5.46514565808525       -0.68875939159426
H           30.28821878910018        7.87617197707991       -0.07998704822178
H           28.14071229410105        7.16972883856776        3.35220844990322
H           28.05296910889567        4.72641739910666        2.90272774410629
H           31.79948733700444        4.40005775668865        1.19797955604378
H           33.63952213293386        2.48840275992171        0.77904700362274
H           33.55484779869481       -2.56834336463221       -0.70914589407204
H           31.66887538856755       -4.42487315945908       -1.06490208155911
H           29.78598587982809       -0.77978437142553       -0.07167566923616
H           30.05893806935189       -5.42526741416907        0.82046302340575
H           29.98144001214792       -7.84257721763615        0.24460052272472
H           27.88397885366282       -7.10516707314645       -3.21194365909828
H           27.88057711191596       -4.65406118705435       -2.79449190211021
H           26.31452623471607       -4.41890077678054       -0.68074203669130
H           24.48536507337502       -2.47401679092554       -0.33364407484346
C           54.25118874579158       -0.02601255161324        0.00728730440588
C           53.65347632599710       -1.23064040928131       -0.33903525034940
C           54.31438154014630       -2.43667345276856       -0.70569306875716
C           53.35891171056403       -3.37848684320015       -0.96395583650694
C           52.08321052046411       -2.77993659705792       -0.75571737508117
N           52.31177132176286       -1.48478498262787       -0.38749065536524
C           50.82532078865883       -3.36788487184629       -0.92572685389626
C           50.81167020074479       -4.79782621823704       -1.31785502429001
C           50.25465235061797       -5.21595849285675       -2.52574283788064
C           50.26814250231199       -6.56458733690119       -2.84501482640151
N           50.78818065183336       -7.49278137019062       -2.04831426136749
C           51.31976312352920       -7.10292822039541       -0.89424460564689
C           51.35817458298165       -5.77781301313173       -0.48988336032627
C           49.60072538859506       -2.71828655666632       -0.75358181484961
C           48.31293396015919       -3.36879906109329       -0.91444059133318
C           47.37788875976083       -2.43028132030664       -0.66243718076415
N           49.42527897971017       -1.41681344054167       -0.39429292588902
C           48.09279970568693       -1.21315280013695       -0.33191256224805
C           47.43834381248868       -0.00886147604981       -0.00422734425093
C           48.06372383287636        1.20711726278269        0.32990683386865
C           47.41282769057101        2.42584316328062        0.65647577126080
C           48.37323511985056        3.36244458081506        0.92008153814063
C           49.64353230386597        2.73916808292240        0.77652038383807
N           49.40481449439985        1.44006296595344        0.41350002869223
C           50.90044420401788        3.33108601165193        0.94144745649864
C           50.91587282424532        4.75947029994077        1.33628993499254
C           50.35358305117848        5.18826248524947        2.53824669434165
C           50.39282804801794        6.53577675402838        2.86020870410810
N           50.94063543963443        7.45375780276948        2.07048174427392
C           51.47813473172856        7.05374977401591        0.92247869551493
C           51.49240338504708        5.72891083123976        0.51614622197459
C           52.12605862981921        2.68186333574313        0.76346847635598
C           53.42127062808147        3.30379543807552        0.99306032005124
C           54.34910801165613        2.36185924630476        0.73058474030744
C           53.62197219627866        1.16324052582760        0.35084382266413
N           52.28614530659739        1.39082681746075        0.38813354981752
H           55.33644556795703       -0.02339708911702        0.00902003620416
H           55.38465212355392       -2.55322452843022       -0.76635495314654
H           53.51689587335571       -4.39678583446165       -1.28023954201648
H           51.58304951936572       -0.80907650556774       -0.18379336815793
H           49.83030492555289       -4.49322669605159       -3.21235573919317
H           49.84353876110112       -6.91394285870169       -3.78160834330880
H           51.73401010241314       -7.88430647627001       -0.26373669225723
H           51.79108893644955       -5.50813716328324        0.46618299738717
H           48.16479196291807       -4.40393530559284       -1.17554473296285
H           46.30548983238069       -2.52967226593670       -0.69284117118873
H           46.34429021517400        2.56210688949890        0.68496988846354
H           48.21777412235524        4.39559188775360        1.18435963331249
H           50.13001323616100        0.75433547058288        0.23047000880319
H           49.90771310170366        4.47405291658775        3.22030146689801
H           49.96567601010818        6.89257561616262        3.79286714736764
H           51.91589238966053        7.82699157275821        0.29793458831937
H           51.93072640935117        5.45087835643167       -0.43489347531465
H           53.57366815876204        4.31873900412272        1.32308508712108
H           55.42367121615460        2.43741081625451        0.78765596499130
C           33.89120499364422       -0.00725489373869       -0.00404219033427
C           35.10802290954123       -0.00964781858197       -0.02621886124012
C           44.81045393235826       -0.00342579449907       -0.00554965462045
C           46.02785961086893       -0.00589742200486       -0.00673595348153
C           36.51669454487864       -0.01268460495427       -0.04098432039318
C           37.14400462865651       -1.24654419609397        0.21357165585929
C           36.50072728591282       -2.47470064781632        0.51499625452068
C           37.46794733438638       -3.42689491852575        0.68587054356239
C           38.73189805235975       -2.80627125832471        0.49174976619916
N           38.48582145327891       -1.48820551377577        0.21614165436085
C           39.99191084778778       -3.40662419854432        0.59884161605479
C           40.00001419133699       -4.86455991442624        0.87254285592679
C           40.55402239543957       -5.38248474525647        2.04244313938503
C           40.53487502665684       -6.75275180632835        2.24981389159391
N           40.01239375380962       -7.61020787950579        1.37892553986977
C           39.48339341570696       -7.12486194188579        0.26049248111122
C           39.45037886238431       -5.77080346640705       -0.03356607623669
C           41.21982097463471       -2.75545658057417        0.47466883189738
C           42.50227691399096       -3.42828386930490        0.57632909241893
C           43.44507097005936       -2.47794237013097        0.41356237076791
N           41.40558696157226       -1.42810307245423        0.23462587718845
C           42.73988592126715       -1.23070937994676        0.19553397863244
C           43.40070933489952       -0.00407112047201       -0.01325508885925
C           42.77208453209424        1.23571923995677       -0.23670461695102
C           43.41482185751833        2.48300303580596       -0.44611207085755
C           42.44733449724403        3.43016882710228       -0.64074647401005
C           41.18280146271753        2.78505255433686       -0.56912144752659
N           41.42950706458103        1.46257088556843       -0.31412131338204
C           39.92291660213486        3.37832695789676       -0.71432943840337
C           39.91073849494824        4.83154317494071       -1.01091711275031
C           39.32365042601975        5.74306260940654       -0.13404381536792
C           39.33882569707899        7.09206509765626       -0.45131716197600
N           39.88721149944818        7.56826700487285       -1.56454481870276
C           40.44587244096944        6.70596081798532       -2.40750988076074
C           40.48515347635421        5.34002056075457       -2.17532856912671
C           38.69494146099441        2.72373152841997       -0.60758742226824
C           37.41395385924640        3.37025684848294       -0.83097801917768
C           36.47087753346711        2.42493214617053       -0.64046154497612
C           37.17612537059884        1.20262588012373       -0.30907972247869
N           38.50934995541140        1.40876020751661       -0.30883170994842
H           35.43412896385191       -2.60407393064460        0.59996296039580
H           37.32149482040215       -4.46458908282728        0.93749132242789
H           39.20314366084811       -0.79059259097759        0.04877489022534
H           40.98032445549342       -4.72019505555306        2.78636680245473
H           40.95694941465560       -7.17957791253199        3.15492027063744
H           39.06711324924763       -7.85011416098231       -0.43257051650325
H           39.01842463888105       -5.42138142617917       -0.96386838093940
H           42.64167224346333       -4.48413648070874        0.74166047875718
H           44.51663784252895       -2.58743157951124        0.43717346054519
H           44.48216487258715        2.63088797397003       -0.44824231865371
H           42.59520836185374        4.48378235187100       -0.81243429890439
H           40.71232586726902        0.75414133559035       -0.19971596855124
H           38.87464335273747        5.40117341300898        0.79081268166836
H           38.89183027927380        7.82129201432002        0.21798458314468
H           40.88205430529268        7.12473414756205       -3.30972923170970
H           40.94061024195675        4.67353958817016       -2.89813827816376
H           37.27713934055847        4.40203132787863       -1.11114406054717
H           35.40043770689890        2.51770517485998       -0.72710983565658
