      -----------------------------------------------------------      
     |                   =====================                   |     
     |                           x T B                           |     
     |                   =====================                   |     
     |                         S. Grimme                         |     
     |          Mulliken Center for Theoretical Chemistry        |     
     |                    University of Bonn                     |     
      -----------------------------------------------------------      

   * xtb version 6.5.1 (b24c23e) compiled by 'conda@728c89f4b128' on 2022-07-12

   xtb is free software: you can redistribute it and/or modify it under
   the terms of the GNU Lesser General Public License as published by
   the Free Software Foundation, either version 3 of the License, or
   (at your option) any later version.
   
   xtb is distributed in the hope that it will be useful,
   but WITHOUT ANY WARRANTY; without even the implied warranty of
   MERCHANTABILITY or FITNESS FOR A PARTICULAR PURPOSE.  See the
   GNU Lesser General Public License for more details.
   
   Cite this work as:
   * C. Bannwarth, E. Caldeweyher, S. Ehlert, A. Hansen, P. Pracht,
     J. Seibert, S. Spicher, S. Grimme, WIREs Comput. Mol. Sci., 2020, 11,
     e01493. DOI: 10.1002/wcms.1493
   
   for GFN2-xTB:
   * C. Bannwarth, S. Ehlert and S. Grimme., J. Chem. Theory Comput., 2019,
     15, 1652-1671. DOI: 10.1021/acs.jctc.8b01176
   for GFN1-xTB:
   * S. Grimme, C. Bannwarth, P. Shushkov, J. Chem. Theory Comput., 2017,
     13, 1989-2009. DOI: 10.1021/acs.jctc.7b00118
   for GFN0-xTB:
   * P. Pracht, E. Caldeweyher, S. Ehlert, S. Grimme, ChemRxiv, 2019, preprint.
     DOI: 10.26434/chemrxiv.8326202.v1
   for GFN-FF:
   * S. Spicher and S. Grimme, Angew. Chem. Int. Ed., 2020, 59, 15665-15673.
     DOI: 10.1002/anie.202004239
   
   for ALPB and GBSA implicit solvation:
   * S. Ehlert, M. Stahn, S. Spicher, S. Grimme, J. Chem. Theory Comput.,
     2021, 17, 4250-4261. DOI: 10.1021/acs.jctc.1c00471
   
   for DFT-D4:
   * E. Caldeweyher, C. Bannwarth and S. Grimme, J. Chem. Phys., 2017,
     147, 034112. DOI: 10.1063/1.4993215
   * E. Caldeweyher, S. Ehlert, A. Hansen, H. Neugebauer, S. Spicher,
     C. Bannwarth and S. Grimme, J. Chem. Phys., 2019, 150, 154122.
     DOI: 10.1063/1.5090222
   * E. Caldeweyher, J.-M. Mewes, S. Ehlert and S. Grimme, Phys. Chem. Chem. Phys.
     2020, 22, 8499-8512. DOI: 10.1039/D0CP00502A
   
   for sTDA-xTB:
   * S. Grimme and C. Bannwarth, J. Chem. Phys., 2016, 145, 054103.
     DOI: 10.1063/1.4959605
   
   in the mass-spec context:
   * V. Asgeirsson, C. Bauer and S. Grimme, Chem. Sci., 2017, 8, 4879.
     DOI: 10.1039/c7sc00601b
   * J. Koopman and S. Grimme, ACS Omega 2019, 4, 12, 15120-15133.
     DOI: 10.1021/acsomega.9b02011
   
   for metadynamics refer to:
   * S. Grimme, J. Chem. Theory Comput., 2019, 155, 2847-2862
     DOI: 10.1021/acs.jctc.9b00143
   
   for SPH calculations refer to:
   * S. Spicher and S. Grimme, J. Chem. Theory Comput., 2021, 17, 1701-1714
     DOI: 10.1021/acs.jctc.0c01306
   
   with help from (in alphabetical order)
   P. Atkinson, C. Bannwarth, F. Bohle, G. Brandenburg, E. Caldeweyher
   M. Checinski, S. Dohm, S. Ehlert, S. Ehrlich, I. Gerasimov, C. Hölzer
   A. Katbashev, J. Koopman, C. Lavigne, S. Lehtola, F. März, M. Müller,
   F. Musil, H. Neugebauer, J. Pisarek, C. Plett, P. Pracht, F. Pultar,
   J. Seibert, P. Shushkov, S. Spicher, M. Stahn, M. Steiner, T. Strunk,
   J. Stückrath, T. Rose, and J. Unsleber
   
 * started run on 2022/07/30 at 02:08:11.558     

           -------------------------------------------------
          |                Calculation Setup                |
           -------------------------------------------------

          program call               : xtb xtbopt.xyz --gfn 1 --vipea
          hostname                   : cx3-14-19.cx3.hpc.ic.ac.uk
          coordinate file            : xtbopt.xyz
          omp threads                :                     1

   ID    Z sym.   atoms
    1   28 Ni     1, 37
    2    6 C      2-6, 8-11, 13-18, 20-24, 38-42, 44-47, 49-54, 56-60, 73-76
    3    7 N      7, 12, 19, 25, 43, 48, 55, 61
    4    1 H      26-36, 62-72

           -------------------------------------------------
          |                 I P E A - x T B                 |
           -------------------------------------------------

        Reference                      10.1039/c7sc00601b
      * Hamiltonian:
        H0-scaling (s, p, d)           2.150000    2.300000    2.000000
        zeta-weighting                 0.000000
      * Dispersion:
        s8                             2.400000
        a1                             0.630000
        a2                             5.000000
        s9                             0.000000
      * Repulsion:
        kExp                           1.500000
        rExp                           1.000000
      * Coulomb:
        alpha                          1.000000
        third order                    atomic
        anisotropic                    false
      * Halogen bond correction:
        rad-scale                      1.300000
        damping                        0.440000


          ...................................................
          :                      SETUP                      :
          :.................................................:
          :  # basis functions                 324          :
          :  # atomic orbitals                 322          :
          :  # shells                          206          :
          :  # electrons                       258          :
          :  # halogen bonds                     0          :
          :  max. iterations                   250          :
          :  Hamiltonian                  GFN1-xTB          :
          :  restarted?                      false          :
          :  GBSA solvation                  false          :
          :  PC potential                    false          :
          :  electronic temp.          300.0000000     K    :
          :  accuracy                    1.0000000          :
          :  -> integral cutoff          0.2500000E+02      :
          :  -> integral neglect         0.1000000E-07      :
          :  -> SCF convergence          0.1000000E-05 Eh   :
          :  -> wf. convergence          0.2000000E-04 e    :
          :  Broyden damping             0.4000000          :
          ...................................................

 iter      E             dE          RMSdq      gap      omega  full diag
   1   -158.8009478 -0.158801E+03  0.106E+01    1.59       0.0  T
   2   -158.8177988 -0.168510E-01  0.667E+00    1.14       1.0  T
   3   -156.1846896  0.263311E+01  0.514E+00    1.23       1.0  T
   4   -159.3929589 -0.320827E+01  0.841E-01    1.89       1.0  T
   5   -159.5094320 -0.116473E+00  0.177E-01    1.78       1.0  T
   6   -159.5131029 -0.367089E-02  0.938E-02    1.78       1.0  T
   7   -159.5143650 -0.126216E-02  0.335E-02    1.78       1.0  T
   8   -159.5145097 -0.144689E-03  0.196E-02    1.78       1.0  T
   9   -159.5145319 -0.221912E-04  0.825E-03    1.78       1.4  T
  10   -159.5145393 -0.735862E-05  0.324E-03    1.78       3.5  T
  11   -159.5145407 -0.146987E-05  0.100E-03    1.78      11.4  T
  12   -159.5145409 -0.142171E-06  0.299E-04    1.78      38.4  T
  13   -159.5145409 -0.110306E-07  0.144E-04    1.78      79.7  T
  14   -159.5145409 -0.268869E-08  0.716E-05    1.78     160.2  T

   *** convergence criteria satisfied after 14 iterations ***

         #    Occupation            Energy/Eh            Energy/eV
      -------------------------------------------------------------
         1        2.0000           -1.0353638             -28.1737
       ...           ...                  ...                  ...
       123        2.0000           -0.3753481             -10.2137
       124        2.0000           -0.3753371             -10.2134
       125        2.0000           -0.3753245             -10.2131
       126        2.0000           -0.3752838             -10.2120
       127        2.0000           -0.3752424             -10.2109
       128        2.0000           -0.3751452             -10.2082
       129        2.0000           -0.3744906             -10.1904 (HOMO)
       130                         -0.3091183              -8.4115 (LUMO)
       131                         -0.2975077              -8.0956
       132                         -0.2975066              -8.0956
       133                         -0.2971365              -8.0855
       134                         -0.2584884              -7.0338
       ...                                ...                  ...
       322                        489.2511305           13313.2009
      -------------------------------------------------------------
                  HL-Gap            0.0653723 Eh            1.7789 eV
             Fermi-level           -0.3418044 Eh           -9.3010 eV

 SCC (total)                   0 d,  0 h,  0 min,  1.138 sec
 SCC setup                      ...        0 min,  0.001 sec (  0.128%)
 Dispersion                     ...        0 min,  0.002 sec (  0.187%)
 classical contributions        ...        0 min,  0.001 sec (  0.073%)
 integral evaluation            ...        0 min,  0.215 sec ( 18.911%)
 iterations                     ...        0 min,  0.421 sec ( 36.971%)
 molecular gradient             ...        0 min,  0.489 sec ( 43.027%)
 printout                       ...        0 min,  0.008 sec (  0.700%)

         :::::::::::::::::::::::::::::::::::::::::::::::::::::
         ::                     SUMMARY                     ::
         :::::::::::::::::::::::::::::::::::::::::::::::::::::
         :: total energy            -156.469338153858 Eh    ::
         :: gradient norm              0.046257471559 Eh/a0 ::
         :: HOMO-LUMO gap              1.778871671316 eV    ::
         ::.................................................::
         :: SCC energy              -159.514540902375 Eh    ::
         :: -> electrostatic           0.107337664293 Eh    ::
         :: repulsion energy           3.110013201336 Eh    ::
         :: dispersion energy         -0.064810452819 Eh    ::
         :: halogen bond corr.         0.000000000000 Eh    ::
         :: add. restraining           0.000000000000 Eh    ::
         :: total charge               0.000000000000 e     ::
         :::::::::::::::::::::::::::::::::::::::::::::::::::::

           ------------------------------------------------- 
          |        vertical delta SCC IP calculation        |
           ------------------------------------------------- 
   1   -159.0699894 -0.159070E+03  0.559E-01    1.78       0.0  T
   2   -159.0601624  0.982699E-02  0.628E-01    1.79       1.0  T
   3   -159.0962033 -0.360409E-01  0.248E-01    1.81       1.0  T
   4   -159.0994484 -0.324506E-02  0.139E-01    1.81       1.0  T
   5   -159.0978835  0.156489E-02  0.194E-01    1.80       1.0  T
   6   -159.0994540 -0.157047E-02  0.145E-01    1.81       1.0  T
   7   -159.0997353 -0.281369E-03  0.111E-01    1.80       1.0  T
   8   -159.1009919 -0.125652E-02  0.716E-02    1.80       1.0  T
   9   -159.1013966 -0.404710E-03  0.315E-02    1.80       1.0  T
  10   -159.1014637 -0.671530E-04  0.188E-02    1.80       1.0  T
  11   -159.1014996 -0.359245E-04  0.302E-03    1.80       3.8  T
  12   -159.1015001 -0.508326E-06  0.181E-03    1.80       6.4  T
  13   -159.1015005 -0.392335E-06  0.276E-04    1.80      41.5  T
  14   -159.1015005  0.285604E-08  0.331E-04    1.80      34.7  T
  15   -159.1015005 -0.933463E-08  0.113E-04    1.80     101.6  T
  16   -159.1015005  0.993850E-09  0.157E-04    1.80      73.1  T
     SCC iter.                  ...        0 min,  0.477 sec
     gradient                   ...        0 min,  0.492 sec
------------------------------------------------------------------------
empirical IP shift (eV):    4.8455
delta SCC IP (eV):    6.3939
------------------------------------------------------------------------
           ------------------------------------------------- 
          |        vertical delta SCC EA calculation        |
           ------------------------------------------------- 
   1   -159.7581227 -0.159758E+03  0.387E-01    0.34       0.0  T
   2   -159.7760132 -0.178904E-01  0.257E-01    0.17       1.0  T
   3   -159.7815331 -0.551993E-02  0.186E-01    0.28       1.0  T
   4   -159.7841576 -0.262445E-02  0.104E-01    0.22       1.0  T
   5   -159.7839144  0.243180E-03  0.652E-02    0.23       1.0  T
   6   -159.7843900 -0.475654E-03  0.231E-02    0.22       1.0  T
   7   -159.7844828 -0.927805E-04  0.930E-03    0.23       1.2  T
   8   -159.7844464  0.364431E-04  0.124E-02    0.22       1.0  T
   9   -159.7844940 -0.476441E-04  0.401E-03    0.23       2.9  T
  10   -159.7844981 -0.410681E-05  0.103E-03    0.23      11.1  T
  11   -159.7844983 -0.158621E-06  0.289E-04    0.23      39.7  T
  12   -159.7844983 -0.304487E-08  0.179E-04    0.23      64.1  T
  13   -159.7844983 -0.596722E-08  0.432E-05    0.23     265.8  T
     SCC iter.                  ...        0 min,  0.388 sec
     gradient                   ...        0 min,  0.497 sec
------------------------------------------------------------------------
empirical EA shift (eV):    4.8455
delta SCC EA (eV):    2.5004
------------------------------------------------------------------------
           -------------------------------------------------
          |                Property Printout                |
           -------------------------------------------------

    * Orbital Energies and Occupations

         #    Occupation            Energy/Eh            Energy/eV
      -------------------------------------------------------------
         1        2.0000           -0.9596929             -26.1146
       ...           ...                  ...                  ...
       118        2.0000           -0.3093180              -8.4170
       119        2.0000           -0.3093171              -8.4169
       120        2.0000           -0.3081931              -8.3864
       121        2.0000           -0.3014191              -8.2020
       122        2.0000           -0.3013895              -8.2012
       123        2.0000           -0.2993257              -8.1451
       124        2.0000           -0.2993246              -8.1450
       125        2.0000           -0.2992372              -8.1427
       126        2.0000           -0.2991945              -8.1415
       127        2.0000           -0.2991483              -8.1402
       128        2.0000           -0.2990599              -8.1378
       129        2.0000           -0.2963240              -8.0634
       130        0.9832           -0.2308332              -6.2813 (HOMO)
       131        0.0083           -0.2224229              -6.0524 (LUMO)
       132        0.0083           -0.2224214              -6.0524
       133        0.0003           -0.2192081              -5.9650
       134                         -0.1823708              -4.9626
       135                         -0.1823355              -4.9616
       136                         -0.1796028              -4.8872
       137                         -0.1725253              -4.6947
       138                         -0.1524078              -4.1472
       139                         -0.1412207              -3.8428
       140                         -0.1273896              -3.4664
       141                         -0.1246329              -3.3914
       ...                                ...                  ...
       322                        489.3336522           13315.4464
      -------------------------------------------------------------
                  HL-Gap            0.0084104 Eh            0.2289 eV
             Fermi-level           -0.2452739 Eh           -6.6742 eV

  Mulliken/CM5 charges         n(s)   n(p)   n(d)
     1Ni    0.24825  0.61447   0.574  0.795  8.382
     2C    -0.03712 -0.07842   1.072  2.965  0.000
     3C     0.05522  0.11609   1.110  2.835  0.000
     4C    -0.04713 -0.09360   1.082  2.965  0.000
     5C    -0.04411 -0.09058   1.085  2.959  0.000
     6C     0.05101  0.11181   1.104  2.845  0.000
     7N    -0.21744 -0.46867   1.317  3.900  0.000
     8C    -0.02333 -0.06468   1.084  2.939  0.000
     9C     0.05072  0.11088   1.103  2.846  0.000
    10C    -0.04437 -0.09085   1.083  2.961  0.000
    11C    -0.04275 -0.08831   1.082  2.961  0.000
    12N    -0.21316 -0.46397   1.320  3.893  0.000
    13C     0.06041  0.12577   1.116  2.824  0.000
    14C     0.00491  0.01187   1.072  2.923  0.000
    15C     0.06024  0.12556   1.116  2.824  0.000
    16C    -0.04287 -0.08842   1.082  2.961  0.000
    17C    -0.04445 -0.09093   1.083  2.962  0.000
    18C     0.05070  0.11086   1.103  2.846  0.000
    19N    -0.21323 -0.46402   1.320  3.893  0.000
    20C    -0.02339 -0.06473   1.084  2.939  0.000
    21C     0.05101  0.11182   1.104  2.845  0.000
    22C    -0.04411 -0.09057   1.085  2.959  0.000
    23C    -0.04711 -0.09357   1.082  2.965  0.000
    24C     0.05523  0.11611   1.110  2.835  0.000
    25N    -0.21750 -0.46862   1.317  3.900  0.000
    26H     0.00926  0.06822   0.991  0.000  0.000
    27H     0.01714  0.07374   0.983  0.000  0.000
    28H     0.01857  0.07516   0.981  0.000  0.000
    29H     0.01458  0.07357   0.985  0.000  0.000
    30H     0.01928  0.07590   0.981  0.000  0.000
    31H     0.01673  0.07493   0.983  0.000  0.000
    32H     0.01661  0.07472   0.983  0.000  0.000
    33H     0.01920  0.07582   0.981  0.000  0.000
    34H     0.01451  0.07350   0.985  0.000  0.000
    35H     0.01855  0.07514   0.981  0.000  0.000
    36H     0.01715  0.07374   0.983  0.000  0.000
    37Ni    0.24825  0.61448   0.574  0.795  8.382
    38C    -0.03713 -0.07842   1.072  2.965  0.000
    39C     0.05522  0.11609   1.110  2.835  0.000
    40C    -0.04713 -0.09360   1.082  2.965  0.000
    41C    -0.04411 -0.09058   1.085  2.959  0.000
    42C     0.05101  0.11181   1.104  2.845  0.000
    43N    -0.21744 -0.46867   1.317  3.900  0.000
    44C    -0.02333 -0.06468   1.084  2.939  0.000
    45C     0.05071  0.11088   1.103  2.846  0.000
    46C    -0.04438 -0.09085   1.083  2.961  0.000
    47C    -0.04276 -0.08832   1.082  2.961  0.000
    48N    -0.21315 -0.46398   1.320  3.893  0.000
    49C     0.06040  0.12577   1.116  2.824  0.000
    50C     0.00490  0.01186   1.072  2.923  0.000
    51C     0.06024  0.12557   1.116  2.824  0.000
    52C    -0.04287 -0.08841   1.082  2.961  0.000
    53C    -0.04445 -0.09092   1.083  2.962  0.000
    54C     0.05070  0.11086   1.103  2.846  0.000
    55N    -0.21323 -0.46401   1.320  3.893  0.000
    56C    -0.02338 -0.06473   1.084  2.939  0.000
    57C     0.05101  0.11181   1.104  2.845  0.000
    58C    -0.04411 -0.09057   1.085  2.959  0.000
    59C    -0.04711 -0.09357   1.082  2.965  0.000
    60C     0.05523  0.11611   1.110  2.835  0.000
    61N    -0.21750 -0.46863   1.317  3.900  0.000
    62H     0.00926  0.06822   0.991  0.000  0.000
    63H     0.01714  0.07374   0.983  0.000  0.000
    64H     0.01857  0.07516   0.981  0.000  0.000
    65H     0.01457  0.07357   0.985  0.000  0.000
    66H     0.01928  0.07590   0.981  0.000  0.000
    67H     0.01673  0.07493   0.983  0.000  0.000
    68H     0.01660  0.07472   0.983  0.000  0.000
    69H     0.01920  0.07582   0.981  0.000  0.000
    70H     0.01450  0.07349   0.985  0.000  0.000
    71H     0.01855  0.07514   0.981  0.000  0.000
    72H     0.01715  0.07374   0.983  0.000  0.000
    73C    -0.03501 -0.03586   1.060  2.975  0.000
    74C    -0.03215 -0.03389   1.088  2.944  0.000
    75C    -0.03501 -0.03585   1.060  2.975  0.000
    76C    -0.03215 -0.03389   1.088  2.944  0.000

Wiberg/Mayer (AO) data.
largest (>0.10) Wiberg bond orders for each atom

 ---------------------------------------------------------------------------
     #   Z sym  total        # sym  WBO       # sym  WBO       # sym  WBO
 ---------------------------------------------------------------------------
     1  28 Ni   3.321 --    19 N    0.715    12 N    0.715     7 N    0.715
                            25 N    0.715
     2   6 C    3.777 --    24 C    1.382     3 C    1.382    26 H    0.997
     3   6 C    3.949 --     2 C    1.382     7 N    1.258     4 C    1.200
     4   6 C    3.834 --     5 C    1.634     3 C    1.200    27 H    0.995
     5   6 C    3.853 --     4 C    1.634     6 C    1.204    28 H    0.995
     6   6 C    3.932 --     8 C    1.397     7 N    1.235     5 C    1.204
     7   7 N    3.012 --     3 C    1.258     6 C    1.235     1 Ni   0.715
     8   6 C    3.835 --     6 C    1.397     9 C    1.389    29 H    0.998
     9   6 C    3.921 --     8 C    1.389    12 N    1.229    10 C    1.215
    10   6 C    3.843 --    11 C    1.613     9 C    1.215    30 H    0.994
    11   6 C    3.823 --    10 C    1.613    13 C    1.229    31 H    1.000
    12   7 N    3.032 --    13 C    1.282     9 C    1.229     1 Ni   0.715
    13   6 C    3.924 --    14 C    1.287    12 N    1.282    11 C    1.229
    14   6 C    3.793 --    15 C    1.288    13 C    1.287    74 C    1.221
    15   6 C    3.924 --    14 C    1.288    19 N    1.282    16 C    1.229
    16   6 C    3.824 --    17 C    1.612    15 C    1.229    32 H    1.000
    17   6 C    3.842 --    16 C    1.612    18 C    1.215    33 H    0.994
    18   6 C    3.921 --    20 C    1.389    19 N    1.230    17 C    1.215
    19   7 N    3.033 --    15 C    1.282    18 C    1.230     1 Ni   0.715
    20   6 C    3.835 --    21 C    1.397    18 C    1.389    34 H    0.998
    21   6 C    3.932 --    20 C    1.397    25 N    1.235    22 C    1.204
    22   6 C    3.853 --    23 C    1.634    21 C    1.204    35 H    0.995
    23   6 C    3.834 --    22 C    1.634    24 C    1.200    36 H    0.995
    24   6 C    3.949 --     2 C    1.382    25 N    1.258    23 C    1.200
    25   7 N    3.011 --    24 C    1.258    21 C    1.235     1 Ni   0.715
    26   1 H    1.045 --     2 C    0.997
    27   1 H    1.030 --     4 C    0.995
    28   1 H    1.030 --     5 C    0.995
    29   1 H    1.046 --     8 C    0.998
    30   1 H    1.029 --    10 C    0.994
    31   1 H    1.042 --    11 C    1.000
    32   1 H    1.042 --    16 C    1.000
    33   1 H    1.029 --    17 C    0.994
    34   1 H    1.046 --    20 C    0.998
    35   1 H    1.030 --    22 C    0.995
    36   1 H    1.030 --    23 C    0.995
    37  28 Ni   3.321 --    55 N    0.715    48 N    0.715    43 N    0.715
                            61 N    0.715
    38   6 C    3.777 --    60 C    1.382    39 C    1.382    62 H    0.997
    39   6 C    3.949 --    38 C    1.382    43 N    1.258    40 C    1.200
    40   6 C    3.834 --    41 C    1.634    39 C    1.200    63 H    0.995
    41   6 C    3.853 --    40 C    1.634    42 C    1.204    64 H    0.995
    42   6 C    3.932 --    44 C    1.397    43 N    1.235    41 C    1.204
    43   7 N    3.012 --    39 C    1.258    42 C    1.235    37 Ni   0.715
    44   6 C    3.835 --    42 C    1.397    45 C    1.389    65 H    0.998
    45   6 C    3.921 --    44 C    1.389    48 N    1.229    46 C    1.215
    46   6 C    3.843 --    47 C    1.613    45 C    1.215    66 H    0.994
    47   6 C    3.823 --    46 C    1.613    49 C    1.229    67 H    1.000
    48   7 N    3.033 --    49 C    1.282    45 C    1.229    37 Ni   0.715
    49   6 C    3.924 --    50 C    1.287    48 N    1.282    47 C    1.229
    50   6 C    3.793 --    51 C    1.288    49 C    1.287    76 C    1.221
    51   6 C    3.924 --    50 C    1.288    55 N    1.282    52 C    1.229
    52   6 C    3.824 --    53 C    1.612    51 C    1.229    68 H    1.000
    53   6 C    3.842 --    52 C    1.612    54 C    1.215    69 H    0.994
    54   6 C    3.921 --    56 C    1.389    55 N    1.230    53 C    1.215
    55   7 N    3.032 --    51 C    1.282    54 C    1.230    37 Ni   0.715
    56   6 C    3.835 --    57 C    1.397    54 C    1.389    70 H    0.998
    57   6 C    3.932 --    56 C    1.397    61 N    1.235    58 C    1.204
    58   6 C    3.853 --    59 C    1.634    57 C    1.204    71 H    0.995
    59   6 C    3.834 --    58 C    1.634    60 C    1.200    72 H    0.995
    60   6 C    3.949 --    38 C    1.382    61 N    1.258    59 C    1.200
    61   7 N    3.011 --    60 C    1.258    57 C    1.235    37 Ni   0.715
    62   1 H    1.045 --    38 C    0.997
    63   1 H    1.030 --    40 C    0.995
    64   1 H    1.030 --    41 C    0.995
    65   1 H    1.046 --    44 C    0.998
    66   1 H    1.029 --    46 C    0.994
    67   1 H    1.042 --    47 C    1.000
    68   1 H    1.042 --    52 C    1.000
    69   1 H    1.029 --    53 C    0.994
    70   1 H    1.046 --    56 C    0.998
    71   1 H    1.030 --    58 C    0.995
    72   1 H    1.030 --    59 C    0.995
    73   6 C    3.797 --    74 C    2.490    75 C    1.328
    74   6 C    3.792 --    73 C    2.490    14 C    1.221    76 C    0.172
    75   6 C    3.797 --    76 C    2.490    73 C    1.328
    76   6 C    3.792 --    75 C    2.490    50 C    1.221    74 C    0.172
 ---------------------------------------------------------------------------

Topologies differ in total number of bonds
Writing topology from bond orders to xtbtopo.mol

 dipole moment from electron density (au)
     X       Y       Z   
 -27.4576   0.0091  -0.0260  total (Debye):   69.790


           -------------------------------------------------
          | TOTAL ENERGY             -156.739295550008 Eh   |
          | GRADIENT NORM               0.071538710976 Eh/α |
          | HOMO-LUMO GAP               0.228857638855 eV   |
           -------------------------------------------------
########################################################################
[WARNING] Runtime exception occurred
-1- restart_readRestart: Dimension missmatch in restart file.
########################################################################

------------------------------------------------------------------------
 * finished run on 2022/07/30 at 02:08:15.243     
------------------------------------------------------------------------
 total:
 * wall-time:     0 d,  0 h,  0 min,  3.686 sec
 *  cpu-time:     0 d,  0 h,  0 min,  3.655 sec
 * ratio c/w:     0.992 speedup
 SCF:
 * wall-time:     0 d,  0 h,  0 min,  3.458 sec
 *  cpu-time:     0 d,  0 h,  0 min,  3.430 sec
 * ratio c/w:     0.992 speedup

