      -----------------------------------------------------------      
     |                   =====================                   |     
     |                           x T B                           |     
     |                   =====================                   |     
     |                         S. Grimme                         |     
     |          Mulliken Center for Theoretical Chemistry        |     
     |                    University of Bonn                     |     
      -----------------------------------------------------------      

   * xtb version 6.5.1 (b24c23e) compiled by 'conda@728c89f4b128' on 2022-07-12

   xtb is free software: you can redistribute it and/or modify it under
   the terms of the GNU Lesser General Public License as published by
   the Free Software Foundation, either version 3 of the License, or
   (at your option) any later version.
   
   xtb is distributed in the hope that it will be useful,
   but WITHOUT ANY WARRANTY; without even the implied warranty of
   MERCHANTABILITY or FITNESS FOR A PARTICULAR PURPOSE.  See the
   GNU Lesser General Public License for more details.
   
   Cite this work as:
   * C. Bannwarth, E. Caldeweyher, S. Ehlert, A. Hansen, P. Pracht,
     J. Seibert, S. Spicher, S. Grimme, WIREs Comput. Mol. Sci., 2020, 11,
     e01493. DOI: 10.1002/wcms.1493
   
   for GFN2-xTB:
   * C. Bannwarth, S. Ehlert and S. Grimme., J. Chem. Theory Comput., 2019,
     15, 1652-1671. DOI: 10.1021/acs.jctc.8b01176
   for GFN1-xTB:
   * S. Grimme, C. Bannwarth, P. Shushkov, J. Chem. Theory Comput., 2017,
     13, 1989-2009. DOI: 10.1021/acs.jctc.7b00118
   for GFN0-xTB:
   * P. Pracht, E. Caldeweyher, S. Ehlert, S. Grimme, ChemRxiv, 2019, preprint.
     DOI: 10.26434/chemrxiv.8326202.v1
   for GFN-FF:
   * S. Spicher and S. Grimme, Angew. Chem. Int. Ed., 2020, 59, 15665-15673.
     DOI: 10.1002/anie.202004239
   
   for ALPB and GBSA implicit solvation:
   * S. Ehlert, M. Stahn, S. Spicher, S. Grimme, J. Chem. Theory Comput.,
     2021, 17, 4250-4261. DOI: 10.1021/acs.jctc.1c00471
   
   for DFT-D4:
   * E. Caldeweyher, C. Bannwarth and S. Grimme, J. Chem. Phys., 2017,
     147, 034112. DOI: 10.1063/1.4993215
   * E. Caldeweyher, S. Ehlert, A. Hansen, H. Neugebauer, S. Spicher,
     C. Bannwarth and S. Grimme, J. Chem. Phys., 2019, 150, 154122.
     DOI: 10.1063/1.5090222
   * E. Caldeweyher, J.-M. Mewes, S. Ehlert and S. Grimme, Phys. Chem. Chem. Phys.
     2020, 22, 8499-8512. DOI: 10.1039/D0CP00502A
   
   for sTDA-xTB:
   * S. Grimme and C. Bannwarth, J. Chem. Phys., 2016, 145, 054103.
     DOI: 10.1063/1.4959605
   
   in the mass-spec context:
   * V. Asgeirsson, C. Bauer and S. Grimme, Chem. Sci., 2017, 8, 4879.
     DOI: 10.1039/c7sc00601b
   * J. Koopman and S. Grimme, ACS Omega 2019, 4, 12, 15120-15133.
     DOI: 10.1021/acsomega.9b02011
   
   for metadynamics refer to:
   * S. Grimme, J. Chem. Theory Comput., 2019, 155, 2847-2862
     DOI: 10.1021/acs.jctc.9b00143
   
   for SPH calculations refer to:
   * S. Spicher and S. Grimme, J. Chem. Theory Comput., 2021, 17, 1701-1714
     DOI: 10.1021/acs.jctc.0c01306
   
   with help from (in alphabetical order)
   P. Atkinson, C. Bannwarth, F. Bohle, G. Brandenburg, E. Caldeweyher
   M. Checinski, S. Dohm, S. Ehlert, S. Ehrlich, I. Gerasimov, C. Hölzer
   A. Katbashev, J. Koopman, C. Lavigne, S. Lehtola, F. März, M. Müller,
   F. Musil, H. Neugebauer, J. Pisarek, C. Plett, P. Pracht, F. Pultar,
   J. Seibert, P. Shushkov, S. Spicher, M. Stahn, M. Steiner, T. Strunk,
   J. Stückrath, T. Rose, and J. Unsleber
   
 * started run on 2022/07/30 at 04:21:53.639     

           -------------------------------------------------
          |                Calculation Setup                |
           -------------------------------------------------

          program call               : xtb xtbopt.xyz --gfn 1 --vipea
          hostname                   : cx3-15-15.cx3.hpc.ic.ac.uk
          coordinate file            : xtbopt.xyz
          omp threads                :                     1

   ID    Z sym.   atoms
    1   28 Ni     1, 61, 129
    2    6 C      2-6, 8-13, 15-19, 21-26, 28-33, 35-40, 62-66, 68-73, 75-79,
                  81-86, 88-93, 95-100, 121-128, 130-134, 136-141, 143-147,
                  149-154, 156-161, 163-168
    3    7 N      7, 20, 27, 41, 67, 80, 87, 101, 135, 148, 155, 169
    4    8 O      14, 34, 74, 94, 142, 162
    5    1 H      42-60, 102-120, 170-187

           -------------------------------------------------
          |                 I P E A - x T B                 |
           -------------------------------------------------

        Reference                      10.1039/c7sc00601b
      * Hamiltonian:
        H0-scaling (s, p, d)           2.150000    2.300000    2.000000
        zeta-weighting                 0.000000
      * Dispersion:
        s8                             2.400000
        a1                             0.630000
        a2                             5.000000
        s9                             0.000000
      * Repulsion:
        kExp                           1.500000
        rExp                           1.000000
      * Coulomb:
        alpha                          1.000000
        third order                    atomic
        anisotropic                    false
      * Halogen bond correction:
        rad-scale                      1.300000
        damping                        0.440000


          ...................................................
          :                      SETUP                      :
          :.................................................:
          :  # basis functions                 782          :
          :  # atomic orbitals                 779          :
          :  # shells                          505          :
          :  # electrons                       622          :
          :  # halogen bonds                     0          :
          :  max. iterations                   250          :
          :  Hamiltonian                  GFN1-xTB          :
          :  restarted?                      false          :
          :  GBSA solvation                  false          :
          :  PC potential                    false          :
          :  electronic temp.          300.0000000     K    :
          :  accuracy                    1.0000000          :
          :  -> integral cutoff          0.2500000E+02      :
          :  -> integral neglect         0.1000000E-07      :
          :  -> SCF convergence          0.1000000E-05 Eh   :
          :  -> wf. convergence          0.2000000E-04 e    :
          :  Broyden damping             0.4000000          :
          ...................................................

 iter      E             dE          RMSdq      gap      omega  full diag
   1   -387.7934112 -0.387793E+03  0.103E+01    1.21       0.0  T
   2   -388.1108588 -0.317448E+00  0.636E+00    1.04       1.0  T
   3   -382.1633607  0.594750E+01  0.466E+00    0.83       1.0  T
   4   -388.9481215 -0.678476E+01  0.796E-01    1.58       1.0  T
   5   -389.2149739 -0.266852E+00  0.213E-01    1.37       1.0  T
   6   -389.2321653 -0.171914E-01  0.867E-02    1.41       1.0  T
   7   -389.2347029 -0.253758E-02  0.407E-02    1.39       1.0  T
   8   -389.2352033 -0.500468E-03  0.218E-02    1.39       1.0  T
   9   -389.2352687 -0.653542E-04  0.138E-02    1.40       1.0  T
  10   -389.2353216 -0.529505E-04  0.309E-03    1.40       2.4  T
  11   -389.2353231 -0.147710E-05  0.153E-03    1.40       4.8  T
  12   -389.2353240 -0.880977E-06  0.536E-04    1.40      13.7  T
  13   -389.2353240 -0.652849E-07  0.255E-04    1.40      28.7  T
  14   -389.2353241 -0.240380E-07  0.835E-05    1.40      87.5  T
  15   -389.2353241 -0.229920E-08  0.348E-05    1.40     210.2  T

   *** convergence criteria satisfied after 15 iterations ***

         #    Occupation            Energy/Eh            Energy/eV
      -------------------------------------------------------------
         1        2.0000           -1.0519628             -28.6254
       ...           ...                  ...                  ...
       305        2.0000           -0.3883859             -10.5685
       306        2.0000           -0.3883836             -10.5685
       307        2.0000           -0.3881496             -10.5621
       308        2.0000           -0.3881209             -10.5613
       309        2.0000           -0.3880149             -10.5584
       310        2.0000           -0.3879908             -10.5578
       311        2.0000           -0.3803139             -10.3489 (HOMO)
       312                         -0.3290057              -8.9527 (LUMO)
       313                         -0.3166247              -8.6158
       314                         -0.3150187              -8.5721
       315                         -0.3137889              -8.5386
       316                         -0.3137837              -8.5385
       ...                                ...                  ...
       779                        535.2216126           14564.1214
      -------------------------------------------------------------
                  HL-Gap            0.0513081 Eh            1.3962 eV
             Fermi-level           -0.3546598 Eh           -9.6508 eV

 SCC (total)                   0 d,  0 h,  0 min,  4.585 sec
 SCC setup                      ...        0 min,  0.005 sec (  0.106%)
 Dispersion                     ...        0 min,  0.007 sec (  0.151%)
 classical contributions        ...        0 min,  0.003 sec (  0.056%)
 integral evaluation            ...        0 min,  0.513 sec ( 11.183%)
 iterations                     ...        0 min,  2.867 sec ( 62.527%)
 molecular gradient             ...        0 min,  1.151 sec ( 25.097%)
 printout                       ...        0 min,  0.040 sec (  0.879%)

         :::::::::::::::::::::::::::::::::::::::::::::::::::::
         ::                     SUMMARY                     ::
         :::::::::::::::::::::::::::::::::::::::::::::::::::::
         :: total energy            -381.887402828699 Eh    ::
         :: gradient norm              0.063013461496 Eh/a0 ::
         :: HOMO-LUMO gap              1.396165732673 eV    ::
         ::.................................................::
         :: SCC energy              -389.235324075763 Eh    ::
         :: -> electrostatic           0.263540771032 Eh    ::
         :: repulsion energy           7.518257374424 Eh    ::
         :: dispersion energy         -0.170336127360 Eh    ::
         :: halogen bond corr.         0.000000000000 Eh    ::
         :: add. restraining           0.000000000000 Eh    ::
         :: total charge               0.000000000000 e     ::
         :::::::::::::::::::::::::::::::::::::::::::::::::::::

           ------------------------------------------------- 
          |        vertical delta SCC IP calculation        |
           ------------------------------------------------- 
   1   -388.8177358 -0.388818E+03  0.110E-01    1.40       0.0  T
   2   -388.7671948  0.505410E-01  0.388E-01    1.35       1.0  T
   3   -388.8110137 -0.438190E-01  0.197E-01    1.36       1.0  T
   4   -388.8215458 -0.105321E-01  0.994E-02    1.37       1.0  T
   5   -388.8243911 -0.284526E-02  0.611E-02    1.38       1.0  T
   6   -388.8244992 -0.108129E-03  0.570E-02    1.37       1.0  T
   7   -388.8263710 -0.187184E-02  0.358E-02    1.38       1.0  T
   8   -388.8265117 -0.140702E-03  0.223E-02    1.37       1.0  T
   9   -388.8265178 -0.611074E-05  0.207E-02    1.37       1.0  T
  10   -388.8265696 -0.518010E-04  0.170E-02    1.37       1.0  T
  11   -388.8266023 -0.326952E-04  0.133E-02    1.37       1.0  T
  12   -388.8266193 -0.169313E-04  0.109E-02    1.37       1.0  T
  13   -388.8266325 -0.131981E-04  0.864E-03    1.37       1.0  T
  14   -388.8266449 -0.124787E-04  0.567E-03    1.37       1.3  T
  15   -388.8266517 -0.672293E-05  0.322E-03    1.37       2.3  T
  16   -388.8266545 -0.283939E-05  0.117E-03    1.37       6.2  T
  17   -388.8266548 -0.318908E-06  0.537E-04    1.37      13.6  T
  18   -388.8266549 -0.844017E-07  0.163E-04    1.37      44.9  T
  19   -388.8266549 -0.611163E-08  0.699E-05    1.37     104.6  T
     SCC iter.                  ...        0 min,  3.624 sec
     gradient                   ...        0 min,  1.149 sec
------------------------------------------------------------------------
empirical IP shift (eV):    4.8455
delta SCC IP (eV):    6.2749
------------------------------------------------------------------------
           ------------------------------------------------- 
          |        vertical delta SCC EA calculation        |
           ------------------------------------------------- 
   1   -389.5016283 -0.389502E+03  0.203E-01    0.39       0.0  T
   2   -389.5165110 -0.148827E-01  0.182E-01    0.13       1.0  T
   3   -389.5309190 -0.144080E-01  0.100E-01    0.21       1.0  T
   4   -389.5287016  0.221738E-02  0.918E-02    0.16       1.0  T
   5   -389.5318838 -0.318216E-02  0.637E-02    0.18       1.0  T
   6   -389.5339072 -0.202337E-02  0.366E-02    0.16       1.0  T
   7   -389.5347303 -0.823126E-03  0.149E-02    0.18       1.0  T
   8   -389.5348862 -0.155948E-03  0.682E-03    0.17       1.1  T
   9   -389.5349174 -0.311692E-04  0.394E-03    0.18       1.9  T
  10   -389.5349246 -0.724679E-05  0.141E-03    0.18       5.2  T
  11   -389.5349252 -0.585606E-06  0.833E-04    0.18       8.8  T
  12   -389.5349254 -0.190098E-06  0.370E-04    0.18      19.8  T
  13   -389.5349255 -0.991974E-07  0.167E-04    0.18      43.9  T
  14   -389.5349255 -0.148666E-07  0.560E-05    0.18     130.6  T
     SCC iter.                  ...        0 min,  2.673 sec
     gradient                   ...        0 min,  1.146 sec
------------------------------------------------------------------------
empirical EA shift (eV):    4.8455
delta SCC EA (eV):    3.3071
------------------------------------------------------------------------
           -------------------------------------------------
          |                Property Printout                |
           -------------------------------------------------

    * Orbital Energies and Occupations

         #    Occupation            Energy/Eh            Energy/eV
      -------------------------------------------------------------
         1        2.0000           -0.9981355             -27.1606
       ...           ...                  ...                  ...
       300        2.0000           -0.3366366              -9.1603
       301        2.0000           -0.3361792              -9.1479
       302        2.0000           -0.3358766              -9.1397
       303        2.0000           -0.3358530              -9.1390
       304        2.0000           -0.3354968              -9.1293
       305        2.0000           -0.3352180              -9.1217
       306        2.0000           -0.3351519              -9.1199
       307        2.0000           -0.3312264              -9.0131
       308        2.0000           -0.3291140              -8.9556
       309        2.0000           -0.3285928              -8.9415
       310        2.0000           -0.3284598              -8.9378
       311        2.0000           -0.3224001              -8.7730
       312        0.9600           -0.2709843              -7.3739 (HOMO)
       313        0.0237           -0.2644331              -7.1956 (LUMO)
       314        0.0140           -0.2639191              -7.1816
       315        0.0023           -0.2621779              -7.1342
       316        0.0000           -0.2582035              -7.0261
       317                         -0.2504575              -6.8153
       318                         -0.2494604              -6.7882
       319                         -0.2482387              -6.7549
       320                         -0.2441995              -6.6450
       321                         -0.2435911              -6.6284
       322                         -0.2431795              -6.6173
       323                         -0.2372675              -6.4564
       ...                                ...                  ...
       779                        535.2789124           14565.6806
      -------------------------------------------------------------
                  HL-Gap            0.0065512 Eh            0.1783 eV
             Fermi-level           -0.2823283 Eh           -7.6825 eV

  Mulliken/CM5 charges         n(s)   n(p)   n(d)
     1Ni    0.27041  0.63815   0.573  0.785  8.372
     2C    -0.02608 -0.06747   1.079  2.947  0.000
     3C     0.05835  0.11894   1.111  2.831  0.000
     4C    -0.03959 -0.08614   1.085  2.954  0.000
     5C    -0.03708 -0.08314   1.079  2.958  0.000
     6C     0.05816  0.12228   1.102  2.840  0.000
     7N    -0.21166 -0.46249   1.314  3.897  0.000
     8C     0.00874  0.01402   1.084  2.907  0.000
     9C     0.01773  0.00880   1.097  2.885  0.000
    10C    -0.01716 -0.07041   1.080  2.937  0.000
    11C    -0.01081 -0.06259   1.092  2.919  0.000
    12C    -0.00930 -0.01776   1.098  2.911  0.000
    13C     0.14416  0.13400   1.202  2.654  0.000
    14O    -0.30136 -0.35683   1.651  4.650  0.000
    15C    -0.01674 -0.06987   1.085  2.931  0.000
    16C    -0.01868 -0.07206   1.077  2.941  0.000
    17C     0.05743  0.12080   1.100  2.842  0.000
    18C    -0.03707 -0.08310   1.077  2.960  0.000
    19C    -0.03665 -0.08225   1.084  2.953  0.000
    20N    -0.20792 -0.45863   1.317  3.891  0.000
    21C     0.06286  0.12805   1.116  2.821  0.000
    22C     0.01495  0.02182   1.078  2.907  0.000
    23C     0.06276  0.12788   1.116  2.821  0.000
    24C    -0.03650 -0.08211   1.083  2.953  0.000
    25C    -0.03688 -0.08298   1.077  2.960  0.000
    26C     0.05755  0.12096   1.100  2.842  0.000
    27N    -0.20797 -0.45862   1.316  3.892  0.000
    28C     0.00832  0.01359   1.084  2.908  0.000
    29C     0.01741  0.00850   1.097  2.886  0.000
    30C    -0.01866 -0.07202   1.077  2.941  0.000
    31C    -0.01692 -0.07005   1.085  2.932  0.000
    32C    -0.00918 -0.01764   1.098  2.911  0.000
    33C     0.14413  0.13398   1.202  2.654  0.000
    34O    -0.30118 -0.35665   1.651  4.650  0.000
    35C    -0.01070 -0.06249   1.092  2.919  0.000
    36C    -0.01684 -0.07009   1.080  2.936  0.000
    37C     0.05825  0.12233   1.103  2.839  0.000
    38C    -0.03689 -0.08303   1.079  2.958  0.000
    39C    -0.03950 -0.08606   1.085  2.955  0.000
    40C     0.05838  0.11896   1.111  2.831  0.000
    41N    -0.21162 -0.46261   1.314  3.897  0.000
    42H     0.02185  0.08090   0.978  0.000  0.000
    43H     0.02795  0.08460   0.972  0.000  0.000
    44H     0.02049  0.07950   0.980  0.000  0.000
    45H     0.02641  0.08415   0.974  0.000  0.000
    46H     0.03851  0.09872   0.961  0.000  0.000
    47H     0.03717  0.09889   0.963  0.000  0.000
    48H     0.04014  0.09680   0.960  0.000  0.000
    49H     0.02472  0.08245   0.975  0.000  0.000
    50H     0.02201  0.08108   0.978  0.000  0.000
    51H     0.02520  0.08345   0.975  0.000  0.000
    52H     0.02532  0.08354   0.975  0.000  0.000
    53H     0.02178  0.08083   0.978  0.000  0.000
    54H     0.02461  0.08250   0.975  0.000  0.000
    55H     0.03993  0.09659   0.960  0.000  0.000
    56H     0.03698  0.09870   0.963  0.000  0.000
    57H     0.03884  0.09905   0.961  0.000  0.000
    58H     0.02682  0.08467   0.973  0.000  0.000
    59H     0.02016  0.07914   0.980  0.000  0.000
    60H     0.02800  0.08465   0.972  0.000  0.000
    61Ni    0.27076  0.63765   0.573  0.784  8.373
    62C    -0.02562 -0.06702   1.080  2.946  0.000
    63C     0.05839  0.11897   1.111  2.831  0.000
    64C    -0.03941 -0.08597   1.085  2.954  0.000
    65C    -0.03702 -0.08309   1.079  2.958  0.000
    66C     0.05842  0.12254   1.102  2.839  0.000
    67N    -0.21159 -0.46215   1.315  3.897  0.000
    68C     0.00857  0.01384   1.084  2.908  0.000
    69C     0.01760  0.00866   1.097  2.885  0.000
    70C    -0.01720 -0.07043   1.081  2.937  0.000
    71C    -0.01085 -0.06264   1.092  2.919  0.000
    72C    -0.00933 -0.01780   1.098  2.911  0.000
    73C     0.14401  0.13384   1.202  2.654  0.000
    74O    -0.30154 -0.35700   1.651  4.650  0.000
    75C    -0.01680 -0.06992   1.085  2.932  0.000
    76C    -0.01871 -0.07210   1.077  2.942  0.000
    77C     0.05776  0.12116   1.100  2.842  0.000
    78C    -0.03694 -0.08297   1.077  2.960  0.000
    79C    -0.03643 -0.08203   1.084  2.953  0.000
    80N    -0.20791 -0.45844   1.316  3.892  0.000
    81C     0.06294  0.12810   1.116  2.821  0.000
    82C     0.01537  0.02223   1.078  2.906  0.000
    83C     0.06290  0.12800   1.116  2.821  0.000
    84C    -0.03621 -0.08182   1.084  2.952  0.000
    85C    -0.03664 -0.08274   1.077  2.960  0.000
    86C     0.05793  0.12136   1.101  2.841  0.000
    87N    -0.20797 -0.45838   1.316  3.892  0.000
    88C     0.00833  0.01359   1.084  2.908  0.000
    89C     0.01730  0.00838   1.097  2.886  0.000
    90C    -0.01872 -0.07209   1.077  2.941  0.000
    91C    -0.01698 -0.07011   1.085  2.932  0.000
    92C    -0.00916 -0.01762   1.098  2.911  0.000
    93C     0.14412  0.13398   1.202  2.654  0.000
    94O    -0.30097 -0.35643   1.651  4.650  0.000
    95C    -0.01063 -0.06242   1.092  2.919  0.000
    96C    -0.01688 -0.07013   1.080  2.936  0.000
    97C     0.05847  0.12254   1.103  2.839  0.000
    98C    -0.03681 -0.08295   1.079  2.958  0.000
    99C    -0.03936 -0.08592   1.085  2.955  0.000
   100C     0.05843  0.11902   1.111  2.831  0.000
   101N    -0.21146 -0.46226   1.314  3.897  0.000
   102H     0.02211  0.08116   0.978  0.000  0.000
   103H     0.02818  0.08483   0.972  0.000  0.000
   104H     0.02062  0.07964   0.979  0.000  0.000
   105H     0.02649  0.08423   0.974  0.000  0.000
   106H     0.03853  0.09875   0.961  0.000  0.000
   107H     0.03711  0.09884   0.963  0.000  0.000
   108H     0.04016  0.09682   0.960  0.000  0.000
   109H     0.02477  0.08250   0.975  0.000  0.000
   110H     0.02212  0.08119   0.978  0.000  0.000
   111H     0.02530  0.08357   0.975  0.000  0.000
   112H     0.02544  0.08367   0.975  0.000  0.000
   113H     0.02210  0.08115   0.978  0.000  0.000
   114H     0.02455  0.08244   0.975  0.000  0.000
   115H     0.03990  0.09656   0.960  0.000  0.000
   116H     0.03693  0.09865   0.963  0.000  0.000
   117H     0.03907  0.09927   0.961  0.000  0.000
   118H     0.02694  0.08476   0.973  0.000  0.000
   119H     0.02039  0.07938   0.980  0.000  0.000
   120H     0.02822  0.08487   0.972  0.000  0.000
   121C    -0.02451 -0.02537   1.063  2.961  0.000
   122C    -0.02629 -0.02807   1.087  2.939  0.000
   123C    -0.02777 -0.02859   1.060  2.967  0.000
   124C    -0.02286 -0.02454   1.091  2.932  0.000
   125C    -0.02754 -0.02837   1.060  2.967  0.000
   126C    -0.02213 -0.02382   1.092  2.930  0.000
   127C    -0.02382 -0.02468   1.063  2.961  0.000
   128C    -0.02594 -0.02773   1.087  2.939  0.000
   129Ni    0.26957  0.64048   0.572  0.783  8.375
   130C     0.01094  0.01790   1.075  2.914  0.000
   131C     0.06243  0.12759   1.116  2.821  0.000
   132C    -0.03877 -0.08435   1.082  2.956  0.000
   133C    -0.03747 -0.08356   1.078  2.960  0.000
   134C     0.05578  0.11917   1.098  2.846  0.000
   135N    -0.20881 -0.46042   1.315  3.894  0.000
   136C     0.01059  0.01585   1.085  2.904  0.000
   137C     0.01814  0.00927   1.097  2.885  0.000
   138C    -0.01661 -0.06985   1.080  2.937  0.000
   139C    -0.01082 -0.06260   1.092  2.919  0.000
   140C    -0.00906 -0.01752   1.098  2.911  0.000
   141C     0.14439  0.13424   1.202  2.654  0.000
   142O    -0.30162 -0.35711   1.651  4.650  0.000
   143C    -0.01640 -0.06951   1.085  2.931  0.000
   144C    -0.01771 -0.07098   1.078  2.940  0.000
   145C     0.05596  0.11931   1.099  2.845  0.000
   146C    -0.03691 -0.08302   1.078  2.959  0.000
   147C    -0.03847 -0.08407   1.083  2.956  0.000
   148N    -0.20912 -0.46054   1.315  3.894  0.000
   149C     0.06267  0.12785   1.116  2.821  0.000
   150C     0.01068  0.01763   1.074  2.915  0.000
   151C     0.06251  0.12766   1.116  2.821  0.000
   152C    -0.03880 -0.08439   1.083  2.956  0.000
   153C    -0.03746 -0.08354   1.078  2.960  0.000
   154C     0.05583  0.11921   1.098  2.846  0.000
   155N    -0.20907 -0.46060   1.315  3.894  0.000
   156C     0.01053  0.01580   1.085  2.904  0.000
   157C     0.01819  0.00932   1.097  2.885  0.000
   158C    -0.01771 -0.07101   1.078  2.940  0.000
   159C    -0.01637 -0.06948   1.085  2.931  0.000
   160C    -0.00913 -0.01759   1.098  2.911  0.000
   161C     0.14428  0.13413   1.202  2.654  0.000
   162O    -0.30195 -0.35744   1.651  4.651  0.000
   163C    -0.01091 -0.06269   1.092  2.919  0.000
   164C    -0.01661 -0.06982   1.080  2.936  0.000
   165C     0.05585  0.11920   1.099  2.846  0.000
   166C    -0.03705 -0.08317   1.078  2.959  0.000
   167C    -0.03851 -0.08411   1.082  2.956  0.000
   168C     0.06257  0.12777   1.116  2.821  0.000
   169N    -0.20885 -0.46047   1.315  3.894  0.000
   170H     0.02224  0.08039   0.978  0.000  0.000
   171H     0.01931  0.07824   0.981  0.000  0.000
   172H     0.02627  0.08417   0.974  0.000  0.000
   173H     0.03799  0.09821   0.962  0.000  0.000
   174H     0.03717  0.09890   0.963  0.000  0.000
   175H     0.04033  0.09700   0.960  0.000  0.000
   176H     0.02531  0.08320   0.975  0.000  0.000
   177H     0.01988  0.07883   0.980  0.000  0.000
   178H     0.02247  0.08063   0.978  0.000  0.000
   179H     0.02194  0.08010   0.978  0.000  0.000
   180H     0.01919  0.07812   0.981  0.000  0.000
   181H     0.02550  0.08336   0.974  0.000  0.000
   182H     0.04044  0.09710   0.960  0.000  0.000
   183H     0.03715  0.09888   0.963  0.000  0.000
   184H     0.03777  0.09800   0.962  0.000  0.000
   185H     0.02615  0.08408   0.974  0.000  0.000
   186H     0.01978  0.07873   0.980  0.000  0.000
   187H     0.02261  0.08076   0.977  0.000  0.000

Wiberg/Mayer (AO) data.
largest (>0.10) Wiberg bond orders for each atom

 ---------------------------------------------------------------------------
     #   Z sym  total        # sym  WBO       # sym  WBO       # sym  WBO
 ---------------------------------------------------------------------------
     1  28 Ni   3.315 --    20 N    0.712    27 N    0.712    41 N    0.711
                             7 N    0.711
     2   6 C    3.797 --     3 C    1.389    40 C    1.389    42 H    0.996
     3   6 C    3.945 --     2 C    1.389     7 N    1.255     4 C    1.202
     4   6 C    3.843 --     5 C    1.639     3 C    1.202    43 H    0.993
     5   6 C    3.830 --     4 C    1.639     6 C    1.209    44 H    0.999
     6   6 C    3.912 --     8 C    1.369     7 N    1.247     5 C    1.209
     7   7 N    3.002 --     3 C    1.255     6 C    1.247     1 Ni   0.711
     8   6 C    3.832 --     6 C    1.369    17 C    1.364     9 C    1.048
     9   6 C    3.901 --    16 C    1.419    10 C    1.414     8 C    1.048
    10   6 C    3.874 --    11 C    1.472     9 C    1.414    45 H    0.989
    11   6 C    3.893 --    10 C    1.472    12 C    1.389    46 H    0.988
    12   6 C    3.937 --    11 C    1.389    15 C    1.384    13 C    1.083
    13   6 C    4.002 --    14 O    1.940    12 C    1.083    47 H    0.955
    14   8 O    2.064 --    13 C    1.940
    15   6 C    3.889 --    16 C    1.467    12 C    1.384    48 H    0.982
    16   6 C    3.867 --    15 C    1.467     9 C    1.419    49 H    0.988
    17   6 C    3.898 --     8 C    1.364    20 N    1.238    18 C    1.220
    18   6 C    3.819 --    19 C    1.617    17 C    1.220    50 H    0.998
    19   6 C    3.831 --    18 C    1.617    21 C    1.231    51 H    0.998
    20   7 N    3.020 --    21 C    1.280    17 C    1.238     1 Ni   0.712
    21   6 C    3.917 --    22 C    1.293    20 N    1.280    19 C    1.231
    22   6 C    3.816 --    23 C    1.294    21 C    1.293   122 C    1.225
    23   6 C    3.918 --    22 C    1.294    27 N    1.279    24 C    1.231
    24   6 C    3.830 --    25 C    1.616    23 C    1.231    52 H    0.998
    25   6 C    3.819 --    24 C    1.616    26 C    1.221    53 H    0.998
    26   6 C    3.898 --    28 C    1.362    27 N    1.240    25 C    1.221
    27   7 N    3.020 --    23 C    1.279    26 C    1.240     1 Ni   0.712
    28   6 C    3.833 --    37 C    1.368    26 C    1.362    29 C    1.053
    29   6 C    3.900 --    30 C    1.417    36 C    1.413    28 C    1.053
    30   6 C    3.866 --    31 C    1.468    29 C    1.417    54 H    0.988
    31   6 C    3.889 --    30 C    1.468    32 C    1.383    55 H    0.982
    32   6 C    3.937 --    35 C    1.388    31 C    1.383    33 C    1.083
    33   6 C    4.001 --    34 O    1.940    32 C    1.083    56 H    0.955
    34   8 O    2.064 --    33 C    1.940
    35   6 C    3.892 --    36 C    1.472    32 C    1.388    57 H    0.988
    36   6 C    3.872 --    35 C    1.472    29 C    1.413    58 H    0.989
    37   6 C    3.913 --    28 C    1.368    41 N    1.247    38 C    1.209
    38   6 C    3.830 --    39 C    1.638    37 C    1.209    59 H    0.999
    39   6 C    3.842 --    38 C    1.638    40 C    1.202    60 H    0.993
    40   6 C    3.944 --     2 C    1.389    41 N    1.255    39 C    1.202
    41   7 N    3.002 --    40 C    1.255    37 C    1.247     1 Ni   0.711
    42   1 H    1.040 --     2 C    0.996
    43   1 H    1.026 --     4 C    0.993
    44   1 H    1.043 --     5 C    0.999
    45   1 H    1.053 --    10 C    0.989
    46   1 H    1.043 --    11 C    0.988
    47   1 H    1.012 --    13 C    0.955
    48   1 H    1.023 --    15 C    0.982
    49   1 H    1.055 --    16 C    0.988
    50   1 H    1.042 --    18 C    0.998
    51   1 H    1.037 --    19 C    0.998
    52   1 H    1.038 --    24 C    0.998
    53   1 H    1.043 --    25 C    0.998
    54   1 H    1.055 --    30 C    0.988
    55   1 H    1.023 --    31 C    0.982
    56   1 H    1.012 --    33 C    0.955
    57   1 H    1.043 --    35 C    0.988
    58   1 H    1.053 --    36 C    0.989
    59   1 H    1.044 --    38 C    0.999
    60   1 H    1.027 --    39 C    0.993
    61  28 Ni   3.314 --    80 N    0.712    87 N    0.712   101 N    0.711
                            67 N    0.711
    62   6 C    3.798 --    63 C    1.390   100 C    1.389   102 H    0.996
    63   6 C    3.944 --    62 C    1.390    67 N    1.255    64 C    1.202
    64   6 C    3.843 --    65 C    1.639    63 C    1.202   103 H    0.993
    65   6 C    3.829 --    64 C    1.639    66 C    1.209   104 H    0.999
    66   6 C    3.913 --    68 C    1.369    67 N    1.248    65 C    1.209
    67   7 N    3.002 --    63 C    1.255    66 C    1.248    61 Ni   0.711
    68   6 C    3.831 --    66 C    1.369    77 C    1.364    69 C    1.048
    69   6 C    3.900 --    76 C    1.419    70 C    1.414    68 C    1.048
    70   6 C    3.874 --    71 C    1.472    69 C    1.414   105 H    0.988
    71   6 C    3.893 --    70 C    1.472    72 C    1.389   106 H    0.988
    72   6 C    3.937 --    71 C    1.389    75 C    1.384    73 C    1.083
    73   6 C    4.001 --    74 O    1.939    72 C    1.083   107 H    0.955
    74   8 O    2.063 --    73 C    1.939
    75   6 C    3.889 --    76 C    1.467    72 C    1.384   108 H    0.982
    76   6 C    3.866 --    75 C    1.467    69 C    1.419   109 H    0.988
    77   6 C    3.899 --    68 C    1.364    80 N    1.239    78 C    1.220
    78   6 C    3.819 --    79 C    1.618    77 C    1.220   110 H    0.998
    79   6 C    3.831 --    78 C    1.618    81 C    1.230   111 H    0.998
    80   7 N    3.020 --    81 C    1.279    77 C    1.239    61 Ni   0.712
    81   6 C    3.918 --    82 C    1.296    80 N    1.279    79 C    1.230
    82   6 C    3.819 --    83 C    1.297    81 C    1.296   128 C    1.220
    83   6 C    3.918 --    82 C    1.297    87 N    1.278    84 C    1.230
    84   6 C    3.831 --    85 C    1.618    83 C    1.230   112 H    0.998
    85   6 C    3.819 --    84 C    1.618    86 C    1.220   113 H    0.998
    86   6 C    3.899 --    88 C    1.362    87 N    1.241    85 C    1.220
    87   7 N    3.019 --    83 C    1.278    86 C    1.241    61 Ni   0.712
    88   6 C    3.832 --    97 C    1.368    86 C    1.362    89 C    1.052
    89   6 C    3.900 --    90 C    1.417    96 C    1.413    88 C    1.052
    90   6 C    3.865 --    91 C    1.468    89 C    1.417   114 H    0.988
    91   6 C    3.889 --    90 C    1.468    92 C    1.383   115 H    0.982
    92   6 C    3.936 --    95 C    1.389    91 C    1.383    93 C    1.082
    93   6 C    4.001 --    94 O    1.940    92 C    1.082   116 H    0.955
    94   8 O    2.064 --    93 C    1.940
    95   6 C    3.892 --    96 C    1.472    92 C    1.389   117 H    0.988
    96   6 C    3.873 --    95 C    1.472    89 C    1.413   118 H    0.988
    97   6 C    3.913 --    88 C    1.368   101 N    1.248    98 C    1.209
    98   6 C    3.830 --    99 C    1.638    97 C    1.209   119 H    0.999
    99   6 C    3.842 --    98 C    1.638   100 C    1.202   120 H    0.993
   100   6 C    3.944 --    62 C    1.389   101 N    1.255    99 C    1.202
   101   7 N    3.002 --   100 C    1.255    97 C    1.248    61 Ni   0.711
   102   1 H    1.040 --    62 C    0.996
   103   1 H    1.026 --    64 C    0.993
   104   1 H    1.043 --    65 C    0.999
   105   1 H    1.053 --    70 C    0.988
   106   1 H    1.043 --    71 C    0.988
   107   1 H    1.012 --    73 C    0.955
   108   1 H    1.023 --    75 C    0.982
   109   1 H    1.055 --    76 C    0.988
   110   1 H    1.042 --    78 C    0.998
   111   1 H    1.037 --    79 C    0.998
   112   1 H    1.038 --    84 C    0.998
   113   1 H    1.043 --    85 C    0.998
   114   1 H    1.055 --    90 C    0.988
   115   1 H    1.023 --    91 C    0.982
   116   1 H    1.012 --    93 C    0.955
   117   1 H    1.043 --    95 C    0.988
   118   1 H    1.053 --    96 C    0.988
   119   1 H    1.044 --    98 C    0.999
   120   1 H    1.027 --    99 C    0.993
   121   6 C    3.806 --   122 C    2.493   123 C    1.334
   122   6 C    3.798 --   121 C    2.493    22 C    1.225   124 C    0.177
   123   6 C    3.804 --   124 C    2.491   121 C    1.334
   124   6 C    3.800 --   123 C    2.491   130 C    1.228   122 C    0.177
   125   6 C    3.804 --   126 C    2.496   127 C    1.329
   126   6 C    3.799 --   125 C    2.496   150 C    1.223   128 C    0.177
   127   6 C    3.806 --   128 C    2.498   125 C    1.329
   128   6 C    3.797 --   127 C    2.498    82 C    1.220   126 C    0.177
   129  28 Ni   3.306 --   169 N    0.710   155 N    0.710   135 N    0.710
                           148 N    0.710
   130   6 C    3.804 --   168 C    1.289   131 C    1.289   124 C    1.228
   131   6 C    3.920 --   130 C    1.289   135 N    1.282   132 C    1.232
   132   6 C    3.827 --   133 C    1.614   131 C    1.232   170 H    0.999
   133   6 C    3.822 --   132 C    1.614   134 C    1.223   171 H    0.998
   134   6 C    3.898 --   136 C    1.364   135 N    1.235   133 C    1.223
   135   7 N    3.006 --   131 C    1.282   134 C    1.235   129 Ni   0.710
   136   6 C    3.832 --   145 C    1.367   134 C    1.364   137 C    1.053
   137   6 C    3.901 --   144 C    1.417   138 C    1.413   136 C    1.053
   138   6 C    3.872 --   139 C    1.472   137 C    1.413   172 H    0.989
   139   6 C    3.893 --   138 C    1.472   140 C    1.389   173 H    0.988
   140   6 C    3.937 --   139 C    1.389   143 C    1.383   141 C    1.082
   141   6 C    4.002 --   142 O    1.940   140 C    1.082   174 H    0.955
   142   8 O    2.064 --   141 C    1.940
   143   6 C    3.889 --   144 C    1.468   140 C    1.383   175 H    0.982
   144   6 C    3.867 --   143 C    1.468   137 C    1.417   176 H    0.988
   145   6 C    3.899 --   136 C    1.367   148 N    1.234   146 C    1.222
   146   6 C    3.823 --   147 C    1.617   145 C    1.222   177 H    0.998
   147   6 C    3.828 --   146 C    1.617   149 C    1.231   178 H    0.999
   148   7 N    3.005 --   149 C    1.282   145 C    1.234   129 Ni   0.710
   149   6 C    3.921 --   150 C    1.292   148 N    1.282   147 C    1.231
   150   6 C    3.805 --   149 C    1.292   151 C    1.291   126 C    1.223
   151   6 C    3.921 --   150 C    1.291   155 N    1.281   152 C    1.231
   152   6 C    3.828 --   153 C    1.616   151 C    1.231   179 H    0.999
   153   6 C    3.823 --   152 C    1.616   154 C    1.222   180 H    0.998
   154   6 C    3.899 --   156 C    1.366   155 N    1.235   153 C    1.222
   155   7 N    3.006 --   151 C    1.281   154 C    1.235   129 Ni   0.710
   156   6 C    3.832 --   154 C    1.366   165 C    1.366   157 C    1.053
   157   6 C    3.901 --   158 C    1.418   164 C    1.412   156 C    1.053
   158   6 C    3.866 --   159 C    1.467   157 C    1.418   181 H    0.988
   159   6 C    3.889 --   158 C    1.467   160 C    1.384   182 H    0.982
   160   6 C    3.937 --   163 C    1.389   159 C    1.384   161 C    1.083
   161   6 C    4.002 --   162 O    1.940   160 C    1.083   183 H    0.955
   162   8 O    2.064 --   161 C    1.940
   163   6 C    3.893 --   164 C    1.472   160 C    1.389   184 H    0.988
   164   6 C    3.872 --   163 C    1.472   157 C    1.412   185 H    0.989
   165   6 C    3.898 --   156 C    1.366   169 N    1.234   166 C    1.223
   166   6 C    3.822 --   167 C    1.615   165 C    1.223   186 H    0.998
   167   6 C    3.828 --   166 C    1.615   168 C    1.232   187 H    0.999
   168   6 C    3.920 --   130 C    1.289   169 N    1.282   167 C    1.232
   169   7 N    3.006 --   168 C    1.282   165 C    1.234   129 Ni   0.710
   170   1 H    1.038 --   132 C    0.999
   171   1 H    1.044 --   133 C    0.998
   172   1 H    1.053 --   138 C    0.989
   173   1 H    1.043 --   139 C    0.988
   174   1 H    1.012 --   141 C    0.955
   175   1 H    1.023 --   143 C    0.982
   176   1 H    1.056 --   144 C    0.988
   177   1 H    1.045 --   146 C    0.998
   178   1 H    1.039 --   147 C    0.999
   179   1 H    1.039 --   152 C    0.999
   180   1 H    1.044 --   153 C    0.998
   181   1 H    1.056 --   158 C    0.988
   182   1 H    1.023 --   159 C    0.982
   183   1 H    1.012 --   161 C    0.955
   184   1 H    1.044 --   163 C    0.988
   185   1 H    1.053 --   164 C    0.989
   186   1 H    1.045 --   166 C    0.998
   187   1 H    1.038 --   167 C    0.999
 ---------------------------------------------------------------------------

Topologies differ in total number of bonds
Writing topology from bond orders to xtbtopo.mol

 dipole moment from electron density (au)
     X       Y       Z   
 -85.7208  -0.1610  -1.8656  total (Debye):  217.933


           -------------------------------------------------
          | TOTAL ENERGY             -382.187004290644 Eh   |
          | GRADIENT NORM               0.081784661548 Eh/α |
          | HOMO-LUMO GAP               0.178266943040 eV   |
           -------------------------------------------------
########################################################################
[WARNING] Runtime exception occurred
-1- restart_readRestart: Dimension missmatch in restart file.
########################################################################

------------------------------------------------------------------------
 * finished run on 2022/07/30 at 04:22:08.465     
------------------------------------------------------------------------
 total:
 * wall-time:     0 d,  0 h,  0 min, 14.826 sec
 *  cpu-time:     0 d,  0 h,  0 min, 14.751 sec
 * ratio c/w:     0.995 speedup
 SCF:
 * wall-time:     0 d,  0 h,  0 min, 14.318 sec
 *  cpu-time:     0 d,  0 h,  0 min, 14.251 sec
 * ratio c/w:     0.995 speedup

