213
 energy: -355.458212535469 gnorm: 0.000657506235 xtb: 6.5.1 (b24c23e)
Fe          30.97974019122279        0.06510736367602       -0.06201584632662
C           27.59999395661140        0.14171013392063       -0.13529345706055
C           28.24228290866385        0.88652352688711        0.83337426858160
C           27.56518390292449        1.64788699243198        1.83839143262781
C           28.51861243157750        2.33340125811122        2.51408972388640
C           29.77565780542205        2.00580076424111        1.90594185716726
N           29.59693442293457        1.07710093165009        0.91719344799313
C           30.98522024092268        2.61965408550240        2.22442008722909
C           30.98827559323688        3.71570031395911        3.21586063730354
C           30.19393399452689        4.85196881330770        3.03193645233347
C           30.20123095158429        5.87753077013124        3.95737818775261
C           30.99932445048466        5.79468296714662        5.10570348282793
N           30.92879136850487        6.82008170957153        6.03452039673638
C           32.03123275648634        7.03624415805553        6.96147978304970
C           31.78437313152967        4.65432293032192        5.30232941318189
C           31.78220765598156        3.63844395445371        4.36250918735310
C           32.18767769983900        2.24475416867924        1.63689824348895
C           33.43718158821003        2.90731491523508        1.86469796201904
C           34.38697439573562        2.18597467698209        1.21986101008201
N           32.37045940304876        1.16050924137944        0.81239964414547
C           33.71448361362563        1.09129887409901        0.59467732802846
C           34.38107643578955        0.03823714963975       -0.04596690590416
C           33.70474588130075       -1.01528300045164       -0.67619735827927
C           34.36557902172178       -2.13618184374416       -1.26615875089084
C           33.40775529744418       -2.86982755923457       -1.88462384181075
C           32.16645823952369       -2.18281433519758       -1.68550341457354
N           32.36083787159841       -1.07490820611961       -0.89484827237484
C           30.96550681462012       -2.54804237683291       -2.28127368869790
C           30.95241430862468       -3.68410809432935       -3.22651820903828
C           31.77130939023612       -3.68558311531828       -4.35801606535311
C           31.75971438193874       -4.74426794529600       -5.24936474436730
C           30.93409803073981       -5.84874408649364       -5.01747970077944
N           30.85194266910224       -6.91557963091591       -5.89755677916307
C           31.96972210987014       -7.21204335558847       -6.78315762840393
C           30.10725815711472       -5.85047964985563       -3.88663555174377
C           30.11433477663367       -4.78273059097008       -3.01028008430972
C           29.77056264648293       -1.87862492698630       -2.02387954762091
C           28.52711062628979       -2.16660214090449       -2.67811329674639
C           27.58140180771163       -1.40552405710264       -2.07655556896939
C           28.24940972758269       -0.64694759157265       -1.06317587501144
N           29.59502219107461       -0.90924553623889       -1.07525174937759
H           26.51639196248939        0.17012231327666       -0.16233834835741
H           26.49801508140458        1.64372158209560        1.99473504642166
H           28.39248147802980        2.99919477840265        3.35242925856622
H           29.58600011018189        4.93983326270365        2.13815450153403
H           29.58745125991944        6.75771718683720        3.79718501109029
H           30.57497805711342        7.68430499502246        5.64279739369595
H           32.98965860622727        7.11448892314748        6.43576962171135
H           32.08198340067452        6.21710205210638        7.68001966973971
H           31.83989613857345        7.96310360703759        7.50214659363015
H           32.39617716072314        4.55258309436494        6.19025927800847
H           32.38738617012626        2.75450502770898        4.53227182807207
H           33.56207730187498        3.81219684474968        2.43696229712556
H           35.44881947362471        2.36544747374133        1.16656269910736
H           35.42514520862308       -2.32627987734433       -1.20506427019308
H           33.52303130192934       -3.79603937635128       -2.42375938879716
H           32.40786690864817       -2.82999574861506       -4.55587449481478
H           32.39289892958264       -4.70396625217071       -6.12716920044073
H           30.46146101035518       -7.74799322551408       -5.47305868444376
H           32.06491005576370       -6.43190970142182       -7.53956155021871
H           31.76212668236483       -8.15845280602151       -7.28234895565568
H           32.91161475782353       -7.29353335857187       -6.22885936359939
H           29.46006346870871       -6.70118810153416       -3.70078249211576
H           29.48280006966696       -4.80713780499812       -2.12894918421432
H           28.40546458664348       -2.85749213760805       -3.49661368821676
H           26.52450117951373       -1.35203872220024       -2.28489374841412
Fe          68.05789137673617        0.01992383102241       -0.02584920362394
C           71.43672037163839        0.09733824061641       -0.15933041089010
C           70.79510900925969       -1.01251095336839       -0.67098035596489
C           71.47339720346854       -2.14960374834508       -1.21446653859752
C           70.51898346942943       -2.96022948054786       -1.73152190844300
C           69.25960668213379       -2.30733393768996       -1.51923102162540
N           69.43904423071564       -1.14483436105170       -0.82057514308114
C           68.04545493818704       -2.76050207815274       -2.03059099800069
C           68.04088972398735       -3.95696237243422       -2.89830235415267
C           68.81049014015427       -3.99803743195846       -4.06525980952730
C           68.79829684995077       -5.11232162314633       -4.88165538659067
C           68.02015015893768       -6.22900714585575       -4.55030904967637
N           68.08316267455115       -7.34468369653488       -5.36952015621133
C           66.98925702331192       -8.30640432277526       -5.36827526480478
C           67.26240357553695       -6.20047271267706       -3.37547647494399
C           67.26899292890369       -5.07412656771195       -2.57131985250068
C           66.83981698797544       -2.12330684595808       -1.76291264234079
C           65.58264096233444       -2.50459654616422       -2.33419881960230
C           64.63473067534467       -1.73409912435181       -1.74609935856744
N           66.66199576895553       -1.08956182655042       -0.87486065239862
C           65.31587551866801       -0.87946399021340       -0.82576765395565
C           64.65716656096487       -0.03104466522485        0.07418873487299
C           65.34166974493310        0.82341480287008        0.94913843953939
C           64.69093171608557        1.64128253282819        1.92312912683978
C           65.65074221020174        2.42191432083996        2.47776102858391
C           66.88278968583474        2.08932340411683        1.82664751901366
N           66.68281586660537        1.06603632667684        0.93063418643898
C           68.07910020735163        2.76877200192816        2.02215636022048
C           68.08978696674298        3.95394150261309        2.90491315755238
C           67.24734524261430        5.03941022028209        2.65361240368012
C           67.25382943270378        6.15581534074622        3.47134324975355
C           68.09866092766963        6.20604726873292        4.58441542735320
N           68.17549458345952        7.31489573970398        5.41167054249669
C           67.04222490929661        8.22482332378341        5.50893986971435
C           68.94913824171380        5.12232183367016        4.83853472881420
C           68.94633253902930        4.01799074264340        4.00856650629857
C           69.26868644963007        2.37755264719676        1.41092616863750
C           70.50834159847352        3.08962904824703        1.52673099308963
C           71.45283578917950        2.33579454699648        0.91423868014539
C           70.78709935221379        1.17198827982614        0.41342350506539
N           69.44422905884886        1.23357668338310        0.68195967319644
H           72.51966622756851        0.12461479407361       -0.20643176460890
H           72.54216119280937       -2.29314701555468       -1.19310596505704
H           70.64561637537865       -3.91761277800205       -2.21048246965366
H           69.40209891817736       -3.13341442355325       -4.34558875728434
H           69.39199978252211       -5.12662573745342       -5.78962702048544
H           68.41022157792446       -7.12990375869937       -6.30360799674289
H           66.02203102471695       -7.81598421098281       -5.52664059194058
H           66.96690518056397       -8.84622512533580       -4.42069120024546
H           67.16742402751919       -9.02036302928802       -6.17232390412820
H           66.66797217669016       -7.05689994441453       -3.08180168009111
H           66.68470075706375       -5.06848023184422       -1.65755225997058
H           65.45126284469224       -3.25858387976599       -3.09321070991903
H           63.56894459700035       -1.73546855323376       -1.90934776575390
H           63.63622878714595        1.61033244662774        2.14499752072228
H           65.54287643681704        3.15399758284608        3.26150713549119
H           66.59544833831183        5.01783743557525        1.78704118425376
H           66.60152529150184        6.98780849130012        3.23610984430107
H           68.58390967318667        7.10569881696827        6.31446811219967
H           66.92139465462586        8.77303889141798        4.57370472743059
H           67.24994699524451        8.93770116406292        6.30682264628323
H           66.11367527985048        7.68827562490775        5.73476583442465
H           69.61129663527051        5.15429050587088        5.69738675436676
H           69.59603462827930        3.17830884119081        4.22990283371654
H           70.62879736947632        4.04579774918444        2.00971615175158
H           72.50724144479655        2.53371320762627        0.80298226929079
C           35.78030479097682        0.03139262990597       -0.04649476051314
C           37.00717995316066        0.02348527867148       -0.04694376916922
C           38.34606261896193        0.01637980849659       -0.04747433055366
C           39.57927704563669        0.00357116528797       -0.04680274093444
C           40.91336767527102       -0.00084058559748       -0.04574047008183
C           42.14666372138537       -0.00947813629395       -0.04279870315467
C           43.48534986873675       -0.01309345561827       -0.04305765228343
C           44.71246692458859       -0.01425626442241       -0.04155558455729
C           54.32593242550388       -0.01256768472804        0.07890014096555
C           55.55287207388830       -0.02058734258882        0.09758445783164
C           56.89156390140577       -0.02817748807512        0.11293596435590
C           58.12482604119823       -0.03493615056694        0.12183920729591
C           59.45903500592377       -0.03685649872477        0.12654239834259
C           60.69229571239865       -0.03975361416448        0.12446674424448
C           62.03129068441492       -0.03996240469299        0.11513669573930
C           63.25808192871963       -0.03837184197193        0.10068542677522
Fe          49.51938715045355        0.00896391227917       -0.01152454185335
C           46.11094223620800       -0.00706418093654       -0.03598786647150
C           46.79357615263336       -1.09554736396316       -0.59661558012175
C           46.13898989812731       -2.24234513735774       -1.14078350316535
C           47.10206843630103       -2.99569206848755       -1.72789125220641
C           48.33920663240998       -2.29784644900877       -1.54758242803668
N           48.13914895822236       -1.16001360157181       -0.80565087701018
C           49.54786978802692       -2.68743056598346       -2.11645921576171
C           49.56131705115482       -3.84813648696372       -3.03059521730831
C           50.37799925343282       -4.95349329809916       -2.77075808971809
C           50.39421394130871       -6.03703832939402       -3.62696169119003
C           49.60576700311915       -6.04136604791369       -4.78526927447938
N           49.62663420087785       -7.16608792201045       -5.59221262963898
C           49.22329224021686       -7.06942038887113       -6.98808424083354
C           48.78243445649797       -4.94139108486274       -5.04654186362565
C           48.76153920917029       -3.86629791939819       -4.17555578793476
C           50.74679214170710       -2.03037331948041       -1.85718684492309
C           51.99789480380365       -2.36479612745075       -2.46789259075527
C           52.94636790587999       -1.61575515983612       -1.85207240442921
N           50.92427743161063       -1.03903877863284       -0.92371683771407
C           52.26837908216309       -0.81749084891568       -0.88131431670137
C           52.92767530710909       -0.00471095500260        0.05181185811717
C           52.24015842584564        0.82182538817794        0.95130105028855
C           52.88837212624327        1.63166160102732        1.93279888092537
C           51.92581185960598        2.40662665502429        2.49209470460879
C           50.69568663619633        2.07179496263851        1.84047179458599
N           50.89776271581367        1.05943770898332        0.93565106320820
C           49.49243317607828        2.73979009072629        2.04839594501990
C           49.48633502937625        3.92390933827620        2.93174110165138
C           48.65608838274933        3.97765758740778        4.05368270032827
C           48.65665380367226        5.07808479120397        4.89260323421550
C           49.49089397651083        6.16743238373348        4.62190958328703
N           49.49270400629803        7.31544748943309        5.39598337884929
C           49.05379539062624        7.25731037612568        6.78342128736455
C           50.31204609842188        6.12618968938039        3.48745036211007
C           50.31534915508161        5.01794098810026        2.66332141901143
C           48.29722174770350        2.33408351278945        1.46317889652619
C           47.05139217887529        3.02401975982176        1.61193172947347
C           46.10207198250063        2.24530083283156        1.03565534547737
C           46.77466272465588        1.09447187586736        0.52296252516677
N           48.11676395724184        1.17788490849701        0.74434401412955
H           45.07961684779337       -2.43253026694693       -1.07755726397766
H           46.99274841369611       -3.94197922702852       -2.23215147931060
H           50.98645211015972       -4.96844488457239       -1.87318846297008
H           51.02101751356532       -6.89448487994102       -3.40578836401688
H           50.45773775152657       -7.73031481608183       -5.46463248217726
H           48.15403222219445       -6.86510970692776       -7.05536105144047
H           49.77492938845330       -6.28104910863269       -7.51282667518341
H           49.42573030501448       -8.02875423062044       -7.46417953957143
H           48.15679170422079       -4.91816663481011       -5.93018690255803
H           48.13439785537045       -3.01055682846190       -4.40041814372373
H           52.12671303215546       -3.07624239139879       -3.26723160993268
H           54.00960783687787       -1.59596752962978       -2.02977912438336
H           53.94338375461709        1.60339032119398        2.15327942438924
H           52.03121232359993        3.13476919585673        3.27975559962116
H           48.01977169751740        3.13074084966747        4.28629129230984
H           48.00599299785701        5.08332356773467        5.75833051868910
H           50.32929065472239        7.87305598521248        5.27499634172208
H           49.58382960776157        6.47633827458347        7.34037617799640
H           49.25455377645356        8.22586098147599        7.24116242976816
H           47.98108569585921        7.06530957027848        6.82859452402108
H           50.94904018112640        6.97423115267714        3.25944704642082
H           50.94977246898472        5.00361580601074        1.78391897159408
H           46.92665593741486        3.98157189640743        2.09062584802935
H           45.04152211763365        2.42285891484886        0.95746086707687
