205
 energy: -304.824374901084 gnorm: 42.581314478898 xtb: 6.5.1 (b24c23e)
Zn          34.86595100000000        1.97339500000000        1.62074500000000
C           31.11486000000000        0.07991100000000       -0.03889500000000
C           31.76449200000000        0.93311200000000        0.75821300000000
C           31.09978600000000        1.85175100000000        1.67455300000000
C           32.02999100000000        2.56491000000000        2.28181800000000
C           33.34222200000000        2.14392000000000        1.77170300000000
N           33.18042400000000        1.09974400000000        0.81081200000000
C           34.52763500000000        2.67420900000000        2.13828300000000
C           34.56149800000000        3.78769200000000        3.11417400000000
C           34.07369599999999        5.05479800000000        2.76350400000000
C           34.12189500000000        6.10665100000000        3.68221300000000
C           34.66295200000000        5.91220100000000        4.96299400000000
N           34.69940700000000        7.01552200000000        5.88698800000000
C           35.24081899999999        6.91797700000000        7.23851000000000
C           35.15837300000000        4.63992100000000        5.30848200000000
C           35.10877100000000        3.58815300000000        4.38909700000000
C           35.82677400000000        2.19569000000000        1.59667000000000
C           37.10357600000000        2.88977300000000        1.80448700000000
C           38.04803000000000        2.18003700000000        1.22121600000000
N           35.98293200000000        1.10605200000000        0.90916300000000
C           37.38103900000000        1.02551800000000        0.63196800000000
C           37.98782100000000        0.01414600000000       -0.01025900000000
C           37.23720100000000       -1.11933000000000       -0.59475200000000
C           37.77893400000000       -2.28675600000000       -0.91814100000000
C           36.74686800000000       -3.07804900000000       -1.55956000000000
C           35.64390800000000       -2.33897500000000       -1.58985500000000
N           35.86357599999999       -1.06597100000000       -0.98017400000000
C           34.37335399999999       -2.75465200000000       -2.23747600000000
C           34.41190700000000       -3.85567900000000       -3.23068800000000
C           35.15762299999999       -3.71230200000000       -4.40935100000000
C           35.21465600000000       -4.75310300000000       -5.34070000000000
C           34.52876799999999       -5.95986500000000       -5.10348000000000
N           34.56750899999999       -7.05021300000000       -6.04266400000000
C           35.30423400000000       -7.00456700000000       -7.30138200000000
C           33.79119800000000       -6.10097000000000       -3.91750900000000
C           33.73549400000000       -5.06024400000000       -2.98666300000000
C           33.20459000000000       -2.15238100000000       -1.94509800000000
C           31.90421400000000       -2.44915200000000       -2.54364900000000
C           31.03191600000000       -1.67289600000000       -1.93008400000000
C           31.76666900000000       -0.87219300000000       -0.95216800000000
N           33.03355000000000       -1.14321000000000       -0.95206000000000
H           30.03126100000000        0.08288900000000       -0.02042500000000
H           30.03434500000000        1.94119600000000        1.84363700000000
H           31.83062600000000        3.32391600000000        3.02690100000000
H           33.65796700000000        5.22684600000000        1.77818700000000
H           33.73811200000000        7.07721200000000        3.39392400000000
H           34.31982800000000        7.94126500000000        5.58377400000000
H           36.31313299999999        6.63317600000000        7.19673400000000
H           34.67081800000000        6.16380700000000        7.82076900000000
H           35.15484699999999        7.89961200000000        7.75058100000000
H           35.58488500000000        4.45202600000000        6.28424100000000
H           35.49586900000000        2.61637900000000        4.67060400000000
H           37.26343300000000        3.81867500000000        2.33598600000000
H           39.10020400000000        2.43098600000000        1.20191000000000
H           38.80566200000000       -2.58951300000000       -0.76190600000000
H           36.86618699999999       -4.07561500000000       -1.96207100000000
H           35.69268500000000       -2.79157500000000       -4.60795000000000
H           35.79600900000000       -4.60808100000000       -6.24088100000000
H           34.04249200000000       -7.92673800000000       -5.82116700000000
H           34.91586200000000       -6.18146200000000       -7.93728800000000
H           35.17769800000000       -7.96347400000000       -7.84701100000000
H           36.38550099999999       -6.85107000000000       -7.10137900000000
H           33.25993700000000       -7.02182200000000       -3.71208000000000
H           33.16841500000000       -5.19366300000000       -2.07347900000000
H           31.67389900000000       -3.15477800000000       -3.33092500000000
H           29.96868900000000       -1.64116300000000       -2.12877300000000
Zn          64.13958400000000       -2.00506500000000       -1.56641400000000
C           67.89067500000000        0.02774200000000       -0.08068800000000
C           67.24104199999999       -0.93632700000000       -0.73940200000000
C           67.90574900000000       -2.03103500000000       -1.43596100000000
C           66.97554400000000       -2.77927800000000       -1.99943100000000
C           65.66331300000000       -2.18959400000000       -1.69989200000000
N           65.82511100000001       -1.02401800000000       -0.89054200000000
C           64.47790000000001       -2.66305000000000       -2.13741600000000
C           64.44403699999999       -3.85838800000000       -3.01113000000000
C           64.93183900000000       -3.79264900000000       -4.32422000000000
C           64.88364000000000       -4.91873400000000       -5.15026600000000
C           64.34258300000000       -6.12622500000000       -4.68103500000000
N           64.30612800000000       -7.26869900000000       -5.55615600000000
C           63.76471600000000       -8.56637000000000       -5.16606000000000
C           63.84716199999999       -6.18577700000000       -3.36402700000000
C           63.89676399999999       -5.05905100000000       -2.53821100000000
C           63.17876100000000       -2.03007500000000       -1.78860700000000
C           61.90195900000000       -2.38433300000000       -2.42061900000000
C           60.95750500000000       -1.66025200000000       -1.85525400000000
N           63.02260299999999       -1.12137600000000       -0.87523700000000
C           61.62449500000000       -0.83328700000000       -0.85712800000000
C           61.01771300000000        0.01414600000000       -0.01025900000000
C           61.76833299999999        0.83187800000000        0.96836900000000
C           61.22659999999999        1.40220700000000        2.03710100000000
C           62.25866599999999        2.20083000000000        2.66937000000000
C           63.36162700000000        2.06912900000000        1.94149400000000
N           63.14195900000000        1.19637100000000        0.83219600000000
C           64.63218000000001        2.79184600000000        2.20584500000000
C           64.59362800000000        4.00136900000000        3.06362300000000
C           63.84791100000000        5.12034600000000        2.66651800000000
C           63.79087900000000        6.25635600000000        3.47901900000000
C           64.47676700000000        6.28816700000000        4.70846500000000
N           64.43802599999999        7.44263400000000        5.56761100000000
C           63.70130099999999        8.66106200000000        5.24841300000000
C           65.21433700000000        5.16156200000000        5.10494800000000
C           65.27004100000001        4.02605900000000        4.29240900000000
C           65.80094400000000        2.37509800000000        1.68188300000000
C           67.10132100000000        3.02398200000000        1.84089900000000
C           67.97361900000000        2.25582200000000        1.21722700000000
C           67.23886600000000        1.12675700000000        0.64919800000000
N           65.97198500000000        1.18578800000000        0.91370900000000
H           68.97427399999999        0.00906700000000       -0.07956400000000
H           68.97119000000001       -2.21556100000000       -1.48635700000000
H           67.17490800000000       -3.67202100000000       -2.57757100000000
H           65.34756700000000       -2.86861500000000       -4.70711700000000
H           65.26742299999999       -4.84916800000000       -6.16034500000000
H           64.68570699999999       -7.17478800000000       -6.52575300000000
H           62.69240200000000       -8.46345800000000       -4.89723700000000
H           64.33471700000000       -8.97004000000000       -4.30301400000000
H           63.85068800000000       -9.28029600000000       -6.01230900000000
H           63.42065000000000       -7.09702600000000       -2.96774900000000
H           63.50966600000000       -5.12173400000000       -1.52842800000000
H           61.74210200000000       -3.10571100000000       -3.21116600000000
H           59.90533100000000       -1.69616800000000       -2.10437000000000
H           60.19987300000000        1.31579800000000        2.36665300000000
H           62.13934800000000        2.81131000000000        3.55507100000000
H           63.31284900000000        5.11325800000000        1.72464200000000
H           63.20952599999999        7.10320300000000        3.14107300000000
H           64.96304300000000        7.41773100000000        6.47134600000000
H           64.08967300000000        9.10204400000000        4.30638800000000
H           63.82783700000000        9.40277700000000        6.06515900000000
H           62.62003300000000        8.43238500000000        5.14225500000000
H           65.74559800000000        5.16201200000000        6.04843600000000
H           65.83712000000000        3.16399100000000        4.62186900000000
H           67.33163600000000        3.94625500000000        2.35774000000000
H           69.03684599999998        2.44280000000000        1.14290500000000
C           41.77365399999999        0.02658200000000       -0.00781700000000
C           40.52138400000000        0.00740100000000       -0.01216600000000
C           43.08732199999999        0.02581600000000       -0.00588500000000
C           44.59045600000000        0.00740100000000       -0.01216600000000
C           55.75735499999999        0.02658200000000       -0.00781700000000
C           54.50508499999999        0.00740100000000       -0.01216600000000
C           57.07102299999999        0.02581600000000       -0.00588500000000
C           58.57415700000000        0.00740100000000       -0.01216600000000
Zn          49.82995999999999       -2.03353400000000       -1.58538600000000
C           46.06630800000000       -0.02963700000000        0.02233100000000
C           46.72327000000000       -0.98821700000000       -0.65607900000000
C           46.08158299999999       -2.09413800000000       -1.37073500000000
C           47.02055200000000       -2.80458900000000       -1.96316000000000
C           48.31974999999999       -2.19723500000000       -1.65981200000000
N           48.14140600000000       -1.04874700000000       -0.82782700000000
C           49.50342799999999       -2.63927200000000       -2.13137000000000
C           49.52983499999999       -3.81134400000000       -3.03104700000000
C           49.61433400000000       -5.10482800000000       -2.50003800000000
C           49.64423799999999       -6.21262900000000       -3.35149900000000
C           49.59279500000000       -6.04452200000000       -4.74485200000000
N           49.62463900000000       -7.20533600000000       -5.59590300000000
C           49.57482200000000       -7.13791800000000       -7.05264800000000
C           49.51123900000000       -4.74062700000000       -5.27271100000000
C           49.47989999999999       -3.63347000000000       -4.41990100000000
C           50.80385400000000       -2.00872700000000       -1.79478400000000
C           52.07828199999999       -2.38139700000000       -2.42146900000000
C           53.03134699999999       -1.67564200000000       -1.84779600000000
N           50.96996000000000       -1.11290800000000       -0.87221500000000
C           52.37236500000000       -0.84768500000000       -0.84573500000000
C           52.98749400000000       -0.02963700000000        0.02233100000000
C           52.23875400000000        0.77272700000000        1.01321900000000
C           52.77597300000000        1.31456100000000        2.09893700000000
C           51.74294399999999        2.10330200000000        2.74132400000000
C           50.64501300000000        1.99204600000000        2.00239200000000
N           50.86763499999999        1.14511600000000        0.87574900000000
C           49.38554800000000        2.73176600000000        2.25682100000000
C           49.44374000000000        3.95806000000000        3.08887800000000
C           48.78394600000000        4.01192300000000        4.32545300000000
C           48.85425100000000        5.16430900000000        5.11376600000000
C           49.59221300000000        6.28178500000000        4.67791600000000
N           49.68189100000000        7.48436400000000        5.46445600000000
C           49.03756300000000        7.64826400000000        6.76339800000000
C           50.25813700000000        6.21746400000000        3.44398300000000
C           50.18867400000000        5.06439800000000        2.65759600000000
C           48.21092600000000        2.32534600000000        1.73785600000000
C           46.93091800000000        3.01254100000000        1.87424800000000
C           46.04217800000000        2.25597700000000        1.26412600000000
C           46.74295700000000        1.08355500000000        0.72870300000000
N           48.01118200000000        1.11966400000000        0.99947700000000
H           45.02389200000000       -2.31445600000000       -1.42804700000000
H           46.83582100000000       -3.68233700000000       -2.56901600000000
H           49.65603200000000       -5.25423600000000       -1.42778100000000
H           49.70767299999999       -7.20538600000000       -2.92339800000000
H           49.68680100000000       -8.15202100000000       -5.15759400000000
H           48.63169599999999       -6.64969200000000       -7.37708100000000
H           50.44744200000000       -6.56735100000000       -7.43487600000000
H           49.60791900000000       -8.16322900000000       -7.47847400000000
H           49.47175399999999       -4.57033700000000       -6.33996100000000
H           49.41857600000000       -2.63708200000000       -4.84094800000000
H           52.23179000000000       -3.10747000000000       -3.20872100000000
H           54.08476599999999       -1.73116600000000       -2.08744600000000
H           53.79972699999999        1.21514100000000        2.43381900000000
H           51.85975899999999        2.70020600000000        3.63646300000000
H           48.21787100000000        3.15900200000000        4.67973000000000
H           48.33274700000000        5.17380700000000        6.06088600000000
H           50.23443000000000        8.29024400000000        5.09325400000000
H           49.42640399999999        6.89135400000000        7.47646900000000
H           49.25388000000000        8.66004900000000        7.16705100000000
H           47.93817700000000        7.53817500000000        6.65641700000000
H           50.83428599999999        7.06329300000000        3.08994600000000
H           50.71126000000000        5.03538400000000        1.70916400000000
H           46.72486600000000        3.95572300000000        2.36279700000000
H           44.98908500000000        2.48683300000000        1.17873300000000
205
 energy: -324.872129329862 gnorm: 9.366146896860 xtb: 6.5.1 (b24c23e)
Zn          34.80998450541157        1.82742938632493        1.53579719749918
C           31.11491567793133        0.07943251083059       -0.03935773981060
C           31.76490723984979        0.93333026048188        0.75839674083956
C           31.09960131065991        1.85150123255680        1.67433278865668
C           32.03012857705560        2.56506794818236        2.28199150448124
C           33.33514683555715        2.14384286074320        1.77189248715986
N           33.17989708814537        1.10016358876543        0.81120459538090
C           34.47067176562106        2.79388529781713        2.22673075542157
C           34.56104968012049        3.78855292357227        3.11478399677970
C           34.07372699194126        5.05494350007371        2.76373489522497
C           34.12190630098117        6.10655256712643        3.68217312107749
C           34.66297895535528        5.91253930934701        4.96332257362819
N           34.69929103912079        7.01541707947938        5.88660491715047
C           35.24082453021556        6.91796459695188        7.23851320133723
C           35.15834857420123        4.63990244581373        5.30838599862559
C           35.10874226349164        3.58839570486718        4.38916399022561
C           35.94396064430288        2.22351071124685        1.59431250142362
C           37.10409553501353        2.89003293644159        1.80458647284798
C           38.04833359451907        2.17964746464423        1.22090993460692
N           35.98555551277177        1.10369544205273        0.90721380273533
C           37.38137227147890        1.02565870272130        0.63201890674771
C           37.98761707546824        0.01341103016909       -0.01060849922678
C           37.23704201334719       -1.11804839396789       -0.59442269054054
C           37.77897900183581       -2.28799760410006       -0.91865878351316
C           36.74812498223372       -3.07830718514774       -1.55933138070854
C           35.64301452533851       -2.33802603281831       -1.58979540796508
N           35.86376618745167       -1.06642834891502       -0.98035352362972
C           34.37386402918727       -2.75455380168324       -2.23730129780154
C           34.41197149677532       -3.85568432866867       -3.23064369435072
C           35.15757921993066       -3.71248938531088       -4.40937226699906
C           35.21459775647166       -4.75309126983451       -5.34060221727180
C           34.52880245325498       -5.96014595448110       -5.10376599834043
N           34.56735311159047       -7.05014277916221       -6.04233379503601
C           35.30423328089496       -7.00455695452273       -7.30137141683513
C           33.79122500185728       -6.10087130058451       -3.91748022770080
C           33.73554317742380       -5.06027823483624       -2.98683899202587
C           33.20435055052024       -2.15214854903732       -1.94491355638985
C           31.90448815599729       -2.44933063726903       -2.54377025230804
C           31.03156319003852       -1.67265018292207       -1.92990449288319
C           31.76620880994844       -0.87192354099720       -0.95192375265493
N           33.03374050340729       -1.14352481968205       -0.95236217093301
H           30.03125403468033        0.08287589898189       -0.02044658071446
H           30.03435653074819        1.94114752474207        1.84358965176521
H           31.83071861394031        3.32393441810962        3.02690692676974
H           33.65796135021341        5.22683399240359        1.77817820048061
H           33.73811352087167        7.07722563283993        3.39393237415709
H           34.31996262786956        7.94090387175727        5.58385638364416
H           36.31300867505749        6.63319664687566        7.19676341939017
H           34.67090497817075        6.16388792287179        7.82071816984586
H           35.15484451741218        7.89947460531055        7.75047107851889
H           35.58488510261518        4.45204049266552        6.28425427273248
H           35.49586863093895        2.61635125333417        4.67060207291339
H           37.26331934348156        3.81870812976405        2.33602776176647
H           39.10019503730714        2.43090356611507        1.20186201474852
H           38.80564912306055       -2.58952334778294       -0.76190461458089
H           36.86620911758930       -4.07561151911149       -1.96204359718945
H           35.69267989363174       -2.79157510616238       -4.60794168948222
H           35.79600988357463       -4.60809525785313       -6.24089871368181
H           34.04267974930809       -7.92639395270463       -5.82122161434372
H           34.91593161306643       -6.18155092052559       -7.93723067705410
H           35.17769704996086       -7.96334085679811       -7.84690276524503
H           36.38538397733963       -6.85107424762306       -7.10142799383376
H           33.25993701749778       -7.02184048469889       -3.71208873696694
H           33.16842001932976       -5.19365438371180       -2.07347688703756
H           31.67398140272672       -3.15478018077456       -3.33091265192771
H           29.96868078962468       -1.64111679656401       -2.12872987205490
Zn          64.19555292713613       -1.89031324915093       -1.44250001006691
C           67.89061854772577        0.02830049515173       -0.08032036220639
C           67.24062807851097       -0.93655620274978       -0.73957613977811
C           67.90593424353658       -2.03076314891230       -1.43576359405158
C           66.97540374452679       -2.77948229982511       -1.99954779198969
C           65.67039355573692       -2.18976132126473       -1.69977452148453
N           65.82563680328987       -1.02449347144959       -0.89086655924642
C           64.53485792885817       -2.77548053608580       -2.23491043380488
C           64.44448505522089       -3.85917028778073       -3.01183638038473
C           64.93180789256547       -3.79290606692562       -4.32431123902186
C           64.88362839610549       -4.91867434702978       -5.15017872086807
C           64.34255650497288       -6.12661679232787       -4.68129101460624
N           64.30624285555879       -7.26830434191754       -5.55613937522364
C           63.76471173770592       -8.56636986025876       -5.16604739625981
C           63.84718643867425       -6.18567969442108       -3.36403110479620
C           63.89679286882448       -5.05916836724212       -2.53843315280654
C           63.06157418810053       -2.03384934821691       -1.81627654961654
C           61.90144438123124       -2.38448836358718       -2.42085129993117
C           60.95720087826542       -1.65986558562260       -1.85493773534917
N           63.01997079705782       -1.11895291143138       -0.87335797139602
C           61.62416306603971       -0.83337804711870       -0.85726395288861
C           61.01788644900665        0.01465763328994       -0.00961089247393
C           61.76848644884716        0.83127731342466        0.96719259560666
C           61.22655419385357        1.40298826534374        2.03820487659727
C           62.25740377375516        2.20066083922187        2.66967230688484
C           63.36252159087832        2.06886245055239        1.94057828662870
N           63.14177050316506        1.19664257057205        0.83259891301226
C           64.63166728174406        2.79165643197460        2.20578884656161
C           64.59356351235580        4.00132588848088        3.06363729797161
C           63.84795317468107        5.12040941246427        2.66669648181882
C           63.79093682330478        6.25625706826622        3.47902680939121
C           64.47673211972447        6.28851246222426        4.70868088504880
N           64.43818276750267        7.44229241355906        5.56761080323048
C           63.70130005318929        8.66105053293772        5.24840526412439
C           65.21431074933675        5.16151058938891        5.10485759284356
C           65.26999315222150        4.02623878028526        4.29240509850258
C           65.80118548866371        2.37486470895413        1.68169456665051
C           67.10104708699005        3.02413890565144        1.84104678721617
C           67.97397196374740        2.25559350017084        1.21702651872297
C           67.23932916159436        1.12645931134898        0.64898749011920
N           65.97179204746580        1.18615218726088        0.91395140655628
H           68.97428084642061        0.00909087248630       -0.07955604106897
H           68.97117835343094       -2.21550419280025       -1.48632002587879
H           67.17481537243719       -3.67203089553497       -2.57758772801039
H           65.34757267443872       -2.86860403559024       -4.70710712639264
H           65.26742153839575       -4.84917927304806       -6.16035651491115
H           64.68557287513948       -7.17478981057740       -6.52538238680563
H           62.69252585061857       -8.46349139661001       -4.89725053459253
H           64.33462993159372       -8.97000811296451       -4.30310401427408
H           63.85069046955432       -9.28015891519179       -6.01219891889368
H           63.42064992358393       -7.09704241750671       -2.96776016619268
H           63.50966649272696       -5.12172609739497       -1.52840148248037
H           61.74221568269672       -3.10575920953540       -3.21118945502450
H           59.90533804594071       -1.69610183408902       -2.10429856987750
H           60.19988620391076        1.31579904811122        2.36666278563238
H           62.13932586241340        2.81128193323664        3.55507257874037
H           63.31285414811020        5.11324993603943        1.72464398140606
H           63.20952538503334        7.10322286724182        3.14108308410518
H           64.96285498992567        7.41770896818848        6.47099863046557
H           64.08960352972082        9.10200724931532        4.30648748514510
H           63.82783804551759        9.40264195751439        6.06505256234163
H           62.62015075549693        8.43243353571806        5.14224862882169
H           65.74559783256129        5.16202428402684        6.04845196973809
H           65.83711495441902        3.16398686528143        4.62186116773933
H           67.33155343955471        3.94624311561156        2.35774465189587
H           69.03685401788213        2.44274774170385        1.14286923454988
C           41.77304445945052        0.02657463098165       -0.00782398995762
C           40.52128769030791        0.00741020807866       -0.01216211759227
C           43.09036695721996        0.02577534353028       -0.00588432338030
C           44.58831333720452        0.00740894577814       -0.01212000134792
C           55.75685641876732        0.02656441940883       -0.00781614733355
C           54.50467186346656        0.00742161184770       -0.01207956685820
C           57.07408340119718        0.02579821856458       -0.00589269034269
C           58.57180883847898        0.00742283261163       -0.01216162480944
Zn          49.80314866962341       -1.88805616013553       -1.42802692889200
C           46.06544657300935       -0.02899324977997        0.02265131323043
C           46.72378147205882       -0.98863923054828       -0.65639222039717
C           46.08136254301592       -2.09376947360062       -1.37046009946231
C           47.02074907476516       -2.80480305489280       -1.96328528854280
C           48.31191346286403       -2.19758751890890       -1.65956311636166
N           48.14083469370110       -1.04914267168926       -0.82808355242500
C           49.42415005844931       -2.78787752775961       -2.26537182129868
C           49.52926066935419       -3.81233368723139       -3.03191527560270
C           49.61433290873745       -5.10497171149120       -2.50027025638134
C           49.64423847802774       -6.21253642337827       -3.35147342045608
C           49.59280004802810       -6.04486572760586       -4.74515243516596
N           49.62464726107576       -7.20521912389620       -5.59551023611830
C           49.57482078544122       -7.13790528266748       -7.05265266801822
C           49.51124711550379       -4.74061604143989       -5.27261352657117
C           49.47991555099643       -3.63374030995846       -4.41998633906400
C           50.91526183504053       -2.00661816143655       -1.81927859068953
C           52.07874657410899       -2.38151033326660       -2.42167783275741
C           53.03166178886163       -1.67524349543090       -1.84742805279812
N           50.97245645733113       -1.11057763117658       -0.87052132568271
C           52.37228805949333       -0.84799693035965       -0.84606575017301
C           52.98819307921021       -0.02910572650173        0.02290133821359
C           52.23827762499751        0.77237080834166        1.01228270628014
C           52.77606682113942        1.31521499946529        2.09988994616129
C           51.74403049918991        2.10317607857464        2.74163085177192
C           50.64418351050000        1.99189184843552        2.00158581599655
N           50.86794277213941        1.14525242133488        0.87614200848571
C           49.38603435091594        2.73157087591142        2.25674756217105
C           49.44379265504895        3.95801900279726        3.08890370786440
C           48.78400456016028        4.01210739044451        4.32543465466333
C           48.85429890302120        5.16429089366169        5.11366511193877
C           49.59221158039394        6.28209299825689        4.67815824167463
N           49.68201712477881        7.48424755239422        5.46413374025517
C           49.03756442320589        7.64825303574688        6.76338596566695
C           50.25809738343318        6.21736657359018        3.44396462116565
C           50.18863654065480        5.06446899825710        2.65776325102978
C           48.21070301370955        2.32513969150371        1.73769086930753