      -----------------------------------------------------------      
     |                   =====================                   |     
     |                           x T B                           |     
     |                   =====================                   |     
     |                         S. Grimme                         |     
     |          Mulliken Center for Theoretical Chemistry        |     
     |                    University of Bonn                     |     
      -----------------------------------------------------------      

   * xtb version 6.5.1 (b24c23e) compiled by 'conda@728c89f4b128' on 2022-07-12

   xtb is free software: you can redistribute it and/or modify it under
   the terms of the GNU Lesser General Public License as published by
   the Free Software Foundation, either version 3 of the License, or
   (at your option) any later version.
   
   xtb is distributed in the hope that it will be useful,
   but WITHOUT ANY WARRANTY; without even the implied warranty of
   MERCHANTABILITY or FITNESS FOR A PARTICULAR PURPOSE.  See the
   GNU Lesser General Public License for more details.
   
   Cite this work as:
   * C. Bannwarth, E. Caldeweyher, S. Ehlert, A. Hansen, P. Pracht,
     J. Seibert, S. Spicher, S. Grimme, WIREs Comput. Mol. Sci., 2020, 11,
     e01493. DOI: 10.1002/wcms.1493
   
   for GFN2-xTB:
   * C. Bannwarth, S. Ehlert and S. Grimme., J. Chem. Theory Comput., 2019,
     15, 1652-1671. DOI: 10.1021/acs.jctc.8b01176
   for GFN1-xTB:
   * S. Grimme, C. Bannwarth, P. Shushkov, J. Chem. Theory Comput., 2017,
     13, 1989-2009. DOI: 10.1021/acs.jctc.7b00118
   for GFN0-xTB:
   * P. Pracht, E. Caldeweyher, S. Ehlert, S. Grimme, ChemRxiv, 2019, preprint.
     DOI: 10.26434/chemrxiv.8326202.v1
   for GFN-FF:
   * S. Spicher and S. Grimme, Angew. Chem. Int. Ed., 2020, 59, 15665-15673.
     DOI: 10.1002/anie.202004239
   
   for ALPB and GBSA implicit solvation:
   * S. Ehlert, M. Stahn, S. Spicher, S. Grimme, J. Chem. Theory Comput.,
     2021, 17, 4250-4261. DOI: 10.1021/acs.jctc.1c00471
   
   for DFT-D4:
   * E. Caldeweyher, C. Bannwarth and S. Grimme, J. Chem. Phys., 2017,
     147, 034112. DOI: 10.1063/1.4993215
   * E. Caldeweyher, S. Ehlert, A. Hansen, H. Neugebauer, S. Spicher,
     C. Bannwarth and S. Grimme, J. Chem. Phys., 2019, 150, 154122.
     DOI: 10.1063/1.5090222
   * E. Caldeweyher, J.-M. Mewes, S. Ehlert and S. Grimme, Phys. Chem. Chem. Phys.
     2020, 22, 8499-8512. DOI: 10.1039/D0CP00502A
   
   for sTDA-xTB:
   * S. Grimme and C. Bannwarth, J. Chem. Phys., 2016, 145, 054103.
     DOI: 10.1063/1.4959605
   
   in the mass-spec context:
   * V. Asgeirsson, C. Bauer and S. Grimme, Chem. Sci., 2017, 8, 4879.
     DOI: 10.1039/c7sc00601b
   * J. Koopman and S. Grimme, ACS Omega 2019, 4, 12, 15120-15133.
     DOI: 10.1021/acsomega.9b02011
   
   for metadynamics refer to:
   * S. Grimme, J. Chem. Theory Comput., 2019, 155, 2847-2862
     DOI: 10.1021/acs.jctc.9b00143
   
   for SPH calculations refer to:
   * S. Spicher and S. Grimme, J. Chem. Theory Comput., 2021, 17, 1701-1714
     DOI: 10.1021/acs.jctc.0c01306
   
   with help from (in alphabetical order)
   P. Atkinson, C. Bannwarth, F. Bohle, G. Brandenburg, E. Caldeweyher
   M. Checinski, S. Dohm, S. Ehlert, S. Ehrlich, I. Gerasimov, C. Hölzer
   A. Katbashev, J. Koopman, C. Lavigne, S. Lehtola, F. März, M. Müller,
   F. Musil, H. Neugebauer, J. Pisarek, C. Plett, P. Pracht, F. Pultar,
   J. Seibert, P. Shushkov, S. Spicher, M. Stahn, M. Steiner, T. Strunk,
   J. Stückrath, T. Rose, and J. Unsleber
   
 * started run on 2022/07/26 at 17:53:38.944     

           -------------------------------------------------
          |                Calculation Setup                |
           -------------------------------------------------

          program call               : xtb xtbopt.xyz --gfn 1 --vipea
          hostname                   : cx3-6-14.cx3.hpc.ic.ac.uk
          coordinate file            : xtbopt.xyz
          omp threads                :                     1

   ID    Z sym.   atoms
    1    6 C      1-5, 7-10, 12-17, 19-23, 38-42, 44-47, 49-54, 56-60,
                  75-143, 145-148, 150-155, 157-161, 175-179, 181-184,
                  186-191, 193-197, 211-215, 217-220, 222-227, 229-233,
                  247-251, 253-256, 258-263, 265-269, 283-287, 289-292,
                  294-299, 301-305, 319-323, 325-328, 330-335, 337-341,
                  355-359, 361-364, 366-371, 373-377
    2    7 N      6, 11, 18, 24, 43, 48, 55, 61, 144, 149, 156, 162, 180,
                  185, 192, 198, 216, 221, 228, 234, 252, 257, 264, 270, 288,
                  293, 300, 306, 324, 329, 336, 342, 360, 365, 372, 378
    3    1 H      25-37, 62-74, 163-174, 199-210, 235-246, 271-282, 307-318,
                  343-354, 379-390

           -------------------------------------------------
          |                 I P E A - x T B                 |
           -------------------------------------------------

        Reference                      10.1039/c7sc00601b
      * Hamiltonian:
        H0-scaling (s, p, d)           2.150000    2.300000    2.000000
        zeta-weighting                 0.000000
      * Dispersion:
        s8                             2.400000
        a1                             0.630000
        a2                             5.000000
        s9                             0.000000
      * Repulsion:
        kExp                           1.500000
        rExp                           1.000000
      * Coulomb:
        alpha                          1.000000
        third order                    atomic
        anisotropic                    false
      * Halogen bond correction:
        rad-scale                      1.300000
        damping                        0.440000


          ...................................................
          :                      SETUP                      :
          :.................................................:
          :  # basis functions                1620          :
          :  # atomic orbitals                1620          :
          :  # shells                         1060          :
          :  # electrons                      1266          :
          :  # halogen bonds                     0          :
          :  max. iterations                   250          :
          :  Hamiltonian                  GFN1-xTB          :
          :  restarted?                      false          :
          :  GBSA solvation                  false          :
          :  PC potential                    false          :
          :  electronic temp.          300.0000000     K    :
          :  accuracy                    1.0000000          :
          :  -> integral cutoff          0.2500000E+02      :
          :  -> integral neglect         0.1000000E-07      :
          :  -> SCF convergence          0.1000000E-05 Eh   :
          :  -> wf. convergence          0.2000000E-04 e    :
          :  Broyden damping             0.4000000          :
          ...................................................

 iter      E             dE          RMSdq      gap      omega  full diag
   1   -798.7805290 -0.798781E+03  0.106E+01    0.61       0.0  T
   2   -798.8173120 -0.367831E-01  0.667E+00    1.11       1.0  T
   3   -784.1217552  0.146956E+02  0.528E+00    0.16       1.0  T
   4   -802.2731065 -0.181514E+02  0.916E-01    1.06       1.0  T
   5   -802.9724723 -0.699366E+00  0.285E-01    0.98       1.0  T
   6   -803.0305895 -0.581171E-01  0.118E-01    0.96       1.0  T
   7   -803.0394093 -0.881986E-02  0.527E-02    0.95       1.0  T
   8   -803.0407518 -0.134246E-02  0.330E-02    0.95       1.0  T
   9   -803.0410055 -0.253711E-03  0.236E-02    0.95       1.0  T
  10   -803.0413156 -0.310107E-03  0.723E-03    0.95       1.0  T
  11   -803.0413507 -0.350961E-04  0.245E-03    0.95       2.1  T
  12   -803.0413539 -0.317718E-05  0.123E-03    0.95       4.1  T
  13   -803.0413548 -0.924674E-06  0.577E-04    0.95       8.8  T
  14   -803.0413550 -0.167534E-06  0.292E-04    0.95      17.4  T
  15   -803.0413550 -0.442590E-07  0.131E-04    0.95      38.8  T
  16   -803.0413550 -0.117894E-07  0.717E-05    0.95      70.6  T

   *** convergence criteria satisfied after 16 iterations ***

         #    Occupation            Energy/Eh            Energy/eV
      -------------------------------------------------------------
         1        2.0000           -1.0429607             -28.3804
       ...           ...                  ...                  ...
       627        2.0000           -0.3779037             -10.2833
       628        2.0000           -0.3748129             -10.1992
       629        2.0000           -0.3715053             -10.1092
       630        2.0000           -0.3682664             -10.0210
       631        2.0000           -0.3653589              -9.9419
       632        2.0000           -0.3630880              -9.8801
       633        2.0000           -0.3619020              -9.8479 (HOMO)
       634                         -0.3268700              -8.8946 (LUMO)
       635                         -0.3248329              -8.8392
       636                         -0.3220966              -8.7647
       637                         -0.3189011              -8.6777
       638                         -0.3154717              -8.5844
       ...                                ...                  ...
      1620                        496.1028836           13499.6466
      -------------------------------------------------------------
                  HL-Gap            0.0350321 Eh            0.9533 eV
             Fermi-level           -0.3443116 Eh           -9.3692 eV

 SCC (total)                   0 d,  0 h,  0 min, 23.321 sec
 SCC setup                      ...        0 min,  0.018 sec (  0.075%)
 Dispersion                     ...        0 min,  0.018 sec (  0.075%)
 classical contributions        ...        0 min,  0.004 sec (  0.015%)
 integral evaluation            ...        0 min,  1.102 sec (  4.726%)
 iterations                     ...        0 min, 20.129 sec ( 86.311%)
 molecular gradient             ...        0 min,  1.783 sec (  7.645%)
 printout                       ...        0 min,  0.268 sec (  1.151%)

         :::::::::::::::::::::::::::::::::::::::::::::::::::::
         ::                     SUMMARY                     ::
         :::::::::::::::::::::::::::::::::::::::::::::::::::::
         :: total energy            -785.125367293608 Eh    ::
         :: gradient norm              0.106421751645 Eh/a0 ::
         :: HOMO-LUMO gap              0.953271487796 eV    ::
         ::.................................................::
         :: SCC energy              -803.041355043660 Eh    ::
         :: -> electrostatic           0.537148530771 Eh    ::
         :: repulsion energy          18.224100019372 Eh    ::
         :: dispersion energy         -0.308112269319 Eh    ::
         :: halogen bond corr.         0.000000000000 Eh    ::
         :: add. restraining           0.000000000000 Eh    ::
         :: total charge               0.000000000053 e     ::
         :::::::::::::::::::::::::::::::::::::::::::::::::::::

           ------------------------------------------------- 
          |        vertical delta SCC IP calculation        |
           ------------------------------------------------- 
   1   -802.6661847 -0.802666E+03  0.423E-02    0.95       0.0  T
   2   -802.6656029  0.581803E-03  0.385E-02    0.94       1.0  T
   3   -802.6661232 -0.520289E-03  0.298E-02    0.96       1.0  T
   4   -802.6674157 -0.129256E-02  0.211E-02    0.95       1.0  T
   5   -802.6680245 -0.608738E-03  0.866E-03    0.96       1.0  T
   6   -802.6677413  0.283119E-03  0.102E-02    0.95       1.0  T
   7   -802.6675853  0.156062E-03  0.113E-02    0.95       1.0  T
   8   -802.6680575 -0.472178E-03  0.250E-03    0.96       2.0  T
   9   -802.6680678 -0.103896E-04  0.713E-04    0.96       7.1  T
  10   -802.6680684 -0.518402E-06  0.247E-04    0.96      20.5  T
  11   -802.6680684 -0.356777E-07  0.117E-04    0.96      43.1  T
  12   -802.6680684 -0.986120E-08  0.596E-05    0.96      84.9  T
     SCC iter.                  ...        0 min, 15.815 sec
     gradient                   ...        0 min,  1.767 sec
------------------------------------------------------------------------
empirical IP shift (eV):    4.8455
delta SCC IP (eV):    5.3121
------------------------------------------------------------------------
           ------------------------------------------------- 
          |        vertical delta SCC EA calculation        |
           ------------------------------------------------- 
   1   -803.3494314 -0.803349E+03  0.751E-02    0.05       0.0  T
   2   -803.3501148 -0.683332E-03  0.637E-02    0.01       1.0  T
   3   -803.3521009 -0.198613E-02  0.471E-02    0.06       1.0  T
   4   -803.3544403 -0.233937E-02  0.336E-02    0.02       1.0  T
   5   -803.3557455 -0.130526E-02  0.160E-02    0.03       1.0  T
   6   -803.3556931  0.524809E-04  0.124E-02    0.03       1.0  T
   7   -803.3556932 -0.178658E-06  0.787E-03    0.03       1.0  T
   8   -803.3557574 -0.641626E-04  0.499E-03    0.03       1.0  T
   9   -803.3558509 -0.934815E-04  0.206E-03    0.03       2.5  T
  10   -803.3558635 -0.125773E-04  0.605E-04    0.03       8.4  T
  11   -803.3558639 -0.483096E-06  0.153E-04    0.03      33.1  T
  12   -803.3558640 -0.148287E-07  0.987E-05    0.03      51.3  T
     SCC iter.                  ...        0 min, 16.146 sec
     gradient                   ...        0 min,  2.056 sec
------------------------------------------------------------------------
empirical EA shift (eV):    4.8455
delta SCC EA (eV):    3.7127
------------------------------------------------------------------------
           -------------------------------------------------
          |                Property Printout                |
           -------------------------------------------------

    * Orbital Energies and Occupations

         #    Occupation            Energy/Eh            Energy/eV
      -------------------------------------------------------------
         1        2.0000           -1.0220711             -27.8120
       ...           ...                  ...                  ...
       622        2.0000           -0.3655166              -9.9462
       623        2.0000           -0.3653906              -9.9428
       624        2.0000           -0.3653868              -9.9427
       625        2.0000           -0.3584523              -9.7540
       626        2.0000           -0.3579970              -9.7416
       627        2.0000           -0.3545397              -9.6475
       628        2.0000           -0.3511416              -9.5551
       629        2.0000           -0.3477207              -9.4620
       630        2.0000           -0.3443547              -9.3704
       631        2.0000           -0.3411505              -9.2832
       632        2.0000           -0.3382626              -9.2046
       633        2.0000           -0.3362612              -9.1501
       634        0.6169           -0.3012600              -8.1977 (HOMO)
       635        0.3319           -0.3001427              -8.1673 (LUMO)
       636        0.0490           -0.2979910              -8.1087
       637        0.0022           -0.2949747              -8.0267
       638        0.0001           -0.2917205              -7.9381
       639        0.0000           -0.2886023              -7.8533
       640        0.0000           -0.2859005              -7.7797
       641                         -0.2840402              -7.7291
       642                         -0.2835481              -7.7157
       643                         -0.2828728              -7.6974
       644                         -0.2815870              -7.6624
       645                         -0.2792239              -7.5981
       ...                                ...                  ...
      1620                        496.1286812           13500.3486
      -------------------------------------------------------------
                  HL-Gap            0.0011173 Eh            0.0304 eV
             Fermi-level           -0.3098254 Eh           -8.4308 eV

  Mulliken/CM5 charges         n(s)   n(p)   n(d)
     1C    -0.02141 -0.06206   1.090  2.932  0.000
     2C     0.06326  0.12387   1.106  2.831  0.000
     3C    -0.03367 -0.07888   1.081  2.952  0.000
     4C    -0.03301 -0.07823   1.082  2.951  0.000
     5C     0.06290  0.12358   1.104  2.833  0.000
     6N    -0.15943 -0.51304   1.313  3.846  0.000
     7C    -0.01808 -0.05886   1.091  2.927  0.000
     8C     0.05886  0.12364   1.123  2.818  0.000
     9C    -0.03845 -0.08478   1.091  2.947  0.000
    10C    -0.03769 -0.08309   1.091  2.947  0.000
    11N    -0.28631 -0.47365   1.296  3.990  0.000
    12C     0.06585  0.13708   1.131  2.803  0.000
    13C     0.01727  0.02471   1.084  2.899  0.000
    14C     0.06800  0.13316   1.110  2.822  0.000
    15C    -0.03233 -0.07673   1.079  2.953  0.000
    16C    -0.03290 -0.07814   1.081  2.952  0.000
    17C     0.06197  0.12201   1.103  2.835  0.000
    18N    -0.15724 -0.51020   1.315  3.842  0.000
    19C    -0.01849 -0.05922   1.091  2.927  0.000
    20C     0.06001  0.12613   1.126  2.814  0.000
    21C    -0.03870 -0.08499   1.093  2.946  0.000
    22C    -0.03915 -0.08542   1.092  2.947  0.000
    23C     0.06027  0.12631   1.127  2.813  0.000
    24N    -0.28866 -0.47625   1.296  3.993  0.000
    25H     0.03002  0.08881   0.970  0.000  0.000
    26H     0.04134  0.09796   0.959  0.000  0.000
    27H     0.04170  0.09833   0.958  0.000  0.000
    28H     0.16760  0.37595   0.832  0.000  0.000
    29H     0.03144  0.09037   0.969  0.000  0.000
    30H     0.03176  0.08817   0.968  0.000  0.000
    31H     0.02700  0.08484   0.973  0.000  0.000
    32H     0.03719  0.09507   0.963  0.000  0.000
    33H     0.04188  0.09854   0.958  0.000  0.000
    34H     0.16649  0.37484   0.834  0.000  0.000
    35H     0.03116  0.09007   0.969  0.000  0.000
    36H     0.03139  0.08777   0.969  0.000  0.000
    37H     0.03107  0.08744   0.969  0.000  0.000
    38C    -0.02139 -0.06204   1.090  2.932  0.000
    39C     0.06326  0.12388   1.106  2.831  0.000
    40C    -0.03365 -0.07887   1.081  2.952  0.000
    41C    -0.03300 -0.07822   1.082  2.951  0.000
    42C     0.06291  0.12359   1.104  2.833  0.000
    43N    -0.15942 -0.51303   1.313  3.846  0.000
    44C    -0.01807 -0.05885   1.091  2.927  0.000
    45C     0.05888  0.12365   1.123  2.818  0.000
    46C    -0.03844 -0.08477   1.091  2.947  0.000
    47C    -0.03768 -0.08308   1.091  2.947  0.000
    48N    -0.28630 -0.47365   1.296  3.990  0.000
    49C     0.06587  0.13710   1.131  2.803  0.000
    50C     0.01728  0.02472   1.084  2.899  0.000
    51C     0.06800  0.13315   1.110  2.822  0.000
    52C    -0.03232 -0.07671   1.079  2.953  0.000
    53C    -0.03289 -0.07813   1.081  2.952  0.000
    54C     0.06199  0.12203   1.103  2.835  0.000
    55N    -0.15724 -0.51020   1.315  3.842  0.000
    56C    -0.01848 -0.05922   1.091  2.927  0.000
    57C     0.06002  0.12614   1.126  2.814  0.000
    58C    -0.03869 -0.08498   1.093  2.946  0.000
    59C    -0.03914 -0.08542   1.092  2.947  0.000
    60C     0.06027  0.12632   1.127  2.813  0.000
    61N    -0.28865 -0.47624   1.296  3.993  0.000
    62H     0.03004  0.08882   0.970  0.000  0.000
    63H     0.04136  0.09798   0.959  0.000  0.000
    64H     0.04171  0.09834   0.958  0.000  0.000
    65H     0.16760  0.37595   0.832  0.000  0.000
    66H     0.03146  0.09039   0.969  0.000  0.000
    67H     0.03177  0.08819   0.968  0.000  0.000
    68H     0.02703  0.08487   0.973  0.000  0.000
    69H     0.03719  0.09507   0.963  0.000  0.000
    70H     0.04189  0.09855   0.958  0.000  0.000
    71H     0.16650  0.37485   0.834  0.000  0.000
    72H     0.03117  0.09008   0.969  0.000  0.000
    73H     0.03141  0.08778   0.969  0.000  0.000
    74H     0.03108  0.08745   0.969  0.000  0.000
    75C    -0.01576 -0.01719   1.092  2.924  0.000
    76C    -0.01838 -0.01904   1.061  2.957  0.000
    77C    -0.01392 -0.01401   1.076  2.938  0.000
    78C    -0.01366 -0.01366   1.076  2.937  0.000
    79C    -0.01539 -0.01540   1.075  2.940  0.000
    80C    -0.01202 -0.01210   1.077  2.935  0.000
    81C    -0.01990 -0.02054   1.060  2.960  0.000
    82C    -0.01386 -0.01525   1.094  2.920  0.000
    83C    -0.01520 -0.01659   1.093  2.923  0.000
    84C    -0.01908 -0.01973   1.060  2.959  0.000
    85C    -0.01340 -0.01348   1.076  2.937  0.000
    86C    -0.01453 -0.01454   1.076  2.939  0.000
    87C    -0.01491 -0.01491   1.075  2.939  0.000
    88C    -0.01293 -0.01301   1.077  2.936  0.000
    89C    -0.01940 -0.02005   1.060  2.959  0.000
    90C    -0.01465 -0.01604   1.093  2.921  0.000
    91C    -0.01469 -0.01609   1.093  2.922  0.000
    92C    -0.01919 -0.01984   1.060  2.959  0.000
    93C    -0.01290 -0.01298   1.076  2.937  0.000
    94C    -0.01458 -0.01459   1.076  2.939  0.000
    95C    -0.01444 -0.01445   1.076  2.939  0.000
    96C    -0.01298 -0.01306   1.076  2.937  0.000
    97C    -0.01899 -0.01964   1.060  2.959  0.000
    98C    -0.01471 -0.01612   1.093  2.922  0.000
    99C    -0.01453 -0.01594   1.093  2.922  0.000
   100C    -0.01898 -0.01963   1.060  2.959  0.000
   101C    -0.01274 -0.01282   1.076  2.936  0.000
   102C    -0.01437 -0.01438   1.076  2.939  0.000
   103C    -0.01430 -0.01430   1.076  2.939  0.000
   104C    -0.01279 -0.01287   1.076  2.937  0.000
   105C    -0.01889 -0.01954   1.060  2.959  0.000
   106C    -0.01458 -0.01598   1.093  2.922  0.000
   107C    -0.01457 -0.01598   1.093  2.922  0.000
   108C    -0.01889 -0.01954   1.060  2.959  0.000
   109C    -0.01279 -0.01287   1.076  2.936  0.000
   110C    -0.01430 -0.01431   1.076  2.939  0.000
   111C    -0.01436 -0.01437   1.076  2.939  0.000
   112C    -0.01274 -0.01282   1.076  2.936  0.000
   113C    -0.01897 -0.01963   1.060  2.959  0.000
   114C    -0.01454 -0.01594   1.093  2.922  0.000
   115C    -0.01472 -0.01612   1.093  2.922  0.000
   116C    -0.01899 -0.01964   1.060  2.959  0.000
   117C    -0.01298 -0.01306   1.076  2.937  0.000
   118C    -0.01444 -0.01445   1.076  2.939  0.000
   119C    -0.01458 -0.01459   1.076  2.939  0.000
   120C    -0.01290 -0.01298   1.076  2.936  0.000
   121C    -0.01919 -0.01984   1.060  2.959  0.000
   122C    -0.01469 -0.01609   1.093  2.922  0.000
   123C    -0.01465 -0.01604   1.093  2.921  0.000
   124C    -0.01940 -0.02005   1.060  2.959  0.000
   125C    -0.01293 -0.01302   1.077  2.936  0.000
   126C    -0.01491 -0.01492   1.075  2.939  0.000
   127C    -0.01454 -0.01454   1.076  2.939  0.000
   128C    -0.01340 -0.01348   1.076  2.937  0.000
   129C    -0.01908 -0.01973   1.060  2.959  0.000
   130C    -0.01519 -0.01658   1.093  2.923  0.000
   131C    -0.01384 -0.01523   1.094  2.920  0.000
   132C    -0.01989 -0.02054   1.060  2.960  0.000
   133C    -0.01199 -0.01207   1.077  2.935  0.000
   134C    -0.01538 -0.01539   1.075  2.940  0.000
   135C    -0.01363 -0.01364   1.076  2.937  0.000
   136C    -0.01391 -0.01399   1.076  2.938  0.000
   137C    -0.01836 -0.01902   1.061  2.957  0.000
   138C    -0.01575 -0.01718   1.092  2.924  0.000
   139C     0.01530  0.02278   1.082  2.902  0.000
   140C     0.06744  0.13259   1.110  2.822  0.000
   141C    -0.03422 -0.07861   1.078  2.956  0.000
   142C    -0.03365 -0.07888   1.081  2.952  0.000
   143C     0.06062  0.12075   1.100  2.839  0.000
   144N    -0.15679 -0.50990   1.315  3.842  0.000
   145C    -0.01551 -0.05634   1.092  2.923  0.000
   146C     0.05782  0.12252   1.122  2.820  0.000
   147C    -0.03874 -0.08508   1.092  2.947  0.000
   148C    -0.03857 -0.08397   1.090  2.948  0.000
   149N    -0.28592 -0.47326   1.296  3.990  0.000
   150C     0.06569  0.13694   1.131  2.803  0.000
   151C     0.01640  0.02389   1.083  2.900  0.000
   152C     0.06757  0.13276   1.110  2.822  0.000
   153C    -0.03364 -0.07804   1.079  2.955  0.000
   154C    -0.03348 -0.07871   1.081  2.952  0.000
   155C     0.06085  0.12095   1.101  2.839  0.000
   156N    -0.15655 -0.50969   1.315  3.842  0.000
   157C    -0.01563 -0.05646   1.092  2.923  0.000
   158C     0.05790  0.12264   1.122  2.820  0.000
   159C    -0.03870 -0.08505   1.092  2.947  0.000
   160C    -0.03881 -0.08421   1.090  2.949  0.000
   161C     0.06557  0.13676   1.131  2.803  0.000
   162N    -0.28633 -0.47364   1.296  3.991  0.000
   163H     0.03550  0.09335   0.964  0.000  0.000
   164H     0.04081  0.09747   0.959  0.000  0.000
   165H     0.16690  0.37522   0.833  0.000  0.000
   166H     0.03184  0.09084   0.968  0.000  0.000
   167H     0.03107  0.08749   0.969  0.000  0.000
   168H     0.02605  0.08386   0.974  0.000  0.000
   169H     0.03632  0.09417   0.964  0.000  0.000
   170H     0.04116  0.09783   0.959  0.000  0.000
   171H     0.16686  0.37518   0.833  0.000  0.000
   172H     0.03190  0.09089   0.968  0.000  0.000
   173H     0.03101  0.08743   0.969  0.000  0.000
   174H     0.02563  0.08345   0.974  0.000  0.000
   175C     0.01608  0.02356   1.083  2.901  0.000
   176C     0.06754  0.13272   1.110  2.822  0.000
   177C    -0.03380 -0.07819   1.078  2.955  0.000
   178C    -0.03349 -0.07872   1.081  2.952  0.000
   179C     0.06081  0.12093   1.101  2.839  0.000
   180N    -0.15658 -0.50972   1.315  3.842  0.000
   181C    -0.01552 -0.05634   1.092  2.923  0.000
   182C     0.05793  0.12264   1.122  2.820  0.000
   183C    -0.03864 -0.08498   1.092  2.947  0.000
   184C    -0.03858 -0.08398   1.090  2.948  0.000
   185N    -0.28598 -0.47330   1.296  3.990  0.000
   186C     0.06569  0.13696   1.131  2.803  0.000
   187C     0.01619  0.02367   1.083  2.901  0.000
   188C     0.06763  0.13282   1.110  2.822  0.000
   189C    -0.03367 -0.07807   1.078  2.955  0.000
   190C    -0.03339 -0.07863   1.081  2.952  0.000
   191C     0.06084  0.12095   1.101  2.839  0.000
   192N    -0.15656 -0.50972   1.315  3.842  0.000
   193C    -0.01551 -0.05633   1.092  2.923  0.000
   194C     0.05790  0.12261   1.122  2.820  0.000
   195C    -0.03870 -0.08505   1.092  2.947  0.000
   196C    -0.03868 -0.08408   1.090  2.949  0.000
   197C     0.06561  0.13685   1.131  2.803  0.000
   198N    -0.28601 -0.47331   1.296  3.990  0.000
   199H     0.03605  0.09392   0.964  0.000  0.000
   200H     0.04107  0.09774   0.959  0.000  0.000
   201H     0.16689  0.37519   0.833  0.000  0.000
   202H     0.03199  0.09098   0.968  0.000  0.000
   203H     0.03113  0.08755   0.969  0.000  0.000
   204H     0.02596  0.08377   0.974  0.000  0.000
   205H     0.03625  0.09411   0.964  0.000  0.000
   206H     0.04118  0.09785   0.959  0.000  0.000
   207H     0.16689  0.37519   0.833  0.000  0.000
   208H     0.03200  0.09099   0.968  0.000  0.000
   209H     0.03105  0.08747   0.969  0.000  0.000
   210H     0.02578  0.08360   0.974  0.000  0.000
   211C     0.01649  0.02397   1.083  2.900  0.000
   212C     0.06766  0.13286   1.110  2.822  0.000
   213C    -0.03352 -0.07791   1.079  2.955  0.000
   214C    -0.03330 -0.07854   1.081  2.952  0.000
   215C     0.06103  0.12114   1.101  2.838  0.000
   216N    -0.15645 -0.50962   1.315  3.842  0.000
   217C    -0.01545 -0.05627   1.092  2.923  0.000
   218C     0.05810  0.12281   1.122  2.820  0.000
   219C    -0.03854 -0.08489   1.092  2.947  0.000
   220C    -0.03846 -0.08386   1.090  2.948  0.000
   221N    -0.28585 -0.47316   1.296  3.990  0.000
   222C     0.06576  0.13704   1.131  2.803  0.000
   223C     0.01641  0.02388   1.083  2.900  0.000
   224C     0.06771  0.13291   1.110  2.822  0.000
   225C    -0.03352 -0.07791   1.079  2.955  0.000
   226C    -0.03326 -0.07849   1.081  2.952  0.000
   227C     0.06101  0.12113   1.101  2.838  0.000
   228N    -0.15647 -0.50964   1.315  3.842  0.000
   229C    -0.01541 -0.05623   1.092  2.923  0.000
   230C     0.05808  0.12279   1.122  2.820  0.000
   231C    -0.03857 -0.08491   1.092  2.947  0.000
   232C    -0.03847 -0.08388   1.090  2.948  0.000
   233C     0.06573  0.13700   1.131  2.803  0.000
   234N    -0.28582 -0.47312   1.296  3.990  0.000
   235H     0.03636  0.09424   0.964  0.000  0.000
   236H     0.04135  0.09802   0.959  0.000  0.000
   237H     0.16697  0.37526   0.833  0.000  0.000
   238H     0.03222  0.09120   0.968  0.000  0.000
   239H     0.03132  0.08774   0.969  0.000  0.000
   240H     0.02610  0.08392   0.974  0.000  0.000
   241H     0.03640  0.09427   0.964  0.000  0.000
   242H     0.04138  0.09805   0.959  0.000  0.000
   243H     0.16698  0.37527   0.833  0.000  0.000
   244H     0.03223  0.09121   0.968  0.000  0.000
   245H     0.03129  0.08771   0.969  0.000  0.000
   246H     0.02607  0.08389   0.974  0.000  0.000
   247C     0.01654  0.02401   1.083  2.900  0.000
   248C     0.06773  0.13293   1.110  2.822  0.000
   249C    -0.03346 -0.07786   1.079  2.955  0.000
   250C    -0.03322 -0.07846   1.081  2.952  0.000
   251C     0.06108  0.12120   1.101  2.838  0.000
   252N    -0.15642 -0.50960   1.315  3.842  0.000
   253C    -0.01539 -0.05621   1.092  2.923  0.000
   254C     0.05815  0.12285   1.122  2.820  0.000
   255C    -0.03851 -0.08486   1.092  2.947  0.000
   256C    -0.03842 -0.08382   1.090  2.948  0.000
   257N    -0.28578 -0.47308   1.296  3.990  0.000
   258C     0.06580  0.13707   1.131  2.803  0.000
   259C     0.01654  0.02401   1.083  2.900  0.000
   260C     0.06772  0.13291   1.110  2.822  0.000
   261C    -0.03346 -0.07786   1.079  2.955  0.000
   262C    -0.03322 -0.07846   1.081  2.952  0.000
   263C     0.06108  0.12120   1.101  2.838  0.000
   264N    -0.15643 -0.50961   1.315  3.842  0.000
   265C    -0.01540 -0.05622   1.092  2.923  0.000
   266C     0.05815  0.12286   1.122  2.820  0.000
   267C    -0.03851 -0.08486   1.092  2.947  0.000
   268C    -0.03842 -0.08382   1.090  2.948  0.000
   269C     0.06578  0.13705   1.131  2.803  0.000
   270N    -0.28579 -0.47309   1.296  3.990  0.000
   271H     0.03646  0.09434   0.964  0.000  0.000
   272H     0.04145  0.09811   0.959  0.000  0.000
   273H     0.16701  0.37529   0.833  0.000  0.000
   274H     0.03231  0.09129   0.968  0.000  0.000
   275H     0.03138  0.08780   0.969  0.000  0.000
   276H     0.02616  0.08399   0.974  0.000  0.000
   277H     0.03645  0.09432   0.964  0.000  0.000
   278H     0.04145  0.09811   0.959  0.000  0.000
   279H     0.16701  0.37529   0.833  0.000  0.000
   280H     0.03230  0.09128   0.968  0.000  0.000
   281H     0.03138  0.08780   0.969  0.000  0.000
   282H     0.02615  0.08397   0.974  0.000  0.000
   283C     0.01640  0.02387   1.083  2.900  0.000
   284C     0.06769  0.13289   1.110  2.822  0.000
   285C    -0.03353 -0.07792   1.079  2.955  0.000
   286C    -0.03325 -0.07849   1.081  2.952  0.000
   287C     0.06101  0.12113   1.101  2.838  0.000
   288N    -0.15648 -0.50965   1.315  3.842  0.000
   289C    -0.01541 -0.05623   1.092  2.923  0.000
   290C     0.05808  0.12278   1.122  2.820  0.000
   291C    -0.03857 -0.08491   1.092  2.947  0.000
   292C    -0.03848 -0.08388   1.090  2.948  0.000
   293N    -0.28582 -0.47312   1.296  3.990  0.000
   294C     0.06575  0.13701   1.131  2.803  0.000
   295C     0.01648  0.02396   1.083  2.900  0.000
   296C     0.06765  0.13285   1.110  2.822  0.000
   297C    -0.03353 -0.07792   1.079  2.955  0.000
   298C    -0.03330 -0.07854   1.081  2.952  0.000
   299C     0.06102  0.12114   1.101  2.838  0.000
   300N    -0.15646 -0.50962   1.315  3.842  0.000
   301C    -0.01544 -0.05626   1.092  2.923  0.000
   302C     0.05810  0.12280   1.122  2.820  0.000
   303C    -0.03854 -0.08488   1.092  2.947  0.000
   304C    -0.03846 -0.08386   1.090  2.948  0.000
   305C     0.06578  0.13706   1.131  2.803  0.000
   306N    -0.28585 -0.47315   1.296  3.990  0.000
   307H     0.03638  0.09424   0.964  0.000  0.000
   308H     0.04138  0.09805   0.959  0.000  0.000
   309H     0.16698  0.37527   0.833  0.000  0.000
   310H     0.03223  0.09121   0.968  0.000  0.000
   311H     0.03129  0.08771   0.969  0.000  0.000
   312H     0.02609  0.08392   0.974  0.000  0.000
   313H     0.03635  0.09421   0.964  0.000  0.000
   314H     0.04135  0.09802   0.959  0.000  0.000
   315H     0.16698  0.37527   0.833  0.000  0.000
   316H     0.03222  0.09120   0.968  0.000  0.000
   317H     0.03132  0.08774   0.969  0.000  0.000
   318H     0.02612  0.08395   0.974  0.000  0.000
   319C     0.01618  0.02367   1.083  2.901  0.000
   320C     0.06762  0.13281   1.110  2.822  0.000
   321C    -0.03368 -0.07807   1.078  2.955  0.000
   322C    -0.03339 -0.07863   1.081  2.952  0.000
   323C     0.06084  0.12095   1.101  2.839  0.000
   324N    -0.15657 -0.50973   1.315  3.842  0.000
   325C    -0.01551 -0.05633   1.092  2.923  0.000
   326C     0.05790  0.12261   1.122  2.820  0.000
   327C    -0.03870 -0.08505   1.092  2.947  0.000
   328C    -0.03868 -0.08409   1.090  2.949  0.000
   329N    -0.28601 -0.47331   1.296  3.990  0.000
   330C     0.06560  0.13684   1.131  2.803  0.000
   331C     0.01607  0.02355   1.083  2.901  0.000
   332C     0.06755  0.13273   1.110  2.822  0.000
   333C    -0.03380 -0.07820   1.078  2.955  0.000
   334C    -0.03348 -0.07872   1.081  2.952  0.000
   335C     0.06080  0.12092   1.101  2.839  0.000
   336N    -0.15657 -0.50971   1.315  3.842  0.000
   337C    -0.01551 -0.05633   1.092  2.923  0.000
   338C     0.05792  0.12263   1.122  2.820  0.000
   339C    -0.03864 -0.08498   1.092  2.947  0.000
   340C    -0.03858 -0.08398   1.090  2.948  0.000
   341C     0.06571  0.13698   1.131  2.803  0.000
   342N    -0.28597 -0.47329   1.296  3.990  0.000
   343H     0.03624  0.09410   0.964  0.000  0.000
   344H     0.04118  0.09785   0.959  0.000  0.000
   345H     0.16689  0.37519   0.833  0.000  0.000
   346H     0.03199  0.09098   0.968  0.000  0.000
   347H     0.03104  0.08747   0.969  0.000  0.000
   348H     0.02578  0.08358   0.974  0.000  0.000
   349H     0.03605  0.09392   0.964  0.000  0.000
   350H     0.04107  0.09774   0.959  0.000  0.000
   351H     0.16689  0.37519   0.833  0.000  0.000
   352H     0.03199  0.09098   0.968  0.000  0.000
   353H     0.03113  0.08755   0.969  0.000  0.000
   354H     0.02597  0.08379   0.974  0.000  0.000
   355C     0.01641  0.02390   1.083  2.900  0.000
   356C     0.06758  0.13277   1.110  2.822  0.000
   357C    -0.03363 -0.07803   1.079  2.955  0.000
   358C    -0.03348 -0.07871   1.081  2.952  0.000
   359C     0.06086  0.12096   1.101  2.839  0.000
   360N    -0.15655 -0.50969   1.315  3.842  0.000
   361C    -0.01564 -0.05646   1.092  2.923  0.000
   362C     0.05791  0.12265   1.122  2.820  0.000
   363C    -0.03870 -0.08504   1.092  2.947  0.000
   364C    -0.03880 -0.08421   1.090  2.949  0.000
   365N    -0.28633 -0.47365   1.296  3.991  0.000
   366C     0.06556  0.13675   1.131  2.803  0.000
   367C     0.01530  0.02278   1.082  2.902  0.000
   368C     0.06745  0.13260   1.110  2.822  0.000
   369C    -0.03421 -0.07860   1.078  2.956  0.000
   370C    -0.03364 -0.07888   1.081  2.952  0.000
   371C     0.06062  0.12075   1.100  2.839  0.000
   372N    -0.15679 -0.50990   1.315  3.842  0.000
   373C    -0.01551 -0.05634   1.092  2.923  0.000
   374C     0.05783  0.12253   1.122  2.820  0.000
   375C    -0.03874 -0.08508   1.092  2.947  0.000
   376C    -0.03856 -0.08396   1.090  2.948  0.000
   377C     0.06568  0.13694   1.131  2.803  0.000
   378N    -0.28592 -0.47326   1.296  3.990  0.000
   379H     0.03632  0.09418   0.964  0.000  0.000
   380H     0.04117  0.09784   0.959  0.000  0.000
   381H     0.16686  0.37518   0.833  0.000  0.000
   382H     0.03190  0.09090   0.968  0.000  0.000
   383H     0.03101  0.08744   0.969  0.000  0.000
   384H     0.02563  0.08344   0.974  0.000  0.000
   385H     0.03551  0.09336   0.964  0.000  0.000
   386H     0.04081  0.09748   0.959  0.000  0.000
   387H     0.16690  0.37522   0.833  0.000  0.000
   388H     0.03185  0.09085   0.968  0.000  0.000
   389H     0.03108  0.08750   0.969  0.000  0.000
   390H     0.02605  0.08386   0.974  0.000  0.000

Wiberg/Mayer (AO) data.
largest (>0.10) Wiberg bond orders for each atom

 ---------------------------------------------------------------------------
     #   Z sym  total        # sym  WBO       # sym  WBO       # sym  WBO
 ---------------------------------------------------------------------------
     1   6 C    3.826 --    23 C    1.381     2 C    1.375    25 H    0.995
     2   6 C    3.931 --     1 C    1.375     3 C    1.235     6 N    1.227
     3   6 C    3.843 --     4 C    1.606     2 C    1.235    26 H    0.992
     4   6 C    3.850 --     3 C    1.606     5 C    1.236    27 H    0.992
     5   6 C    3.922 --     7 C    1.369     4 C    1.236     6 N    1.228
     6   7 N    3.261 --     5 C    1.228     2 C    1.227    28 H    0.961
     7   6 C    3.845 --     8 C    1.398     5 C    1.369    29 H    0.995
     8   6 C    3.953 --     7 C    1.398    11 N    1.349     9 C    1.148
     9   6 C    3.866 --    10 C    1.701     8 C    1.148    30 H    0.992
    10   6 C    3.855 --     9 C    1.701    12 C    1.159    31 H    0.999
    11   7 N    2.587 --    12 C    1.418     8 C    1.349
    12   6 C    3.949 --    11 N    1.418    13 C    1.283    10 C    1.159
    13   6 C    3.862 --    14 C    1.288    12 C    1.283    75 C    1.223
    14   6 C    3.909 --    13 C    1.288    15 C    1.260    18 N    1.249
    15   6 C    3.840 --    16 C    1.593    14 C    1.260    32 H    0.998
    16   6 C    3.843 --    15 C    1.593    17 C    1.242    33 H    0.992
    17   6 C    3.918 --    19 C    1.376    16 C    1.242    18 N    1.218
    18   7 N    3.271 --    14 C    1.249    17 C    1.218    34 H    0.959
    19   6 C    3.832 --    20 C    1.383    17 C    1.376    35 H    0.995
    20   6 C    3.972 --    19 C    1.383    24 N    1.377    21 C    1.141
    21   6 C    3.869 --    22 C    1.714    20 C    1.141    36 H    0.993
    22   6 C    3.867 --    21 C    1.714    23 C    1.142    37 H    0.993
    23   6 C    3.975 --     1 C    1.381    24 N    1.377    22 C    1.142
    24   7 N    2.573 --    23 C    1.377    20 C    1.377
    25   1 H    1.030 --     1 C    0.995
    26   1 H    1.013 --     3 C    0.992
    27   1 H    1.014 --     4 C    0.992
    28   1 H    1.079 --     6 N    0.961
    29   1 H    1.033 --     7 C    0.995
    30   1 H    1.017 --     9 C    0.992
    31   1 H    1.029 --    10 C    0.999
    32   1 H    1.022 --    15 C    0.998
    33   1 H    1.014 --    16 C    0.992
    34   1 H    1.082 --    18 N    0.959
    35   1 H    1.031 --    19 C    0.995
    36   1 H    1.017 --    21 C    0.993
    37   1 H    1.017 --    22 C    0.993
    38   6 C    3.826 --    60 C    1.381    39 C    1.375    62 H    0.995
    39   6 C    3.931 --    38 C    1.375    40 C    1.235    43 N    1.227
    40   6 C    3.843 --    41 C    1.606    39 C    1.235    63 H    0.992
    41   6 C    3.850 --    40 C    1.606    42 C    1.236    64 H    0.992
    42   6 C    3.922 --    44 C    1.369    41 C    1.236    43 N    1.228
    43   7 N    3.261 --    42 C    1.228    39 C    1.227    65 H    0.961
    44   6 C    3.845 --    45 C    1.398    42 C    1.369    66 H    0.995
    45   6 C    3.953 --    44 C    1.398    48 N    1.349    46 C    1.148
    46   6 C    3.866 --    47 C    1.701    45 C    1.148    67 H    0.992
    47   6 C    3.855 --    46 C    1.701    49 C    1.159    68 H    0.999
    48   7 N    2.587 --    49 C    1.418    45 C    1.349
    49   6 C    3.949 --    48 N    1.418    50 C    1.283    47 C    1.159
    50   6 C    3.862 --    51 C    1.288    49 C    1.283   138 C    1.222
    51   6 C    3.909 --    50 C    1.288    52 C    1.260    55 N    1.249
    52   6 C    3.840 --    53 C    1.593    51 C    1.260    69 H    0.998
    53   6 C    3.843 --    52 C    1.593    54 C    1.242    70 H    0.992
    54   6 C    3.918 --    56 C    1.376    53 C    1.242    55 N    1.218
    55   7 N    3.271 --    51 C    1.249    54 C    1.218    71 H    0.959
    56   6 C    3.832 --    57 C    1.383    54 C    1.376    72 H    0.995
    57   6 C    3.972 --    56 C    1.383    61 N    1.377    58 C    1.141
    58   6 C    3.869 --    59 C    1.714    57 C    1.141    73 H    0.993
    59   6 C    3.867 --    58 C    1.714    60 C    1.142    74 H    0.993
    60   6 C    3.975 --    38 C    1.381    61 N    1.377    59 C    1.142
    61   7 N    2.573 --    60 C    1.377    57 C    1.377
    62   1 H    1.030 --    38 C    0.995
    63   1 H    1.013 --    40 C    0.992
    64   1 H    1.014 --    41 C    0.992
    65   1 H    1.079 --    43 N    0.961
    66   1 H    1.033 --    44 C    0.995
    67   1 H    1.017 --    46 C    0.992
    68   1 H    1.029 --    47 C    0.999
    69   1 H    1.022 --    52 C    0.998
    70   1 H    1.014 --    53 C    0.992
    71   1 H    1.082 --    55 N    0.959
    72   1 H    1.031 --    56 C    0.995
    73   1 H    1.017 --    58 C    0.993
    74   1 H    1.017 --    59 C    0.993
    75   6 C    3.757 --    76 C    2.461    13 C    1.223    78 C    0.168
    76   6 C    3.815 --    75 C    2.461    77 C    1.365
    77   6 C    3.804 --    78 C    2.343    76 C    1.365    80 C    0.163
    78   6 C    3.841 --    77 C    2.343    79 C    1.393    75 C    0.168
    79   6 C    3.838 --    80 C    2.341    78 C    1.393    82 C    0.168
    80   6 C    3.806 --    79 C    2.341    81 C    1.367    77 C    0.163
    81   6 C    3.809 --    82 C    2.455    80 C    1.367
    82   6 C    3.759 --    81 C    2.455   139 C    1.228    79 C    0.168
    83   6 C    3.757 --    84 C    2.452   151 C    1.230    86 C    0.167
    84   6 C    3.809 --    83 C    2.452    85 C    1.370
    85   6 C    3.803 --    86 C    2.337    84 C    1.370    88 C    0.162
    86   6 C    3.837 --    85 C    2.337    87 C    1.397    83 C    0.167
    87   6 C    3.838 --    88 C    2.337    86 C    1.397    90 C    0.167
    88   6 C    3.803 --    87 C    2.337    89 C    1.370    85 C    0.162
    89   6 C    3.809 --    90 C    2.453    88 C    1.370
    90   6 C    3.757 --    89 C    2.453   175 C    1.230    87 C    0.167
    91   6 C    3.757 --    92 C    2.453   187 C    1.229    94 C    0.167
    92   6 C    3.809 --    91 C    2.453    93 C    1.369
    93   6 C    3.804 --    94 C    2.337    92 C    1.369    96 C    0.162
    94   6 C    3.838 --    93 C    2.337    95 C    1.396    91 C    0.167
    95   6 C    3.838 --    96 C    2.337    94 C    1.396    98 C    0.167
    96   6 C    3.804 --    95 C    2.337    97 C    1.369    93 C    0.162
    97   6 C    3.810 --    98 C    2.454    96 C    1.369
    98   6 C    3.757 --    97 C    2.454   211 C    1.229    95 C    0.167
    99   6 C    3.757 --   100 C    2.454   223 C    1.229   102 C    0.167
   100   6 C    3.810 --    99 C    2.454   101 C    1.369
   101   6 C    3.804 --   102 C    2.338   100 C    1.369   104 C    0.162
   102   6 C    3.838 --   101 C    2.338   103 C    1.396    99 C    0.167
   103   6 C    3.838 --   104 C    2.338   102 C    1.396   106 C    0.167
   104   6 C    3.804 --   103 C    2.338   105 C    1.369   101 C    0.162
   105   6 C    3.810 --   106 C    2.454   104 C    1.369
   106   6 C    3.757 --   105 C    2.454   247 C    1.229   103 C    0.167
   107   6 C    3.757 --   108 C    2.454   259 C    1.229   110 C    0.167
   108   6 C    3.810 --   107 C    2.454   109 C    1.369
   109   6 C    3.804 --   110 C    2.338   108 C    1.369   112 C    0.162
   110   6 C    3.838 --   109 C    2.338   111 C    1.396   107 C    0.167
   111   6 C    3.838 --   112 C    2.338   110 C    1.396   114 C    0.167
   112   6 C    3.804 --   111 C    2.338   113 C    1.369   109 C    0.162
   113   6 C    3.810 --   114 C    2.454   112 C    1.369
   114   6 C    3.757 --   113 C    2.454   283 C    1.229   111 C    0.167
   115   6 C    3.757 --   116 C    2.454   295 C    1.229   118 C    0.167
   116   6 C    3.810 --   115 C    2.454   117 C    1.369
   117   6 C    3.804 --   118 C    2.337   116 C    1.369   120 C    0.162
   118   6 C    3.838 --   117 C    2.337   119 C    1.396   115 C    0.167
   119   6 C    3.838 --   120 C    2.337   118 C    1.396   122 C    0.167
   120   6 C    3.804 --   119 C    2.337   121 C    1.369   117 C    0.162
   121   6 C    3.809 --   122 C    2.453   120 C    1.369
   122   6 C    3.757 --   121 C    2.453   319 C    1.230   119 C    0.167
   123   6 C    3.757 --   124 C    2.453   331 C    1.230   126 C    0.167
   124   6 C    3.809 --   123 C    2.453   125 C    1.370
   125   6 C    3.803 --   126 C    2.337   124 C    1.370   128 C    0.162
   126   6 C    3.838 --   125 C    2.337   127 C    1.397   123 C    0.167
   127   6 C    3.837 --   128 C    2.337   126 C    1.397   130 C    0.167
   128   6 C    3.803 --   127 C    2.337   129 C    1.370   125 C    0.162
   129   6 C    3.809 --   130 C    2.452   128 C    1.370
   130   6 C    3.757 --   129 C    2.452   355 C    1.230   127 C    0.167
   131   6 C    3.759 --   132 C    2.455   367 C    1.228   134 C    0.168
   132   6 C    3.809 --   131 C    2.455   133 C    1.367
   133   6 C    3.806 --   134 C    2.341   132 C    1.367   136 C    0.163
   134   6 C    3.838 --   133 C    2.341   135 C    1.393   131 C    0.168
   135   6 C    3.841 --   136 C    2.343   134 C    1.393   138 C    0.168
   136   6 C    3.804 --   135 C    2.343   137 C    1.364   133 C    0.163
   137   6 C    3.815 --   138 C    2.461   136 C    1.364
   138   6 C    3.757 --   137 C    2.461    50 C    1.222   135 C    0.168
   139   6 C    3.841 --   140 C    1.281   161 C    1.279    82 C    1.228
   140   6 C    3.910 --   139 C    1.281   141 C    1.265   144 N    1.250
   141   6 C    3.831 --   142 C    1.584   140 C    1.265   163 H    0.998
   142   6 C    3.843 --   141 C    1.584   143 C    1.249   164 H    0.992
   143   6 C    3.910 --   145 C    1.365   142 C    1.249   144 N    1.219
   144   7 N    3.264 --   140 C    1.250   143 C    1.219   165 H    0.960
   145   6 C    3.834 --   146 C    1.402   143 C    1.365   166 H    0.995
   146   6 C    3.951 --   145 C    1.402   149 N    1.346   147 C    1.149
   147   6 C    3.866 --   148 C    1.699   146 C    1.149   167 H    0.993
   148   6 C    3.852 --   147 C    1.699   150 C    1.161   168 H    0.999
   149   7 N    2.572 --   150 C    1.420   146 C    1.346
   150   6 C    3.950 --   149 N    1.420   151 C    1.279   148 C    1.161
   151   6 C    3.841 --   152 C    1.281   150 C    1.279    83 C    1.230
   152   6 C    3.909 --   151 C    1.281   153 C    1.266   156 N    1.250
   153   6 C    3.831 --   154 C    1.584   152 C    1.266   169 H    0.998
   154   6 C    3.843 --   153 C    1.584   155 C    1.249   170 H    0.992
   155   6 C    3.910 --   157 C    1.364   154 C    1.249   156 N    1.219
   156   7 N    3.265 --   152 C    1.250   155 C    1.219   171 H    0.960
   157   6 C    3.834 --   158 C    1.403   155 C    1.364   172 H    0.995
   158   6 C    3.952 --   157 C    1.403   162 N    1.345   159 C    1.149
   159   6 C    3.866 --   160 C    1.700   158 C    1.149   173 H    0.993
   160   6 C    3.852 --   159 C    1.700   161 C    1.161   174 H    0.999
   161   6 C    3.950 --   162 N    1.420   139 C    1.279   160 C    1.161
   162   7 N    2.571 --   161 C    1.420   158 C    1.345
   163   1 H    1.023 --   141 C    0.998
   164   1 H    1.015 --   142 C    0.992
   165   1 H    1.082 --   144 N    0.960
   166   1 H    1.034 --   145 C    0.995
   167   1 H    1.018 --   147 C    0.993
   168   1 H    1.027 --   148 C    0.999
   169   1 H    1.022 --   153 C    0.998
   170   1 H    1.015 --   154 C    0.992
   171   1 H    1.082 --   156 N    0.960
   172   1 H    1.033 --   157 C    0.995
   173   1 H    1.018 --   159 C    0.993
   174   1 H    1.027 --   160 C    0.999
   175   6 C    3.842 --   176 C    1.280   197 C    1.279    90 C    1.230
   176   6 C    3.910 --   175 C    1.280   177 C    1.265   180 N    1.250
   177   6 C    3.831 --   178 C    1.584   176 C    1.265   199 H    0.998
   178   6 C    3.843 --   177 C    1.584   179 C    1.249   200 H    0.992
   179   6 C    3.911 --   181 C    1.364   178 C    1.249   180 N    1.219
   180   7 N    3.265 --   176 C    1.250   179 C    1.219   201 H    0.960
   181   6 C    3.834 --   182 C    1.402   179 C    1.364   202 H    0.995
   182   6 C    3.952 --   181 C    1.402   185 N    1.345   183 C    1.149
   183   6 C    3.866 --   184 C    1.700   182 C    1.149   203 H    0.993
   184   6 C    3.852 --   183 C    1.700   186 C    1.161   204 H    0.999
   185   7 N    2.572 --   186 C    1.420   182 C    1.345
   186   6 C    3.950 --   185 N    1.420   187 C    1.279   184 C    1.161
   187   6 C    3.842 --   188 C    1.281   186 C    1.279    91 C    1.229
   188   6 C    3.910 --   187 C    1.281   189 C    1.265   192 N    1.250
   189   6 C    3.832 --   190 C    1.585   188 C    1.265   205 H    0.998
   190   6 C    3.844 --   189 C    1.585   191 C    1.249   206 H    0.992
   191   6 C    3.911 --   193 C    1.365   190 C    1.249   192 N    1.219
   192   7 N    3.265 --   188 C    1.250   191 C    1.219   207 H    0.960
   193   6 C    3.834 --   194 C    1.402   191 C    1.365   208 H    0.995
   194   6 C    3.952 --   193 C    1.402   198 N    1.346   195 C    1.149
   195   6 C    3.866 --   196 C    1.700   194 C    1.149   209 H    0.993
   196   6 C    3.852 --   195 C    1.700   197 C    1.161   210 H    0.999
   197   6 C    3.950 --   198 N    1.420   175 C    1.279   196 C    1.161
   198   7 N    2.572 --   197 C    1.420   194 C    1.346
   199   1 H    1.022 --   177 C    0.998
   200   1 H    1.015 --   178 C    0.992
   201   1 H    1.082 --   180 N    0.960
   202   1 H    1.033 --   181 C    0.995
   203   1 H    1.018 --   183 C    0.993
   204   1 H    1.027 --   184 C    0.999
   205   1 H    1.022 --   189 C    0.998
   206   1 H    1.015 --   190 C    0.992
   207   1 H    1.082 --   192 N    0.960
   208   1 H    1.033 --   193 C    0.995
   209   1 H    1.018 --   195 C    0.993
   210   1 H    1.027 --   196 C    0.999
   211   6 C    3.844 --   212 C    1.281   233 C    1.280    98 C    1.229
   212   6 C    3.910 --   211 C    1.281   213 C    1.265   216 N    1.250
   213   6 C    3.832 --   214 C    1.585   212 C    1.265   235 H    0.998
   214   6 C    3.844 --   213 C    1.585   215 C    1.249   236 H    0.992
   215   6 C    3.911 --   217 C    1.365   214 C    1.249   216 N    1.219
   216   7 N    3.265 --   212 C    1.250   215 C    1.219   237 H    0.960
   217   6 C    3.834 --   218 C    1.402   215 C    1.365   238 H    0.995
   218   6 C    3.952 --   217 C    1.402   221 N    1.346   219 C    1.149
   219   6 C    3.866 --   220 C    1.700   218 C    1.149   239 H    0.993
   220   6 C    3.853 --   219 C    1.700   222 C    1.161   240 H    0.999
   221   7 N    2.573 --   222 C    1.420   218 C    1.346
   222   6 C    3.950 --   221 N    1.420   223 C    1.280   220 C    1.161
   223   6 C    3.844 --   224 C    1.281   222 C    1.280    99 C    1.229
   224   6 C    3.910 --   223 C    1.281   225 C    1.265   228 N    1.250
   225   6 C    3.832 --   226 C    1.585   224 C    1.265   241 H    0.998
   226   6 C    3.844 --   225 C    1.585   227 C    1.249   242 H    0.992
   227   6 C    3.911 --   229 C    1.365   226 C    1.249   228 N    1.219
   228   7 N    3.265 --   224 C    1.250   227 C    1.219   243 H    0.960
   229   6 C    3.834 --   230 C    1.402   227 C    1.365   244 H    0.995
   230   6 C    3.952 --   229 C    1.402   234 N    1.346   231 C    1.149
   231   6 C    3.866 --   232 C    1.700   230 C    1.149   245 H    0.993
   232   6 C    3.852 --   231 C    1.700   233 C    1.161   246 H    0.999
   233   6 C    3.950 --   234 N    1.420   211 C    1.280   232 C    1.161
   234   7 N    2.573 --   233 C    1.420   230 C    1.346
   235   1 H    1.022 --   213 C    0.998
   236   1 H    1.015 --   214 C    0.992
   237   1 H    1.082 --   216 N    0.960
   238   1 H    1.033 --   217 C    0.995
   239   1 H    1.017 --   219 C    0.993
   240   1 H    1.027 --   220 C    0.999
   241   1 H    1.022 --   225 C    0.998
   242   1 H    1.015 --   226 C    0.992
   243   1 H    1.081 --   228 N    0.960
   244   1 H    1.033 --   229 C    0.995
   245   1 H    1.017 --   231 C    0.993
   246   1 H    1.027 --   232 C    0.999
   247   6 C    3.844 --   248 C    1.281   269 C    1.280   106 C    1.229
   248   6 C    3.910 --   247 C    1.281   249 C    1.265   252 N    1.250
   249   6 C    3.832 --   250 C    1.585   248 C    1.265   271 H    0.998
   250   6 C    3.844 --   249 C    1.585   251 C    1.249   272 H    0.992
   251   6 C    3.911 --   253 C    1.365   250 C    1.249   252 N    1.219
   252   7 N    3.265 --   248 C    1.250   251 C    1.219   273 H    0.960
   253   6 C    3.834 --   254 C    1.402   251 C    1.365   274 H    0.995
   254   6 C    3.952 --   253 C    1.402   257 N    1.346   255 C    1.149
   255   6 C    3.866 --   256 C    1.700   254 C    1.149   275 H    0.993
   256   6 C    3.852 --   255 C    1.700   258 C    1.161   276 H    0.999
   257   7 N    2.573 --   258 C    1.420   254 C    1.346
   258   6 C    3.950 --   257 N    1.420   259 C    1.280   256 C    1.161
   259   6 C    3.844 --   260 C    1.281   258 C    1.280   107 C    1.229
   260   6 C    3.910 --   259 C    1.281   261 C    1.265   264 N    1.250
   261   6 C    3.832 --   262 C    1.585   260 C    1.265   277 H    0.998
   262   6 C    3.844 --   261 C    1.585   263 C    1.249   278 H    0.992
   263   6 C    3.911 --   265 C    1.365   262 C    1.249   264 N    1.219
   264   7 N    3.265 --   260 C    1.250   263 C    1.219   279 H    0.960
   265   6 C    3.834 --   266 C    1.402   263 C    1.365   280 H    0.995
   266   6 C    3.952 --   265 C    1.402   270 N    1.346   267 C    1.149
   267   6 C    3.866 --   268 C    1.700   266 C    1.149   281 H    0.993
   268   6 C    3.853 --   267 C    1.700   269 C    1.161   282 H    0.999
   269   6 C    3.950 --   270 N    1.420   247 C    1.280   268 C    1.161
   270   7 N    2.573 --   269 C    1.420   266 C    1.346
   271   1 H    1.022 --   249 C    0.998
   272   1 H    1.015 --   250 C    0.992
   273   1 H    1.081 --   252 N    0.960
   274   1 H    1.033 --   253 C    0.995
   275   1 H    1.017 --   255 C    0.993
   276   1 H    1.027 --   256 C    0.999
   277   1 H    1.022 --   261 C    0.998
   278   1 H    1.015 --   262 C    0.992
   279   1 H    1.081 --   264 N    0.960
   280   1 H    1.033 --   265 C    0.995
   281   1 H    1.017 --   267 C    0.993
   282   1 H    1.027 --   268 C    0.999
   283   6 C    3.844 --   284 C    1.281   305 C    1.279   114 C    1.229
   284   6 C    3.910 --   283 C    1.281   285 C    1.265   288 N    1.250
   285   6 C    3.832 --   286 C    1.585   284 C    1.265   307 H    0.998
   286   6 C    3.844 --   285 C    1.585   287 C    1.249   308 H    0.992
   287   6 C    3.911 --   289 C    1.365   286 C    1.249   288 N    1.219
   288   7 N    3.265 --   284 C    1.250   287 C    1.219   309 H    0.960
   289   6 C    3.834 --   290 C    1.402   287 C    1.365   310 H    0.995
   290   6 C    3.952 --   289 C    1.402   293 N    1.346   291 C    1.149
   291   6 C    3.866 --   292 C    1.700   290 C    1.149   311 H    0.993
   292   6 C    3.852 --   291 C    1.700   294 C    1.161   312 H    0.999
   293   7 N    2.573 --   294 C    1.420   290 C    1.346
   294   6 C    3.950 --   293 N    1.420   295 C    1.279   292 C    1.161
   295   6 C    3.844 --   296 C    1.281   294 C    1.279   115 C    1.229
   296   6 C    3.910 --   295 C    1.281   297 C    1.265   300 N    1.250
   297   6 C    3.832 --   298 C    1.585   296 C    1.265   313 H    0.998
   298   6 C    3.844 --   297 C    1.585   299 C    1.249   314 H    0.992
   299   6 C    3.911 --   301 C    1.365   298 C    1.249   300 N    1.219
   300   7 N    3.265 --   296 C    1.250   299 C    1.219   315 H    0.960
   301   6 C    3.834 --   302 C    1.402   299 C    1.365   316 H    0.995
   302   6 C    3.952 --   301 C    1.402   306 N    1.346   303 C    1.149
   303   6 C    3.866 --   304 C    1.700   302 C    1.149   317 H    0.993
   304   6 C    3.852 --   303 C    1.700   305 C    1.161   318 H    0.999
   305   6 C    3.950 --   306 N    1.420   283 C    1.279   304 C    1.161
   306   7 N    2.573 --   305 C    1.420   302 C    1.346
   307   1 H    1.022 --   285 C    0.998
   308   1 H    1.015 --   286 C    0.992
   309   1 H    1.081 --   288 N    0.960
   310   1 H    1.033 --   289 C    0.995
   311   1 H    1.017 --   291 C    0.993
   312   1 H    1.027 --   292 C    0.999
   313   1 H    1.022 --   297 C    0.998
   314   1 H    1.015 --   298 C    0.992
   315   1 H    1.082 --   300 N    0.960
   316   1 H    1.033 --   301 C    0.995
   317   1 H    1.017 --   303 C    0.993
   318   1 H    1.027 --   304 C    0.999
   319   6 C    3.842 --   320 C    1.281   341 C    1.279   122 C    1.230
   320   6 C    3.910 --   319 C    1.281   321 C    1.265   324 N    1.250
   321   6 C    3.832 --   322 C    1.585   320 C    1.265   343 H    0.998
   322   6 C    3.844 --   321 C    1.585   323 C    1.249   344 H    0.992
   323   6 C    3.911 --   325 C    1.365   322 C    1.249   324 N    1.219
   324   7 N    3.265 --   320 C    1.250   323 C    1.219   345 H    0.960
   325   6 C    3.834 --   326 C    1.402   323 C    1.365   346 H    0.995
   326   6 C    3.952 --   325 C    1.402   329 N    1.346   327 C    1.149
   327   6 C    3.866 --   328 C    1.700   326 C    1.149   347 H    0.993
   328   6 C    3.852 --   327 C    1.700   330 C    1.161   348 H    0.999
   329   7 N    2.572 --   330 C    1.420   326 C    1.346
   330   6 C    3.950 --   329 N    1.420   331 C    1.279   328 C    1.161
   331   6 C    3.842 --   332 C    1.280   330 C    1.279   123 C    1.230
   332   6 C    3.910 --   331 C    1.280   333 C    1.265   336 N    1.250
   333   6 C    3.831 --   334 C    1.584   332 C    1.265   349 H    0.998
   334   6 C    3.843 --   333 C    1.584   335 C    1.249   350 H    0.992
   335   6 C    3.911 --   337 C    1.364   334 C    1.249   336 N    1.219
   336   7 N    3.265 --   332 C    1.250   335 C    1.219   351 H    0.960
   337   6 C    3.834 --   338 C    1.402   335 C    1.364   352 H    0.995
   338   6 C    3.952 --   337 C    1.402   342 N    1.345   339 C    1.149
   339   6 C    3.866 --   340 C    1.700   338 C    1.149   353 H    0.993
   340   6 C    3.852 --   339 C    1.700   341 C    1.161   354 H    0.999
   341   6 C    3.950 --   342 N    1.420   319 C    1.279   340 C    1.161
   342   7 N    2.572 --   341 C    1.420   338 C    1.345
   343   1 H    1.022 --   321 C    0.998
   344   1 H    1.015 --   322 C    0.992
   345   1 H    1.082 --   324 N    0.960
   346   1 H    1.033 --   325 C    0.995
   347   1 H    1.018 --   327 C    0.993
   348   1 H    1.027 --   328 C    0.999
   349   1 H    1.022 --   333 C    0.998
   350   1 H    1.015 --   334 C    0.992
   351   1 H    1.082 --   336 N    0.960
   352   1 H    1.033 --   337 C    0.995
   353   1 H    1.018 --   339 C    0.993
   354   1 H    1.027 --   340 C    0.999
   355   6 C    3.841 --   356 C    1.280   377 C    1.279   130 C    1.230
   356   6 C    3.909 --   355 C    1.280   357 C    1.266   360 N    1.250
   357   6 C    3.831 --   358 C    1.584   356 C    1.266   379 H    0.998
   358   6 C    3.843 --   357 C    1.584   359 C    1.249   380 H    0.992
   359   6 C    3.910 --   361 C    1.364   358 C    1.249   360 N    1.219
   360   7 N    3.265 --   356 C    1.250   359 C    1.219   381 H    0.960
   361   6 C    3.834 --   362 C    1.403   359 C    1.364   382 H    0.995
   362   6 C    3.952 --   361 C    1.403   365 N    1.345   363 C    1.149
   363   6 C    3.866 --   364 C    1.700   362 C    1.149   383 H    0.993
   364   6 C    3.852 --   363 C    1.700   366 C    1.161   384 H    0.999
   365   7 N    2.571 --   366 C    1.420   362 C    1.345
   366   6 C    3.950 --   365 N    1.420   367 C    1.280   364 C    1.161
   367   6 C    3.841 --   368 C    1.281   366 C    1.280   131 C    1.228
   368   6 C    3.910 --   367 C    1.281   369 C    1.265   372 N    1.250
   369   6 C    3.831 --   370 C    1.585   368 C    1.265   385 H    0.998
   370   6 C    3.843 --   369 C    1.585   371 C    1.249   386 H    0.992
   371   6 C    3.910 --   373 C    1.365   370 C    1.249   372 N    1.219
   372   7 N    3.264 --   368 C    1.250   371 C    1.219   387 H    0.960
   373   6 C    3.834 --   374 C    1.402   371 C    1.365   388 H    0.995
   374   6 C    3.951 --   373 C    1.402   378 N    1.346   375 C    1.149
   375   6 C    3.866 --   376 C    1.699   374 C    1.149   389 H    0.993
   376   6 C    3.852 --   375 C    1.699   377 C    1.161   390 H    0.999
   377   6 C    3.950 --   378 N    1.420   355 C    1.279   376 C    1.161
   378   7 N    2.572 --   377 C    1.420   374 C    1.346
   379   1 H    1.022 --   357 C    0.998
   380   1 H    1.015 --   358 C    0.992
   381   1 H    1.082 --   360 N    0.960
   382   1 H    1.033 --   361 C    0.995
   383   1 H    1.018 --   363 C    0.993
   384   1 H    1.027 --   364 C    0.999
   385   1 H    1.023 --   369 C    0.998
   386   1 H    1.015 --   370 C    0.992
   387   1 H    1.082 --   372 N    0.960
   388   1 H    1.034 --   373 C    0.995
   389   1 H    1.018 --   375 C    0.993
   390   1 H    1.027 --   376 C    0.999
 ---------------------------------------------------------------------------

Topologies differ in total number of bonds
Writing topology from bond orders to xtbtopo.mol

 dipole moment from electron density (au)
     X       Y       Z   
-222.6603   0.0096  -0.0031  total (Debye):  565.946


           -------------------------------------------------
          | TOTAL ENERGY             -785.439876201716 Eh   |
          | GRADIENT NORM               0.109070986599 Eh/α |
          | HOMO-LUMO GAP               0.030402186059 eV   |
           -------------------------------------------------
########################################################################
[WARNING] Runtime exception occurred
-1- restart_readRestart: Dimension missmatch in restart file.
########################################################################

------------------------------------------------------------------------
 * finished run on 2022/07/26 at 17:54:41.814     
------------------------------------------------------------------------
 total:
 * wall-time:     0 d,  0 h,  1 min,  2.870 sec
 *  cpu-time:     0 d,  0 h,  1 min,  2.514 sec
 * ratio c/w:     0.994 speedup
 SCF:
 * wall-time:     0 d,  0 h,  1 min,  1.982 sec
 *  cpu-time:     0 d,  0 h,  1 min,  1.653 sec
 * ratio c/w:     0.995 speedup

