124
 energy: -223.227685080878 gnorm: 1.904035032361 xtb: 6.5.1 (b24c23e)
Co          15.96758300000000       -0.00853000000000       -0.00101800000000
C           12.60583000000000        0.12657600000000       -0.12004200000000
C           13.27189000000000        1.28026900000000       -0.01961000000000
C           12.62206400000000        2.58186800000000        0.07432200000000
C           13.56216800000000        3.49608700000000        0.21954500000000
C           14.86750300000000        2.82102000000000        0.22050600000000
N           14.69013200000000        1.41245400000000        0.06567200000000
C           16.05691700000000        3.43335700000000        0.39355800000000
C           16.09324900000000        4.90029900000000        0.58609700000000
C           16.34811100000000        5.43801400000000        1.85574500000000
C           16.38685400000000        6.82320700000000        2.03889100000000
C           16.16651000000000        7.68869600000000        0.95324800000000
C           16.19983500000000        9.15222100000000        1.12710900000000
O           16.43418400000000        9.66852300000000        2.25236000000000
C           15.91042400000000        7.14679100000000       -0.31595200000000
C           15.87640800000000        5.76155000000000       -0.49948500000000
C           17.35266000000000        2.70244000000000        0.41024500000000
C           18.64744300000000        3.34428000000000        0.66894700000000
C           19.58159700000000        2.42097800000000        0.57611100000000
N           17.49135600000000        1.43603200000000        0.15909600000000
C           18.89329300000000        1.17892200000000        0.24738700000000
C           19.48940600000000        0.00022600000000        0.00006400000000
C           18.73451800000000       -1.22322800000000       -0.35838000000000
C           19.28813999999999       -2.31167000000000       -0.87837700000000
C           18.24417300000000       -3.30661900000000       -1.01209800000000
C           17.11946800000000       -2.76295000000000       -0.56312000000000
N           17.33798900000000       -1.41849800000000       -0.12895600000000
C           15.82276700000000       -3.48313500000000       -0.47684600000000
C           15.83225600000000       -4.96316200000000       -0.55234600000000
C           15.26992400000000       -5.62236200000000       -1.65681200000000
C           15.29942200000000       -7.01762600000000       -1.73390800000000
C           15.89629000000000       -7.77222500000000       -0.71160000000000
C           15.92401500000000       -9.24280600000000       -0.81296100000000
O           16.50005800000000       -9.94416900000000        0.05957800000000
C           16.46398900000000       -7.10970400000000        0.39136800000000
C           16.43460600000000       -5.71433300000000        0.46741900000000
C           14.65452500000000       -2.82978300000000       -0.33316800000000
C           13.33282300000000       -3.44344000000000       -0.21600000000000
C           12.47237700000000       -2.44784600000000       -0.13054100000000
C           13.23529300000000       -1.20184300000000       -0.18049000000000
N           14.50875500000000       -1.41161300000000       -0.29864600000000
H           11.52255900000000        0.15939100000000       -0.13688100000000
H           11.55822500000000        2.77963500000000        0.04704900000000
H           13.37365200000000        4.55602900000000        0.32982500000000
H           16.51754900000000        4.78334100000000        2.70198400000000
H           16.58747100000000        7.21579700000000        3.02786800000000
H           16.02234500000000        9.80211400000000        0.27985700000000
H           15.73750100000000        7.79612700000000       -1.16559300000000
H           15.67938400000000        5.35871600000000       -1.48569200000000
H           18.82999400000000        4.38764500000000        0.88796500000000
H           20.64255900000000        2.58837400000000        0.70609900000000
H           20.32825300000000       -2.44857100000000       -1.14156300000000
H           18.36813300000000       -4.31171500000000       -1.39331800000000
H           14.81355100000000       -5.05446600000000       -2.45915500000000
H           14.86155300000000       -7.50821700000000       -2.59549000000000
H           15.45247300000000       -9.73567500000000       -1.65317700000000
H           16.93023500000000       -7.66877900000000        1.19371100000000
H           16.87775400000000       -5.21856600000000        1.32283500000000
H           13.08171300000000       -4.49596800000000       -0.19699400000000
H           11.39936900000000       -2.54991800000000       -0.03240500000000
Co          29.16715900000000        0.00904700000000        0.00024000000000
C           32.52891200000000       -0.10773300000000       -0.13681100000000
C           31.86285300000000       -1.26396900000000       -0.20169600000000
C           32.51267800000000       -2.56567900000000       -0.29407900000000
C           31.57257400000000       -3.49126100000000       -0.28052700000000
C           30.26723900000000       -2.82321200000000       -0.18344200000000
N           30.44461000000000       -1.40695200000000       -0.13610800000000
C           29.07782500000000       -3.45395200000000       -0.09935400000000
C           29.04149300000000       -4.93336200000000       -0.11768100000000
C           28.78663100000000       -5.64640300000000        1.06245300000000
C           28.74788800000000       -7.04356000000000        1.04647100000000
C           28.96823200000000       -7.74562400000000       -0.15135900000000
C           28.93490700000000       -9.21899200000000       -0.18768600000000
O           28.70055800000000       -9.89027600000000        0.85257200000000
C           29.22431800000000       -7.02849900000000       -1.33045300000000
C           29.25833400000000       -5.63124000000000       -1.31484700000000
C           27.78208200000000       -2.73286000000000        0.02125000000000
C           26.48729900000000       -3.40499900000000        0.18591300000000
C           25.55314500000000       -2.47788700000000        0.22550800000000
N           27.64338600000000       -1.44359300000000       -0.04699400000000
C           26.24144900000000       -1.20167700000000        0.07701200000000
C           25.64533700000000        0.00022600000000        0.00006400000000
C           26.40022400000000        1.26225600000000       -0.18049900000000
C           25.84660200000000        2.41365600000000       -0.54019400000000
C           26.89056900000000        3.41750800000000       -0.53086400000000
C           28.01527400000000        2.81544100000000       -0.16388500000000
N           27.79675400000000        1.42286400000000        0.07439500000000
C           29.31197500000000        3.51600000000000        0.02407000000000
C           29.30248600000000        4.99169500000000        0.16010500000000
C           29.86481800000000        5.80146000000000       -0.83922900000000
C           29.83532000000000        7.19348300000000       -0.71684400000000
C           29.23845200000000        7.79480700000000        0.40250500000000
C           29.21072800000000        9.26483600000000        0.51159800000000
O           28.63468400000000        9.83479500000000        1.47512300000000
C           28.67075300000000        6.98196900000000        1.39988400000000
C           28.70013600000000        5.58998900000000        1.27644900000000
C           30.48021700000000        2.84884700000000        0.07324200000000
C           31.80191900000000        3.43956400000000        0.27660400000000
C           32.66236500000000        2.44194700000000        0.21941300000000
C           31.89944900000000        1.21575700000000       -0.00746700000000
N           30.62598700000000        1.44021400000000       -0.09454600000000
H           33.61218300000000       -0.13781500000000       -0.15815100000000
H           33.57651700000000       -2.75754600000000       -0.34923700000000
H           31.76109000000000       -4.55610600000000       -0.32231400000000
H           28.61719300000000       -5.11891300000000        1.99329800000000
H           28.54727099999999       -7.57298600000000        1.96946100000000
H           29.11239700000000       -9.74160700000000       -1.11885200000000
H           29.39724100000000       -7.55022300000000       -2.26390400000000
H           29.45535800000000       -5.09206900000000       -2.23363600000000
H           26.30474800000000       -4.46892000000000        0.25411600000000
H           24.49218300000000       -2.66208800000000        0.33033300000000
H           24.80648900000000        2.58664100000000       -0.78120200000000
H           26.76660900000000        4.46664900000000       -0.76506700000000
H           30.32119100000000        5.35361200000000       -1.71426800000000
H           30.27318900000000        7.80176900000000       -1.49978200000000
H           29.68226900000000        9.87233300000000       -0.24986600000000
H           28.20450700000000        7.42108700000000        2.27366500000000
H           28.25698800000000        4.97745700000000        2.05254600000000
H           32.05302900000000        4.47865800000000        0.44530400000000
H           33.73537300000000        2.52900300000000        0.33108400000000
C           21.83188000000000        0.01239700000000        0.00243100000000
C           20.57960900000000       -0.00678400000000       -0.00191800000000
C           23.14554800000000        0.01163100000000        0.00436300000000
C           24.64868100000000       -0.00678400000000       -0.00191800000000
124
 energy: -223.708202232769 gnorm: 0.454275723555 xtb: 6.5.1 (b24c23e)
Co          15.97054228980521       -0.00627895543268       -0.00307310254807
C           12.60685656018118        0.11473423584047       -0.12050651264859
C           13.27800546320154        1.28109505805916       -0.01911936880413
C           12.62118189487607        2.57674477386241        0.07351687310791
C           13.56919696167673        3.49728976759079        0.22005385215437
C           14.86582253260047        2.81326594378416        0.21912006310369
N           14.68331223355120        1.41871141163884        0.06643195150334
C           16.06940845207800        3.43078694024879        0.39404952214859
C           16.09512472835926        4.90179790188594        0.58634395761334
C           16.34852751579344        5.44139994023862        1.85408946647883
C           16.38629489195923        6.82143366922005        2.03664863588858
C           16.16640441829238        7.68918656567326        0.95286309729787
C           16.20305197605258        9.15350175303958        1.14192752884754
O           16.43166488643895        9.66249340760356        2.24069115315988
C           15.91056300051571        7.14415597384268       -0.31472423269613
C           15.87624036362931        5.76356957384504       -0.49722137599191
C           17.34398220299887        2.71900143259231        0.41275177560686
C           18.63572886234612        3.35325745459170        0.66897800909811
C           19.57850368766903        2.41333646811611        0.57462657611373
N           17.48929642796474        1.43262135668192        0.16244273318072
C           18.86147598067028        1.19791519911377        0.25091678674207
C           19.41119246918797       -0.00941870708238       -0.00396582338284
C           18.70695148563301       -1.22411487790642       -0.35470024517342
C           19.28696947288678       -2.32561294728799       -0.88269578637161
C           18.25812899298737       -3.30853546143821       -1.01407523787977
C           17.10702942817745       -2.75612580310295       -0.55593185428495
N           17.33088646388464       -1.42058066078186       -0.13561700460732
C           15.83178142126706       -3.47818688527816       -0.47681238912172
C           15.83562363416321       -4.96283942522161       -0.55375673163629
C           15.27037515808201       -5.62429788028716       -1.65482765527916
C           15.30001398232542       -7.01507788442592       -1.73218454022494
C           15.89593857417408       -7.77252398120550       -0.71189377993186
C           15.93220469807542       -9.24649384491207       -0.80086582377589
O           16.49394625125019       -9.93637744961552        0.05098649105202
C           16.46274134800228       -7.10736496715474        0.38967129215568
C           16.43425803196575       -5.71694729737711        0.46514471739280
C           14.65364004045524       -2.82729486319761       -0.33279011212115
C           13.33898033681293       -3.44379208644154       -0.21651636534017
C           12.46671915223966       -2.43937429212187       -0.13054045474181
C           13.22398142520162       -1.19455715923935       -0.17993187569840
N           14.51402630721465       -1.41465864295509       -0.29497081386442
H           11.52303448236432        0.15708552322361       -0.13692570820982
H           11.55838884761925        2.77570450937080        0.04650256589866
H           13.37850679694406        4.55613056498503        0.32995162221792
H           16.51732119488677        4.78377191260992        2.70094252164488
H           16.58717583887394        7.21695562353952        3.02676916986366
H           16.02197281818544        9.80082041990379        0.27807476961784
H           15.73769626825428        7.79601956658664       -1.16496826495213
H           15.67971105477689        5.35860092540137       -1.48471606036359
H           18.82622337682815        4.39009072293483        0.88808192336218
H           20.64098229816121        2.58253847239049        0.70495567910486
H           20.32787235849079       -2.44938229718147       -1.14197260528174
H           18.37042688487956       -4.31177940957699       -1.39384857697241
H           14.81412853153215       -5.05449759811271       -2.45820423042502
H           14.86195205623244       -7.50810399644243       -2.59472545561827
H           15.45147279526073       -9.73412409366145       -1.65454011928280
H           16.92956963100804       -7.66959151668483        1.19235225330251
H           16.87725446458223       -5.21874866024045        1.32178272874301
H           13.08620351896095       -4.49552110635555       -0.19743428290820
H           11.39807084363389       -2.54649159660624       -0.03234725836422
Co          29.16462659468613        0.00688558814289       -0.00182822095299
C           32.52791680464837       -0.09595510042646       -0.13558984084812
C           31.85672223589359       -1.26489574177364       -0.20129027932275
C           32.51356100301254       -2.56047545028589       -0.29415371538342
C           31.56551263420497       -3.49252547195397       -0.28018805627679
C           30.26891357827878       -2.81552790921816       -0.18368101340422
N           30.45132343832616       -1.41297667471251       -0.13639740913372
C           29.06554990987756       -3.45163798496741       -0.09846543129047
C           29.03965268202918       -4.93488737110746       -0.11764411466771
C           28.78621498206194       -5.64951116313375        1.06033765877378
C           28.74845322408077       -7.04148040518571        1.04450115293923
C           28.96833790307007       -7.74604884535818       -0.15180945529432
C           28.93168554533405       -9.22238042856260       -0.17320054250376
O           28.70308280087280       -9.88263908666924        0.84187745454818
C           29.22417453959674       -7.02606309311920       -1.32885801103000
C           29.25850313680403       -5.63355348765455       -1.31289948971449
C           27.79051863423659       -2.75090583687673        0.02143704465460
C           26.49998679619545       -3.41432709986687        0.18455465300046
C           25.55678782544983       -2.46909182293024        0.22500276195014
N           27.64628286439847       -1.44133812604326       -0.04369469054985
C           26.27904508333414       -1.22570650039050        0.07847432837902
C           25.74438664523160        0.01142388977191       -0.00175076630927
C           26.43342629226195        1.26675532465428       -0.17782816455766
C           25.84805357816996        2.42771382243924       -0.54250645123013
C           26.87715239790520        3.41992004074634       -0.53253322168996
C           28.02753154185728        2.80811052212672       -0.15786634334908
N           27.80524061399977        1.42660007322767        0.06853732386356
C           29.30342135758430        3.51121984971381        0.02341813866117
C           29.29914030253394        4.99159176369852        0.15869461989723
C           29.86437225648038        5.80309115035622       -0.83698933230680
C           29.83472538203167        7.19071524962756       -0.71549667205410
C           29.23880314837365        7.79513813158240        0.40225544229122
C           29.20253781875207        9.26678385964304        0.52409772262737
O           28.64079793761178        9.82829127631971        1.46550288205389
C           28.67199958501252        6.97989724612916        1.39787265363442
C           28.70046679210022        5.59290748611401        1.27457730887640
C           30.48102256229355        2.84649471389695        0.07321107703763
C           31.79586117808321        3.44002385074336        0.27616318932289
C           32.66800857291619        2.43366750762749        0.21823609472131
C           31.91064978675742        1.20849699823747       -0.00793174780814
N           30.62083368674872        1.44259244677964       -0.09063402717901
H           33.61171385689473       -0.13552356018478       -0.15787917523547
H           33.57635059104253       -2.75356994324331       -0.34921365615319
H           31.75623563941806       -4.55622068138662       -0.32220329145519
H           28.61741820379408       -5.11918973426097        1.99220616652553
H           28.54756464920387       -7.57397287526043        1.96820642505502
H           29.11276884657020       -9.74007402680588       -1.12043143140027
H           29.39704576356915       -7.55020160911352       -2.26326844898950
H           29.45503056530897       -5.09209314858223       -2.23265658670985
H           26.30853903049350       -4.47139265293206        0.25391318499753
H           24.49384946440796       -2.65553606530002        0.32998122043306
H           24.80681629596746        2.58702882439327       -0.78137001602802
H           26.76429187260028        4.46680434331712       -0.76557667977017
H           30.32061437465376        5.35350579124287       -1.71332186697919
H           30.27278880534572        7.80154427086604       -1.49903957659235
H           29.68326899577671        9.87099402703550       -0.25143503198043
H           28.20517408691913        7.42208538422467        2.27243753886741
H           28.25748778274747        4.97778944895986        2.05153657062563
H           32.04856053934952        4.47829407399619        0.44481061829733
H           33.73666769815304        2.52561583439950        0.33065782610835
C           21.87970805270453        0.00955515519192        0.00235283603578
C           20.66437662841004       -0.01699055852389       -0.00233544341237
C           23.15606941318842        0.01409266102548        0.00474390391196
C           24.46807912426108        0.00332812851192       -0.00126466442598
124
 energy: -223.789828819048 gnorm: 0.225408870794 xtb: 6.5.1 (b24c23e)
Co          15.97337529083713        0.00215106521518       -0.00986780775402
C           12.60976316597191        0.09678147427575       -0.12044964539246
C           13.28612783371046        1.27652455382959       -0.01839916287940
C           12.62747820736901        2.56509507588261        0.07191368543646
C           13.58483102884165        3.49285795771180        0.21965227398131
C           14.86865362239638        2.80376108245806        0.21731318809116
N           14.67143936687497        1.42866992213370        0.06854990270209
C           16.08211089197849        3.42993218290974        0.39480539297112
C           16.10038558314129        4.90431681955145        0.58644735111205
C           16.35141690984850        5.44664864063521        1.85056330694435
C           16.38521454887478        6.82060318176862        2.03234378549624
C           16.16608558736279        7.68782719987956        0.95193889640551
C           16.20684816521869        9.15086098265296        1.15789369781568
O           16.42979275347815        9.65411754110596        2.23343889091264
C           15.91010007956338        7.14109903538223       -0.31197017680818
C           15.87553561478241        5.76574409765899       -0.49280159049373
C           17.32542232029942        2.74256724319900        0.41842388921917
C           18.61157058033505        3.36688308288700        0.66691895507069
C           19.55481750560275        2.40613099943313        0.57146546344796
N           17.47462943606987        1.43451058082032        0.17548189138168
C           18.82984833429850        1.20159842982226        0.25408225282099
C           19.37813619358958       -0.02904610441379       -0.01204375680843
C           18.67448049096379       -1.22452481235486       -0.34988257563206
C           19.27792462835576       -2.34891671439059       -0.88227076776872
C           18.27496766083256       -3.31276808080246       -1.00904540401028
C           17.09485006324404       -2.74995656914121       -0.54730691022840
N           17.31175250901049       -1.42013806844017       -0.16313835734468
C           15.84850184621262       -3.46655569019582       -0.47488249859855
C           15.85014052855319       -4.95663449385144       -0.56008779549731
C           15.27296538567156       -5.62322437744789       -1.65033928721858
C           15.30044224346593       -7.00971403260591       -1.72764681183248
C           15.89520965110005       -7.76946443920878       -0.71216443032795
C           15.94235321535407       -9.24557353178635       -0.78772460223824
O           16.48925754127867       -9.92651232477520        0.04708994666848
C           16.45964810075666       -7.10310393869967        0.38566191660444
C           16.43704670059764       -5.71777123159322        0.45851144614089
C           14.65736752669167       -2.81628656690214       -0.32741910016080
C           13.34977854101727       -3.43192867340259       -0.21740417567368
C           12.46103215282820       -2.42317440941062       -0.13282303209887
C           13.21070536873633       -1.18362189444098       -0.17678334893906
N           14.52066883278927       -1.41450881510396       -0.27841296534943
H           11.52591128578372        0.14598053668461       -0.13659571615159
H           11.56342074978080        2.75749384634616        0.04390101138664
H           13.40202991371330        4.55302807363042        0.32989936929734
H           16.51696639976095        4.78650341819456        2.69659534263295
H           16.58538341688377        7.22208715488770        3.02112280899008
H           16.02125229496153        9.78901076083820        0.27448553230843
H           15.73846516744057        7.79522016878351       -1.16175096196384
H           15.68103542769292        5.35816018685073       -1.48003944017044
H           18.80768098384905        4.40149352712524        0.88808418766143
H           20.62152096182103        2.55997069229714        0.69966331421613
H           20.32095493140138       -2.45534809981888       -1.14209693450467
H           18.37924528747866       -4.31344797580969       -1.39427874873279
H           14.81672499877154       -5.05345804106262       -2.45379253349293
H           14.86352672379709       -7.50588450945350       -2.59019422861627
H           15.44983728043287       -9.72142289543537       -1.65556074611569
H           16.92559424741598       -7.67173461325460        1.18564510735036
H           16.87623887429348       -5.21936226858245        1.31712174168121
H           13.10711873806142       -4.48678646284568       -0.19981079123763
H           11.39326154689014       -2.53114777855479       -0.03352089403917
Co          29.15941526802728       -0.00047658296891       -0.01008500227478
C           32.52490445726830       -0.07819176173134       -0.13299254236681
C           31.84833735670180       -1.26032552430021       -0.19992717854209
C           32.50694283175443       -2.54863227279502       -0.29404512915204
C           31.54936761715325       -3.48785223909066       -0.27989063697291
C           30.26539468232216       -2.80520509720120       -0.18412754981990
N           30.46277459882943       -1.42277256517505       -0.13550825194063
C           29.05119174422551       -3.44939492591796       -0.09772595150692
C           29.03393101060734       -4.93670023842384       -0.11793257667113
C           28.78327589796859       -5.65396214049332        1.05602416218422
C           28.74954695603862       -7.03988596809440        1.04031209082859
C           28.96865658817583       -7.74448478085692       -0.15253186514111
C           28.92790863291571       -9.22198174931074       -0.15702207032963
O           28.70495035507304       -9.87328667680517        0.83588304239178
C           29.22463246105257       -7.02325341268447       -1.32563999877621
C           29.25912041239695       -5.63606802002783       -1.30873460996957
C           27.80641823437325       -2.77206578131087        0.02372740899021
C           26.52221866994327       -3.42687341471131        0.18063830433963
C           25.57607587909459       -2.46404581357763        0.22314335411203
N           27.65154381666809       -1.44156640239363       -0.02939268761033
C           26.29279914552640       -1.22565283094399        0.08032605934270
C           25.74201140463829        0.03237167158372       -0.00594792043125
C           26.45101415445230        1.26284078679285       -0.16988076925399
C           25.85299696608777        2.45189967363496       -0.53922713986637
C           26.85888997652444        3.42253927015628       -0.52695408723424
C           28.03794511933523        2.79856714198568       -0.14981325307440
N           27.81636564281317        1.42712694071358        0.04038417543050
C           29.28543375790968        3.49845353698675        0.02375025302172
C           29.28428923798613        4.98589478320889        0.15144603849269
C           29.86166887359591        5.80117895313837       -0.83265670639853
C           29.83426574130042        7.18462409729062       -0.71175309967275
C           29.23952819611325        7.79209274439348        0.40154209481305
C           29.19239877271080        9.26395588989842        0.53697027032258
O           28.64548962314045        9.81907619022802        1.46023892614495
C           28.67510314247122        6.97616263030812        1.39326151046511
C           28.69765962167244        5.59453151900707        1.26809034441569
C           30.47683999942274        2.83438076514848        0.07700787205782
C           31.78467544532551        3.42825145410534        0.27352954582470
C           32.67350342525233        2.41783687688714        0.21363340320998
C           31.92375870123736        1.19710898442154       -0.00637926730156
N           30.61378182892528        1.43973856412551       -0.07409886753329
H           33.60876850195844       -0.12460056719939       -0.15597630544640
H           33.57106106561569       -2.73517812856368       -0.34919166443155
H           31.73239495462362       -4.55295930772239       -0.32179740197919
H           28.61775043098106       -5.12121152906191        1.98752949900500
H           28.54938424863754       -7.57814993032796        1.96183998990181
H           29.11348744574613       -9.72783871718655       -1.12230505142901
H           29.39628010211622       -7.54975272709308       -2.25991588293314
H           29.45368114402373       -5.09224557853630       -2.22795715420489
H           26.32744806703702       -4.48267330070159        0.25218823182897
H           24.51074512768511       -2.63617293790408        0.32838608503638
H           24.81146035277637        2.59605462607393       -0.78173217369344
H           26.75581883190110        4.46815989565688       -0.76578341685241
H           30.31798638800599        5.35177559605143       -1.70908596441967
H           30.27120440485821        7.79861026712974       -1.49484415035272
H           29.68490561622369        9.85854202357955       -0.25426289399244
H           28.20917028071464        7.42511349525001        2.26607492688914
H           28.25847260706560        4.97903392782723        2.04703365943002
H           32.02739954869931        4.46988147207445        0.44116632582685
H           33.74132808332217        2.51056730870378        0.32728082588344
C           21.92460007441262       -0.00024992651310        0.00198767751846
C           20.69608502350067       -0.03835384165983       -0.00512499085917
C           23.24619765425371        0.02117652753403        0.00465817142396
C           24.41874056067501        0.02649397632228       -0.00569038736474
124
 energy: -223.829734477485 gnorm: 0.092530300033 xtb: 6.5.1 (b24c23e)
Co          15.97058937341485        0.00893604125708       -0.01351406364573
C           12.61316348709790        0.08101739638218       -0.11868681418349
C           13.29411533424359        1.27374240668509       -0.01812246081661
C           12.63464820637216        2.55269427823503        0.06972216807101
C           13.59931433284014        3.48688570233661        0.21784923749667
C           14.86696982343578        2.79549907648339        0.21491209584282
N           14.65871549024447        1.43972442827325        0.06961987245304
C           16.08628615207488        3.43332448088563        0.39694776899564