      -----------------------------------------------------------      
     |                   =====================                   |     
     |                           x T B                           |     
     |                   =====================                   |     
     |                         S. Grimme                         |     
     |          Mulliken Center for Theoretical Chemistry        |     
     |                    University of Bonn                     |     
      -----------------------------------------------------------      

   * xtb version 6.5.1 (b24c23e) compiled by 'conda@728c89f4b128' on 2022-07-12

   xtb is free software: you can redistribute it and/or modify it under
   the terms of the GNU Lesser General Public License as published by
   the Free Software Foundation, either version 3 of the License, or
   (at your option) any later version.
   
   xtb is distributed in the hope that it will be useful,
   but WITHOUT ANY WARRANTY; without even the implied warranty of
   MERCHANTABILITY or FITNESS FOR A PARTICULAR PURPOSE.  See the
   GNU Lesser General Public License for more details.
   
   Cite this work as:
   * C. Bannwarth, E. Caldeweyher, S. Ehlert, A. Hansen, P. Pracht,
     J. Seibert, S. Spicher, S. Grimme, WIREs Comput. Mol. Sci., 2020, 11,
     e01493. DOI: 10.1002/wcms.1493
   
   for GFN2-xTB:
   * C. Bannwarth, S. Ehlert and S. Grimme., J. Chem. Theory Comput., 2019,
     15, 1652-1671. DOI: 10.1021/acs.jctc.8b01176
   for GFN1-xTB:
   * S. Grimme, C. Bannwarth, P. Shushkov, J. Chem. Theory Comput., 2017,
     13, 1989-2009. DOI: 10.1021/acs.jctc.7b00118
   for GFN0-xTB:
   * P. Pracht, E. Caldeweyher, S. Ehlert, S. Grimme, ChemRxiv, 2019, preprint.
     DOI: 10.26434/chemrxiv.8326202.v1
   for GFN-FF:
   * S. Spicher and S. Grimme, Angew. Chem. Int. Ed., 2020, 59, 15665-15673.
     DOI: 10.1002/anie.202004239
   
   for ALPB and GBSA implicit solvation:
   * S. Ehlert, M. Stahn, S. Spicher, S. Grimme, J. Chem. Theory Comput.,
     2021, 17, 4250-4261. DOI: 10.1021/acs.jctc.1c00471
   
   for DFT-D4:
   * E. Caldeweyher, C. Bannwarth and S. Grimme, J. Chem. Phys., 2017,
     147, 034112. DOI: 10.1063/1.4993215
   * E. Caldeweyher, S. Ehlert, A. Hansen, H. Neugebauer, S. Spicher,
     C. Bannwarth and S. Grimme, J. Chem. Phys., 2019, 150, 154122.
     DOI: 10.1063/1.5090222
   * E. Caldeweyher, J.-M. Mewes, S. Ehlert and S. Grimme, Phys. Chem. Chem. Phys.
     2020, 22, 8499-8512. DOI: 10.1039/D0CP00502A
   
   for sTDA-xTB:
   * S. Grimme and C. Bannwarth, J. Chem. Phys., 2016, 145, 054103.
     DOI: 10.1063/1.4959605
   
   in the mass-spec context:
   * V. Asgeirsson, C. Bauer and S. Grimme, Chem. Sci., 2017, 8, 4879.
     DOI: 10.1039/c7sc00601b
   * J. Koopman and S. Grimme, ACS Omega 2019, 4, 12, 15120-15133.
     DOI: 10.1021/acsomega.9b02011
   
   for metadynamics refer to:
   * S. Grimme, J. Chem. Theory Comput., 2019, 155, 2847-2862
     DOI: 10.1021/acs.jctc.9b00143
   
   for SPH calculations refer to:
   * S. Spicher and S. Grimme, J. Chem. Theory Comput., 2021, 17, 1701-1714
     DOI: 10.1021/acs.jctc.0c01306
   
   with help from (in alphabetical order)
   P. Atkinson, C. Bannwarth, F. Bohle, G. Brandenburg, E. Caldeweyher
   M. Checinski, S. Dohm, S. Ehlert, S. Ehrlich, I. Gerasimov, C. Hölzer
   A. Katbashev, J. Koopman, C. Lavigne, S. Lehtola, F. März, M. Müller,
   F. Musil, H. Neugebauer, J. Pisarek, C. Plett, P. Pracht, F. Pultar,
   J. Seibert, P. Shushkov, S. Spicher, M. Stahn, M. Steiner, T. Strunk,
   J. Stückrath, T. Rose, and J. Unsleber
   
 * started run on 2022/07/28 at 20:48:41.114     

           -------------------------------------------------
          |                Calculation Setup                |
           -------------------------------------------------

          program call               : xtb xtbopt.xyz --gfn 1 --vipea
          hostname                   : cx3-14-14.cx3.hpc.ic.ac.uk
          coordinate file            : xtbopt.xyz
          omp threads                :                     1

   ID    Z sym.   atoms
    1    6 C      1-5, 7-12, 14-18, 20-25, 27-32, 34-39, 60-64, 66-71, 73-77,
                  79-84, 86-91, 93-98, 119-135, 137-142, 144-148, 150-155,
                  157-162, 164-169, 189-193, 195-200, 202-206, 208-213,
                  215-220, 222-227
    2    7 N      6, 13, 19, 26, 33, 40, 65, 72, 78, 85, 92, 99, 136, 143,
                  149, 156, 163, 170, 194, 201, 207, 214, 221, 228
    3    1 H      41-59, 100-118, 171-188, 229-246

           -------------------------------------------------
          |                 I P E A - x T B                 |
           -------------------------------------------------

        Reference                      10.1039/c7sc00601b
      * Hamiltonian:
        H0-scaling (s, p, d)           2.150000    2.300000    2.000000
        zeta-weighting                 0.000000
      * Dispersion:
        s8                             2.400000
        a1                             0.630000
        a2                             5.000000
        s9                             0.000000
      * Repulsion:
        kExp                           1.500000
        rExp                           1.000000
      * Coulomb:
        alpha                          1.000000
        third order                    atomic
        anisotropic                    false
      * Halogen bond correction:
        rad-scale                      1.300000
        damping                        0.440000


          ...................................................
          :                      SETUP                      :
          :.................................................:
          :  # basis functions                1008          :
          :  # atomic orbitals                1008          :
          :  # shells                          664          :
          :  # electrons                       786          :
          :  # halogen bonds                     0          :
          :  max. iterations                   250          :
          :  Hamiltonian                  GFN1-xTB          :
          :  restarted?                      false          :
          :  GBSA solvation                  false          :
          :  PC potential                    false          :
          :  electronic temp.          300.0000000     K    :
          :  accuracy                    1.0000000          :
          :  -> integral cutoff          0.2500000E+02      :
          :  -> integral neglect         0.1000000E-07      :
          :  -> SCF convergence          0.1000000E-05 Eh   :
          :  -> wf. convergence          0.2000000E-04 e    :
          :  Broyden damping             0.4000000          :
          ...................................................

 iter      E             dE          RMSdq      gap      omega  full diag
   1   -497.3621906 -0.497362E+03  0.103E+01    0.76       0.0  T
   2   -497.4917575 -0.129567E+00  0.645E+00    1.20       1.0  T
   3   -488.2778125  0.921394E+01  0.513E+00    0.40       1.0  T
   4   -498.9173329 -0.106395E+02  0.112E+00    1.16       1.0  T
   5   -499.4887394 -0.571406E+00  0.429E-01    1.08       1.0  T
   6   -499.5831989 -0.944596E-01  0.111E-01    1.09       1.0  T
   7   -499.5882677 -0.506876E-02  0.473E-02    1.07       1.0  T
   8   -499.5889424 -0.674651E-03  0.307E-02    1.07       1.0  T
   9   -499.5890605 -0.118114E-03  0.205E-02    1.08       1.0  T
  10   -499.5892152 -0.154736E-03  0.640E-03    1.08       1.0  T
  11   -499.5892330 -0.177585E-04  0.195E-03    1.08       3.3  T
  12   -499.5892345 -0.150487E-05  0.837E-04    1.08       7.6  T
  13   -499.5892348 -0.312146E-06  0.353E-04    1.08      18.1  T
  14   -499.5892348 -0.463553E-07  0.166E-04    1.08      38.5  T
  15   -499.5892348 -0.892987E-08  0.811E-05    1.08      78.7  T

   *** convergence criteria satisfied after 15 iterations ***

         #    Occupation            Energy/Eh            Energy/eV
      -------------------------------------------------------------
         1        2.0000           -1.0515323             -28.6136
       ...           ...                  ...                  ...
       387        2.0000           -0.3990105             -10.8576
       388        2.0000           -0.3974795             -10.8160
       389        2.0000           -0.3974190             -10.8143
       390        2.0000           -0.3865651             -10.5190
       391        2.0000           -0.3806297             -10.3575
       392        2.0000           -0.3776315             -10.2759
       393        2.0000           -0.3715159             -10.1095 (HOMO)
       394                         -0.3319495              -9.0328 (LUMO)
       395                         -0.3251502              -8.8478
       396                         -0.3237789              -8.8105
       397                         -0.3237528              -8.8098
       398                         -0.3226483              -8.7797
       ...                                ...                  ...
      1008                        560.3327201           15247.4294
      -------------------------------------------------------------
                  HL-Gap            0.0395664 Eh            1.0767 eV
             Fermi-level           -0.3517325 Eh           -9.5711 eV

 SCC (total)                   0 d,  0 h,  0 min, 15.194 sec
 SCC setup                      ...        0 min,  0.016 sec (  0.107%)
 Dispersion                     ...        0 min,  0.021 sec (  0.140%)
 classical contributions        ...        0 min,  0.006 sec (  0.038%)
 integral evaluation            ...        0 min,  1.321 sec (  8.698%)
 iterations                     ...        0 min, 10.992 sec ( 72.348%)
 molecular gradient             ...        0 min,  2.690 sec ( 17.707%)
 printout                       ...        0 min,  0.146 sec (  0.962%)

         :::::::::::::::::::::::::::::::::::::::::::::::::::::
         ::                     SUMMARY                     ::
         :::::::::::::::::::::::::::::::::::::::::::::::::::::
         :: total energy            -488.950939538846 Eh    ::
         :: gradient norm              0.088847947152 Eh/a0 ::
         :: HOMO-LUMO gap              1.076656582662 eV    ::
         ::.................................................::
         :: SCC energy              -499.589234837756 Eh    ::
         :: -> electrostatic           0.370901453301 Eh    ::
         :: repulsion energy          10.835970497232 Eh    ::
         :: dispersion energy         -0.197675198322 Eh    ::
         :: halogen bond corr.         0.000000000000 Eh    ::
         :: add. restraining           0.000000000000 Eh    ::
         :: total charge               0.000000000001 e     ::
         :::::::::::::::::::::::::::::::::::::::::::::::::::::

           ------------------------------------------------- 
          |        vertical delta SCC IP calculation        |
           ------------------------------------------------- 
   1   -499.1865683 -0.499187E+03  0.876E-02    1.08       0.0  T
   2   -499.1719077  0.146607E-01  0.135E-01    0.93       1.0  T
   3   -499.1849436 -0.130359E-01  0.828E-02    1.03       1.0  T
   4   -499.1920188 -0.707522E-02  0.527E-02    1.06       1.0  T
   5   -499.1947617 -0.274292E-02  0.256E-02    1.05       1.0  T
   6   -499.1949066 -0.144910E-03  0.146E-02    1.04       1.0  T
   7   -499.1949722 -0.655890E-04  0.943E-03    1.05       1.0  T
   8   -499.1950244 -0.522156E-04  0.372E-03    1.05       1.7  T
   9   -499.1950319 -0.751930E-05  0.143E-03    1.05       4.4  T
  10   -499.1950326 -0.674879E-06  0.816E-04    1.05       7.8  T
  11   -499.1950330 -0.374881E-06  0.244E-04    1.05      26.1  T
  12   -499.1950330 -0.218599E-07  0.140E-04    1.05      45.5  T
  13   -499.1950330 -0.963826E-08  0.610E-05    1.05     104.5  T
     SCC iter.                  ...        0 min,  5.431 sec
     gradient                   ...        0 min,  1.575 sec
------------------------------------------------------------------------
empirical IP shift (eV):    4.8455
delta SCC IP (eV):    5.8813
------------------------------------------------------------------------
           ------------------------------------------------- 
          |        vertical delta SCC EA calculation        |
           ------------------------------------------------- 
   1   -499.8696795 -0.499870E+03  0.153E-01    0.22       0.0  T
   2   -499.8602723  0.940720E-02  0.187E-01    0.03       1.0  T
   3   -499.8919289 -0.316566E-01  0.816E-02    0.09       1.0  T
   4   -499.8820215  0.990740E-02  0.103E-01    0.05       1.0  T
   5   -499.8897353 -0.771378E-02  0.720E-02    0.06       1.0  T
   6   -499.8954048 -0.566955E-02  0.370E-02    0.07       1.0  T
   7   -499.8951900  0.214851E-03  0.373E-02    0.04       1.0  T
   8   -499.8974589 -0.226889E-02  0.117E-02    0.06       1.0  T
   9   -499.8976143 -0.155435E-03  0.360E-03    0.06       1.8  T
  10   -499.8976189 -0.463994E-05  0.232E-03    0.06       2.7  T
  11   -499.8976231 -0.413455E-05  0.785E-04    0.06       8.1  T
  12   -499.8976232 -0.158122E-06  0.543E-04    0.06      11.8  T
  13   -499.8976237 -0.462348E-06  0.251E-04    0.06      25.4  T
  14   -499.8976237 -0.524774E-07  0.123E-04    0.06      51.8  T
  15   -499.8976237 -0.447238E-08  0.667E-05    0.06      95.6  T
     SCC iter.                  ...        0 min,  6.866 sec
     gradient                   ...        0 min,  1.591 sec
------------------------------------------------------------------------
empirical EA shift (eV):    4.8455
delta SCC EA (eV):    3.5462
------------------------------------------------------------------------
           -------------------------------------------------
          |                Property Printout                |
           -------------------------------------------------

    * Orbital Energies and Occupations

         #    Occupation            Energy/Eh            Energy/eV
      -------------------------------------------------------------
         1        2.0000           -1.0083525             -27.4387
       ...           ...                  ...                  ...
       382        2.0000           -0.3811178             -10.3707
       383        2.0000           -0.3806009             -10.3567
       384        2.0000           -0.3794012             -10.3240
       385        2.0000           -0.3744014             -10.1880
       386        2.0000           -0.3562512              -9.6941
       387        2.0000           -0.3558891              -9.6842
       388        2.0000           -0.3525635              -9.5937
       389        2.0000           -0.3520479              -9.5797
       390        2.0000           -0.3420346              -9.3072
       391        2.0000           -0.3387221              -9.2171
       392        2.0000           -0.3349488              -9.1144
       393        2.0000           -0.3259061              -8.8684
       394        0.7153           -0.2856947              -7.7741 (HOMO)
       395        0.1857           -0.2834146              -7.7121 (LUMO)
       396        0.0930           -0.2826550              -7.6914
       397        0.0052           -0.2798272              -7.6145
       398        0.0008           -0.2780097              -7.5650
       399        0.0001           -0.2758745              -7.5069
       400        0.0000           -0.2722798              -7.4091
       401                         -0.2644344              -7.1956
       402                         -0.2491162              -6.7788
       403                         -0.2449205              -6.6646
       404                         -0.2437593              -6.6330
       405                         -0.2395107              -6.5174
       ...                                ...                  ...
      1008                        560.3786415           15248.6790
      -------------------------------------------------------------
                  HL-Gap            0.0022800 Eh            0.0620 eV
             Fermi-level           -0.2953396 Eh           -8.0366 eV

  Mulliken/CM5 charges         n(s)   n(p)   n(d)
     1C    -0.01837 -0.05915   1.091  2.927  0.000
     2C     0.06000  0.12020   1.102  2.838  0.000
     3C    -0.03571 -0.08095   1.080  2.955  0.000
     4C    -0.03545 -0.07986   1.077  2.959  0.000
     5C     0.06554  0.13062   1.110  2.825  0.000
     6N    -0.15714 -0.51039   1.315  3.842  0.000
     7C     0.01456  0.02194   1.083  2.902  0.000
     8C    -0.02026 -0.02195   1.081  2.939  0.000
     9C    -0.03056 -0.03301   1.070  2.961  0.000
    10C     0.02855  0.02344   1.090  2.882  0.000
    11C    -0.01884 -0.06552   1.089  2.930  0.000
    12C     0.05232  0.07690   1.129  2.819  0.000
    13N    -0.26131 -0.45636   1.381  3.880  0.000
    14C     0.05319  0.07775   1.129  2.818  0.000
    15C    -0.01721 -0.06390   1.089  2.928  0.000
    16C     0.06305  0.13277   1.129  2.808  0.000
    17C    -0.03865 -0.08409   1.088  2.951  0.000
    18C    -0.03744 -0.08285   1.091  2.947  0.000
    19N    -0.28598 -0.47258   1.295  3.991  0.000
    20C     0.06346  0.13348   1.128  2.808  0.000
    21C     0.02069  0.02796   1.087  2.892  0.000
    22C     0.06419  0.12883   1.106  2.830  0.000
    23C    -0.03357 -0.07796   1.079  2.955  0.000
    24C    -0.03518 -0.07960   1.076  2.959  0.000
    25C     0.06463  0.12917   1.108  2.827  0.000
    26N    -0.15590 -0.50844   1.316  3.839  0.000
    27C     0.01360  0.02103   1.083  2.903  0.000
    28C    -0.02078 -0.02245   1.080  2.940  0.000
    29C    -0.03112 -0.03357   1.069  2.962  0.000
    30C     0.02828  0.02317   1.090  2.882  0.000
    31C    -0.01820 -0.06488   1.089  2.929  0.000
    32C     0.05277  0.07734   1.129  2.819  0.000
    33N    -0.26187 -0.45695   1.381  3.881  0.000
    34C     0.05229  0.07685   1.129  2.819  0.000
    35C    -0.01842 -0.06512   1.089  2.929  0.000
    36C     0.06430  0.13525   1.132  2.804  0.000
    37C    -0.03904 -0.08447   1.089  2.950  0.000
    38C    -0.03963 -0.08597   1.092  2.948  0.000
    39C     0.05767  0.12269   1.123  2.819  0.000
    40N    -0.28773 -0.47473   1.295  3.993  0.000
    41H     0.02931  0.08826   0.971  0.000  0.000
    42H     0.03892  0.09558   0.961  0.000  0.000
    43H     0.03388  0.09182   0.966  0.000  0.000
    44H     0.16609  0.37415   0.834  0.000  0.000
    45H     0.03351  0.09074   0.966  0.000  0.000
    46H     0.03055  0.09643   0.969  0.000  0.000
    47H     0.03237  0.09826   0.968  0.000  0.000
    48H     0.03629  0.09354   0.964  0.000  0.000
    49H     0.02498  0.08293   0.975  0.000  0.000
    50H     0.02542  0.08340   0.975  0.000  0.000
    51H     0.03497  0.09303   0.965  0.000  0.000
    52H     0.03439  0.09239   0.966  0.000  0.000
    53H     0.16440  0.37246   0.836  0.000  0.000
    54H     0.03531  0.09255   0.965  0.000  0.000
    55H     0.03172  0.09763   0.968  0.000  0.000
    56H     0.03041  0.09632   0.970  0.000  0.000
    57H     0.03385  0.09110   0.966  0.000  0.000
    58H     0.02445  0.08231   0.976  0.000  0.000
    59H     0.02943  0.08585   0.971  0.000  0.000
    60C    -0.01897 -0.05976   1.091  2.928  0.000
    61C     0.06017  0.12038   1.102  2.838  0.000
    62C    -0.03596 -0.08120   1.080  2.956  0.000
    63C    -0.03542 -0.07983   1.077  2.959  0.000
    64C     0.06516  0.13024   1.109  2.826  0.000
    65N    -0.15717 -0.51042   1.315  3.842  0.000
    66C     0.01514  0.02252   1.084  2.901  0.000
    67C    -0.01994 -0.02162   1.081  2.939  0.000
    68C    -0.03020 -0.03265   1.070  2.960  0.000
    69C     0.02870  0.02359   1.090  2.882  0.000
    70C    -0.01871 -0.06540   1.089  2.929  0.000
    71C     0.05242  0.07701   1.129  2.819  0.000
    72N    -0.26104 -0.45609   1.381  3.880  0.000
    73C     0.05331  0.07786   1.129  2.818  0.000
    74C    -0.01701 -0.06370   1.089  2.928  0.000
    75C     0.06272  0.13236   1.129  2.808  0.000
    76C    -0.03860 -0.08404   1.088  2.951  0.000
    77C    -0.03753 -0.08295   1.091  2.947  0.000
    78N    -0.28587 -0.47247   1.295  3.991  0.000
    79C     0.06383  0.13391   1.129  2.807  0.000
    80C     0.02022  0.02748   1.087  2.893  0.000
    81C     0.06413  0.12879   1.106  2.830  0.000
    82C    -0.03393 -0.07831   1.079  2.955  0.000
    83C    -0.03539 -0.07980   1.076  2.959  0.000
    84C     0.06416  0.12868   1.108  2.828  0.000
    85N    -0.15588 -0.50844   1.317  3.839  0.000
    86C     0.01380  0.02123   1.083  2.903  0.000
    87C    -0.02063 -0.02230   1.081  2.940  0.000
    88C    -0.03104 -0.03348   1.069  2.962  0.000
    89C     0.02834  0.02323   1.090  2.882  0.000
    90C    -0.01813 -0.06482   1.089  2.929  0.000
    91C     0.05280  0.07737   1.129  2.819  0.000
    92N    -0.26184 -0.45691   1.381  3.881  0.000
    93C     0.05230  0.07686   1.129  2.819  0.000
    94C    -0.01839 -0.06509   1.089  2.929  0.000
    95C     0.06420  0.13514   1.132  2.804  0.000
    96C    -0.03892 -0.08435   1.089  2.950  0.000
    97C    -0.03968 -0.08602   1.092  2.948  0.000
    98C     0.05784  0.12285   1.123  2.819  0.000
    99N    -0.28796 -0.47494   1.295  3.993  0.000
   100H     0.02905  0.08800   0.971  0.000  0.000
   101H     0.03877  0.09544   0.961  0.000  0.000
   102H     0.03379  0.09172   0.966  0.000  0.000
   103H     0.16608  0.37414   0.834  0.000  0.000
   104H     0.03368  0.09091   0.966  0.000  0.000
   105H     0.03068  0.09658   0.969  0.000  0.000
   106H     0.03257  0.09846   0.967  0.000  0.000
   107H     0.03644  0.09369   0.964  0.000  0.000
   108H     0.02492  0.08288   0.975  0.000  0.000
   109H     0.02539  0.08340   0.975  0.000  0.000
   110H     0.03487  0.09290   0.965  0.000  0.000
   111H     0.03420  0.09218   0.966  0.000  0.000
   112H     0.16427  0.37234   0.836  0.000  0.000
   113H     0.03538  0.09261   0.965  0.000  0.000
   114H     0.03174  0.09765   0.968  0.000  0.000
   115H     0.03041  0.09632   0.970  0.000  0.000
   116H     0.03384  0.09110   0.966  0.000  0.000
   117H     0.02440  0.08228   0.976  0.000  0.000
   118H     0.02934  0.08576   0.971  0.000  0.000
   119C    -0.01773 -0.01854   1.061  2.957  0.000
   120C    -0.01792 -0.01949   1.090  2.928  0.000
   121C    -0.02036 -0.02116   1.059  2.961  0.000
   122C    -0.01584 -0.01737   1.093  2.923  0.000
   123C    -0.02091 -0.02171   1.060  2.961  0.000
   124C    -0.01946 -0.02099   1.089  2.930  0.000
   125C    -0.02123 -0.02203   1.059  2.962  0.000
   126C    -0.01920 -0.02073   1.090  2.929  0.000
   127C    -0.02095 -0.02176   1.059  2.962  0.000
   128C    -0.01650 -0.01803   1.092  2.924  0.000
   129C    -0.01837 -0.01919   1.061  2.957  0.000
   130C    -0.01868 -0.02025   1.090  2.929  0.000
   131C     0.01677  0.02407   1.084  2.900  0.000
   132C     0.06485  0.12948   1.107  2.828  0.000
   133C    -0.03567 -0.08007   1.077  2.958  0.000
   134C    -0.03507 -0.07947   1.077  2.958  0.000
   135C     0.06267  0.12726   1.105  2.833  0.000
   136N    -0.15517 -0.50784   1.316  3.839  0.000
   137C     0.01917  0.02647   1.087  2.894  0.000
   138C    -0.01800 -0.01975   1.081  2.937  0.000
   139C    -0.02802 -0.03050   1.071  2.957  0.000
   140C     0.02943  0.02432   1.090  2.881  0.000
   141C    -0.01657 -0.06327   1.090  2.927  0.000
   142C     0.05355  0.07813   1.129  2.818  0.000
   143N    -0.26007 -0.45513   1.381  3.879  0.000
   144C     0.05316  0.07774   1.129  2.818  0.000
   145C    -0.01741 -0.06408   1.090  2.928  0.000
   146C     0.06160  0.13112   1.127  2.811  0.000
   147C    -0.03849 -0.08393   1.088  2.950  0.000
   148C    -0.03839 -0.08381   1.090  2.949  0.000
   149N    -0.28499 -0.47142   1.295  3.990  0.000
   150C     0.06464  0.13489   1.130  2.805  0.000
   151C     0.01791  0.02520   1.085  2.897  0.000
   152C     0.06451  0.12924   1.107  2.828  0.000
   153C    -0.03548 -0.07986   1.077  2.959  0.000
   154C    -0.03553 -0.07992   1.076  2.959  0.000
   155C     0.06241  0.12692   1.105  2.833  0.000
   156N    -0.15486 -0.50757   1.316  3.838  0.000
   157C     0.01817  0.02547   1.086  2.896  0.000
   158C    -0.01852 -0.02027   1.081  2.937  0.000
   159C    -0.02864 -0.03112   1.070  2.958  0.000
   160C     0.02919  0.02407   1.090  2.881  0.000
   161C    -0.01709 -0.06379   1.090  2.928  0.000
   162C     0.05311  0.07768   1.129  2.818  0.000
   163N    -0.26057 -0.45568   1.381  3.879  0.000
   164C     0.05319  0.07778   1.129  2.818  0.000
   165C    -0.01743 -0.06412   1.089  2.928  0.000
   166C     0.06227  0.13203   1.128  2.810  0.000
   167C    -0.03828 -0.08372   1.089  2.949  0.000
   168C    -0.03857 -0.08400   1.090  2.948  0.000
   169C     0.06392  0.13387   1.129  2.807  0.000
   170N    -0.28607 -0.47243   1.294  3.992  0.000
   171H     0.03336  0.09139   0.967  0.000  0.000
   172H     0.03357  0.09163   0.966  0.000  0.000
   173H     0.16503  0.37288   0.835  0.000  0.000
   174H     0.03645  0.09369   0.964  0.000  0.000
   175H     0.03262  0.09851   0.967  0.000  0.000
   176H     0.03187  0.09775   0.968  0.000  0.000
   177H     0.03543  0.09265   0.965  0.000  0.000
   178H     0.02442  0.08240   0.976  0.000  0.000
   179H     0.02468  0.08263   0.975  0.000  0.000
   180H     0.03415  0.09216   0.966  0.000  0.000
   181H     0.03352  0.09158   0.966  0.000  0.000
   182H     0.16462  0.37247   0.835  0.000  0.000
   183H     0.03568  0.09294   0.964  0.000  0.000
   184H     0.03170  0.09761   0.968  0.000  0.000
   185H     0.03209  0.09800   0.968  0.000  0.000
   186H     0.03560  0.09283   0.964  0.000  0.000
   187H     0.02441  0.08239   0.976  0.000  0.000
   188H     0.02404  0.08197   0.976  0.000  0.000
   189C     0.01744  0.02473   1.084  2.898  0.000
   190C     0.06451  0.12925   1.107  2.828  0.000
   191C    -0.03573 -0.08011   1.077  2.959  0.000
   192C    -0.03560 -0.08000   1.076  2.959  0.000
   193C     0.06214  0.12665   1.104  2.833  0.000
   194N    -0.15492 -0.50764   1.316  3.839  0.000
   195C     0.01843  0.02573   1.087  2.895  0.000
   196C    -0.01837 -0.02011   1.081  2.937  0.000
   197C    -0.02854 -0.03102   1.070  2.958  0.000
   198C     0.02924  0.02413   1.090  2.881  0.000
   199C    -0.01701 -0.06371   1.090  2.927  0.000
   200C     0.05315  0.07769   1.129  2.818  0.000
   201N    -0.26055 -0.45560   1.381  3.879  0.000
   202C     0.05318  0.07776   1.129  2.818  0.000
   203C    -0.01741 -0.06408   1.089  2.928  0.000
   204C     0.06198  0.13168   1.128  2.811  0.000
   205C    -0.03838 -0.08383   1.089  2.950  0.000
   206C    -0.03871 -0.08414   1.090  2.949  0.000
   207N    -0.28597 -0.47234   1.294  3.991  0.000
   208C     0.06408  0.13411   1.130  2.806  0.000
   209C     0.01653  0.02383   1.083  2.900  0.000
   210C     0.06471  0.12936   1.107  2.828  0.000
   211C    -0.03593 -0.08031   1.077  2.959  0.000
   212C    -0.03530 -0.07969   1.077  2.959  0.000
   213C     0.06233  0.12690   1.105  2.833  0.000
   214N    -0.15519 -0.50789   1.316  3.839  0.000
   215C     0.01913  0.02642   1.087  2.894  0.000
   216C    -0.01800 -0.01975   1.082  2.936  0.000
   217C    -0.02810 -0.03058   1.071  2.958  0.000
   218C     0.02942  0.02431   1.090  2.881  0.000
   219C    -0.01656 -0.06326   1.090  2.927  0.000
   220C     0.05351  0.07808   1.129  2.818  0.000
   221N    -0.26013 -0.45524   1.381  3.879  0.000
   222C     0.05313  0.07772   1.129  2.818  0.000
   223C    -0.01748 -0.06417   1.089  2.928  0.000
   224C     0.06149  0.13101   1.127  2.812  0.000
   225C    -0.03852 -0.08397   1.088  2.950  0.000
   226C    -0.03854 -0.08396   1.089  2.949  0.000
   227C     0.06458  0.13481   1.130  2.805  0.000
   228N    -0.28517 -0.47158   1.295  3.990  0.000
   229H     0.03393  0.09194   0.966  0.000  0.000
   230H     0.03337  0.09141   0.967  0.000  0.000
   231H     0.16459  0.37245   0.835  0.000  0.000
   232H     0.03575  0.09300   0.964  0.000  0.000
   233H     0.03179  0.09772   0.968  0.000  0.000
   234H     0.03205  0.09793   0.968  0.000  0.000
   235H     0.03560  0.09282   0.964  0.000  0.000
   236H     0.02425  0.08225   0.976  0.000  0.000
   237H     0.02392  0.08189   0.976  0.000  0.000
   238H     0.03328  0.09128   0.967  0.000  0.000
   239H     0.03336  0.09140   0.967  0.000  0.000
   240H     0.16489  0.37274   0.835  0.000  0.000
   241H     0.03631  0.09357   0.964  0.000  0.000
   242H     0.03253  0.09844   0.967  0.000  0.000
   243H     0.03180  0.09771   0.968  0.000  0.000
   244H     0.03541  0.09265   0.965  0.000  0.000
   245H     0.02430  0.08229   0.976  0.000  0.000
   246H     0.02447  0.08243   0.976  0.000  0.000

Wiberg/Mayer (AO) data.
largest (>0.10) Wiberg bond orders for each atom

 ---------------------------------------------------------------------------
     #   Z sym  total        # sym  WBO       # sym  WBO       # sym  WBO
 ---------------------------------------------------------------------------
     1   6 C    3.822 --    39 C    1.403     2 C    1.361    41 H    0.996
     2   6 C    3.910 --     1 C    1.361     3 C    1.251     6 N    1.222
     3   6 C    3.837 --     4 C    1.581     2 C    1.251    42 H    0.993
     4   6 C    3.822 --     3 C    1.581     5 C    1.265    43 H    1.000
     5   6 C    3.911 --     7 C    1.288     4 C    1.265     6 N    1.249
     6   7 N    3.260 --     5 C    1.249     2 C    1.222    44 H    0.962
     7   6 C    3.838 --    16 C    1.313     5 C    1.288     8 C    1.188
     8   6 C    3.813 --     9 C    2.657     7 C    1.188
     9   6 C    3.780 --     8 C    2.657    10 C    1.155
    10   6 C    3.928 --    15 C    1.372    11 C    1.372     9 C    1.155
    11   6 C    3.877 --    12 C    1.464    10 C    1.372    45 H    0.988
    12   6 C    4.006 --    13 N    1.468    11 C    1.464    46 H    0.982
    13   7 N    2.919 --    12 C    1.468    14 C    1.468
    14   6 C    4.005 --    13 N    1.468    15 C    1.464    47 H    0.982
    15   6 C    3.876 --    14 C    1.464    10 C    1.372    48 H    0.988
    16   6 C    3.940 --    19 N    1.386     7 C    1.313    17 C    1.164
    17   6 C    3.846 --    18 C    1.694    16 C    1.164    49 H    1.000
    18   6 C    3.856 --    17 C    1.694    20 C    1.163    50 H    0.999
    19   7 N    2.566 --    16 C    1.386    20 C    1.386
    20   6 C    3.932 --    19 N    1.386    21 C    1.311    18 C    1.163
    21   6 C    3.852 --    20 C    1.311    22 C    1.285   120 C    1.203
    22   6 C    3.889 --    21 C    1.285    23 C    1.274    26 N    1.239
    23   6 C    3.831 --    24 C    1.570    22 C    1.274    51 H    0.998
    24   6 C    3.817 --    23 C    1.570    25 C    1.272    52 H    0.999
    25   6 C    3.904 --    27 C    1.290    24 C    1.272    26 N    1.241
    26   7 N    3.267 --    25 C    1.241    22 C    1.239    53 H    0.961
    27   6 C    3.825 --    36 C    1.300    25 C    1.290    28 C    1.191
    28   6 C    3.812 --    29 C    2.652    27 C    1.191
    29   6 C    3.775 --    28 C    2.652    30 C    1.157
    30   6 C    3.927 --    31 C    1.371    35 C    1.371    29 C    1.157
    31   6 C    3.876 --    32 C    1.464    30 C    1.371    54 H    0.988
    32   6 C    4.005 --    33 N    1.468    31 C    1.464    55 H    0.982
    33   7 N    2.918 --    32 C    1.468    34 C    1.468
    34   6 C    4.006 --    33 N    1.468    35 C    1.464    56 H    0.982
    35   6 C    3.876 --    34 C    1.464    30 C    1.371    57 H    0.989
    36   6 C    3.960 --    40 N    1.413    27 C    1.300    37 C    1.157
    37   6 C    3.847 --    38 C    1.705    36 C    1.157    58 H    1.001
    38   6 C    3.867 --    37 C    1.705    39 C    1.147    59 H    0.993
    39   6 C    3.953 --     1 C    1.403    40 N    1.351    38 C    1.147
    40   7 N    2.556 --    36 C    1.413    39 C    1.351
    41   1 H    1.032 --     1 C    0.996
    42   1 H    1.014 --     3 C    0.993
    43   1 H    1.017 --     4 C    1.000
    44   1 H    1.080 --     6 N    0.962
    45   1 H    1.034 --    11 C    0.988
    46   1 H    1.050 --    12 C    0.982
    47   1 H    1.049 --    14 C    0.982
    48   1 H    1.034 --    15 C    0.988
    49   1 H    1.022 --    17 C    1.000
    50   1 H    1.029 --    18 C    0.999
    51   1 H    1.024 --    23 C    0.998
    52   1 H    1.016 --    24 C    0.999
    53   1 H    1.081 --    26 N    0.961
    54   1 H    1.033 --    31 C    0.988
    55   1 H    1.049 --    32 C    0.982
    56   1 H    1.050 --    34 C    0.982
    57   1 H    1.035 --    35 C    0.989
    58   1 H    1.022 --    37 C    1.001
    59   1 H    1.017 --    38 C    0.993
    60   6 C    3.819 --    98 C    1.403    61 C    1.361   100 H    0.996
    61   6 C    3.910 --    60 C    1.361    62 C    1.251    65 N    1.223
    62   6 C    3.836 --    63 C    1.581    61 C    1.251   101 H    0.993
    63   6 C    3.823 --    62 C    1.581    64 C    1.266   102 H    1.000
    64   6 C    3.910 --    66 C    1.288    63 C    1.266    65 N    1.248
    65   7 N    3.260 --    64 C    1.248    61 C    1.223   103 H    0.962
    66   6 C    3.842 --    75 C    1.315    64 C    1.288    67 C    1.187
    67   6 C    3.813 --    68 C    2.658    66 C    1.187
    68   6 C    3.781 --    67 C    2.658    69 C    1.155
    69   6 C    3.928 --    74 C    1.373    70 C    1.372    68 C    1.155
    70   6 C    3.879 --    71 C    1.464    69 C    1.372   104 H    0.988
    71   6 C    4.006 --    72 N    1.469    70 C    1.464   105 H    0.982
    72   7 N    2.920 --    71 C    1.469    73 C    1.468
    73   6 C    4.006 --    72 N    1.468    74 C    1.464   106 H    0.982
    74   6 C    3.877 --    73 C    1.464    69 C    1.373   107 H    0.988
    75   6 C    3.939 --    78 N    1.383    66 C    1.315    76 C    1.164
    76   6 C    3.846 --    77 C    1.693    75 C    1.164   108 H    1.000
    77   6 C    3.855 --    76 C    1.693    79 C    1.164   109 H    0.999
    78   7 N    2.565 --    79 C    1.389    75 C    1.383
    79   6 C    3.931 --    78 N    1.389    80 C    1.307    77 C    1.164
    80   6 C    3.848 --    79 C    1.307    81 C    1.282   130 C    1.209
    81   6 C    3.889 --    80 C    1.282    82 C    1.276    85 N    1.240
    82   6 C    3.829 --    83 C    1.568    81 C    1.276   110 H    0.998
    83   6 C    3.817 --    82 C    1.568    84 C    1.273   111 H    0.999
    84   6 C    3.902 --    86 C    1.289    83 C    1.273    85 N    1.240
    85   7 N    3.268 --    84 C    1.240    81 C    1.240   112 H    0.961
    86   6 C    3.826 --    95 C    1.302    84 C    1.289    87 C    1.191
    87   6 C    3.812 --    88 C    2.652    86 C    1.191
    88   6 C    3.776 --    87 C    2.652    89 C    1.157
    89   6 C    3.927 --    90 C    1.371    94 C    1.371    88 C    1.157
    90   6 C    3.876 --    91 C    1.464    89 C    1.371   113 H    0.988
    91   6 C    4.005 --    92 N    1.468    90 C    1.464   114 H    0.982
    92   7 N    2.918 --    91 C    1.468    93 C    1.468
    93   6 C    4.006 --    92 N    1.468    94 C    1.464   115 H    0.982
    94   6 C    3.876 --    93 C    1.464    89 C    1.371   116 H    0.989
    95   6 C    3.960 --    99 N    1.411    86 C    1.302    96 C    1.156
    96   6 C    3.847 --    97 C    1.706    95 C    1.156   117 H    1.001
    97   6 C    3.867 --    96 C    1.706    98 C    1.146   118 H    0.993
    98   6 C    3.954 --    60 C    1.403    99 N    1.352    97 C    1.146
    99   7 N    2.554 --    95 C    1.411    98 C    1.352
   100   1 H    1.032 --    60 C    0.996
   101   1 H    1.014 --    62 C    0.993
   102   1 H    1.017 --    63 C    1.000
   103   1 H    1.080 --    65 N    0.962
   104   1 H    1.034 --    70 C    0.988
   105   1 H    1.050 --    71 C    0.982
   106   1 H    1.049 --    73 C    0.982
   107   1 H    1.034 --    74 C    0.988
   108   1 H    1.024 --    76 C    1.000
   109   1 H    1.028 --    77 C    0.999
   110   1 H    1.025 --    82 C    0.998
   111   1 H    1.016 --    83 C    0.999
   112   1 H    1.081 --    85 N    0.961
   113   1 H    1.033 --    90 C    0.988
   114   1 H    1.049 --    91 C    0.982
   115   1 H    1.050 --    93 C    0.982
   116   1 H    1.035 --    94 C    0.989
   117   1 H    1.022 --    96 C    1.001
   118   1 H    1.017 --    97 C    0.993
   119   6 C    3.803 --   120 C    2.517   121 C    1.312
   120   6 C    3.796 --   119 C    2.517    21 C    1.203   122 C    0.180
   121   6 C    3.796 --   122 C    2.513   119 C    1.312
   122   6 C    3.799 --   121 C    2.513   131 C    1.206   120 C    0.180
   123   6 C    3.798 --   124 C    2.488   125 C    1.336
   124   6 C    3.800 --   123 C    2.488   151 C    1.230   126 C    0.179
   125   6 C    3.797 --   126 C    2.488   123 C    1.336
   126   6 C    3.800 --   125 C    2.488   189 C    1.230   124 C    0.179
   127   6 C    3.796 --   128 C    2.507   129 C    1.318
   128   6 C    3.800 --   127 C    2.507   209 C    1.212   130 C    0.179
   129   6 C    3.802 --   130 C    2.510   127 C    1.318
   130   6 C    3.797 --   129 C    2.510    80 C    1.209   128 C    0.179
   131   6 C    3.827 --   169 C    1.307   132 C    1.278   122 C    1.206
   132   6 C    3.895 --   131 C    1.278   133 C    1.278   136 N    1.244
   133   6 C    3.823 --   134 C    1.565   132 C    1.278   171 H    0.998
   134   6 C    3.824 --   133 C    1.565   135 C    1.277   172 H    1.000
   135   6 C    3.897 --   137 C    1.286   134 C    1.277   136 N    1.238
   136   7 N    3.262 --   132 C    1.244   135 C    1.238   173 H    0.961
   137   6 C    3.848 --   146 C    1.324   135 C    1.286   138 C    1.185
   138   6 C    3.815 --   139 C    2.662   137 C    1.185
   139   6 C    3.784 --   138 C    2.662   140 C    1.154
   140   6 C    3.930 --   141 C    1.374   145 C    1.374   139 C    1.154
   141   6 C    3.878 --   142 C    1.463   140 C    1.374   174 H    0.988
   142   6 C    4.006 --   143 N    1.470   141 C    1.463   175 H    0.982
   143   7 N    2.922 --   142 C    1.470   144 C    1.469
   144   6 C    4.006 --   143 N    1.469   145 C    1.463   176 H    0.982
   145   6 C    3.880 --   144 C    1.463   140 C    1.374   177 H    0.988
   146   6 C    3.938 --   149 N    1.374   137 C    1.324   147 C    1.164
   147   6 C    3.850 --   148 C    1.691   146 C    1.164   178 H    1.000
   148   6 C    3.851 --   147 C    1.691   150 C    1.166   179 H    1.000
   149   7 N    2.556 --   150 C    1.401   146 C    1.374
   150   6 C    3.931 --   149 N    1.401   151 C    1.294   148 C    1.166
   151   6 C    3.826 --   150 C    1.294   152 C    1.270   124 C    1.230
   152   6 C    3.890 --   153 C    1.282   151 C    1.270   156 N    1.246
   153   6 C    3.822 --   154 C    1.560   152 C    1.282   180 H    0.999
   154   6 C    3.819 --   153 C    1.560   155 C    1.280   181 H    1.000
   155   6 C    3.895 --   157 C    1.282   154 C    1.280   156 N    1.238
   156   7 N    3.264 --   152 C    1.246   155 C    1.238   182 H    0.962
   157   6 C    3.841 --   166 C    1.323   155 C    1.282   158 C    1.187
   158   6 C    3.814 --   159 C    2.659   157 C    1.187
   159   6 C    3.781 --   158 C    2.659   160 C    1.154
   160   6 C    3.929 --   165 C    1.373   161 C    1.373   159 C    1.154
   161   6 C    3.877 --   162 C    1.463   160 C    1.373   183 H    0.988
   162   6 C    4.006 --   163 N    1.469   161 C    1.463   184 H    0.982
   163   7 N    2.921 --   164 C    1.469   162 C    1.469
   164   6 C    4.006 --   163 N    1.469   165 C    1.463   185 H    0.982
   165   6 C    3.877 --   164 C    1.463   160 C    1.373   186 H    0.988
   166   6 C    3.941 --   170 N    1.379   157 C    1.323   167 C    1.162
   167   6 C    3.852 --   168 C    1.695   166 C    1.162   187 H    1.000
   168   6 C    3.854 --   167 C    1.695   169 C    1.163   188 H    0.999
   169   6 C    3.935 --   170 N    1.391   131 C    1.307   168 C    1.163
   170   7 N    2.552 --   169 C    1.391   166 C    1.379
   171   1 H    1.022 --   133 C    0.998
   172   1 H    1.018 --   134 C    1.000
   173   1 H    1.081 --   136 N    0.961
   174   1 H    1.034 --   141 C    0.988
   175   1 H    1.049 --   142 C    0.982
   176   1 H    1.049 --   144 C    0.982
   177   1 H    1.033 --   145 C    0.988
   178   1 H    1.024 --   147 C    1.000
   179   1 H    1.026 --   148 C    1.000
   180   1 H    1.022 --   153 C    0.999
   181   1 H    1.018 --   154 C    1.000
   182   1 H    1.081 --   156 N    0.962
   183   1 H    1.034 --   161 C    0.988
   184   1 H    1.050 --   162 C    0.982
   185   1 H    1.049 --   164 C    0.982
   186   1 H    1.033 --   165 C    0.988
   187   1 H    1.022 --   167 C    1.000
   188   1 H    1.027 --   168 C    0.999
   189   6 C    3.824 --   227 C    1.294   190 C    1.269   126 C    1.230
   190   6 C    3.891 --   191 C    1.283   189 C    1.269   194 N    1.246
   191   6 C    3.822 --   192 C    1.559   190 C    1.283   229 H    0.999
   192   6 C    3.819 --   191 C    1.559   193 C    1.281   230 H    1.000
   193   6 C    3.895 --   195 C    1.282   192 C    1.281   194 N    1.238
   194   7 N    3.264 --   190 C    1.246   193 C    1.238   231 H    0.962
   195   6 C    3.842 --   204 C    1.324   193 C    1.282   196 C    1.187
   196   6 C    3.815 --   197 C    2.660   195 C    1.187
   197   6 C    3.782 --   196 C    2.660   198 C    1.154
   198   6 C    3.929 --   203 C    1.373   199 C    1.373   197 C    1.154
   199   6 C    3.877 --   200 C    1.463   198 C    1.373   232 H    0.988
   200   6 C    4.006 --   201 N    1.469   199 C    1.463   233 H    0.982
   201   7 N    2.921 --   202 C    1.469   200 C    1.469
   202   6 C    4.006 --   201 N    1.469   203 C    1.463   234 H    0.982
   203   6 C    3.879 --   202 C    1.463   198 C    1.373   235 H    0.988
   204   6 C    3.941 --   207 N    1.377   195 C    1.324   205 C    1.163
   205   6 C    3.852 --   206 C    1.694   204 C    1.163   236 H    1.001
   206   6 C    3.852 --   205 C    1.694   208 C    1.164   237 H    0.999
   207   7 N    2.552 --   208 C    1.394   204 C    1.377
   208   6 C    3.934 --   207 N    1.394   209 C    1.303   206 C    1.164
   209   6 C    3.825 --   208 C    1.303   210 C    1.276   128 C    1.212
   210   6 C    3.895 --   211 C    1.279   209 C    1.276   214 N    1.245
   211   6 C    3.823 --   212 C    1.563   210 C    1.279   238 H    0.998
   212   6 C    3.823 --   211 C    1.563   213 C    1.278   239 H    1.000
   213   6 C    3.896 --   215 C    1.285   212 C    1.278   214 N    1.237
   214   7 N    3.262 --   210 C    1.245   213 C    1.237   240 H    0.962
   215   6 C    3.847 --   224 C    1.324   213 C    1.285   216 C    1.185
   216   6 C    3.815 --   217 C    2.661   215 C    1.185
   217   6 C    3.784 --   216 C    2.661   218 C    1.154
   218   6 C    3.930 --   219 C    1.374   223 C    1.374   217 C    1.154
   219   6 C    3.878 --   220 C    1.463   218 C    1.374   241 H    0.988
   220   6 C    4.006 --   221 N    1.469   219 C    1.463   242 H    0.982
   221   7 N    2.922 --   222 C    1.470   220 C    1.469
   222   6 C    4.006 --   221 N    1.470   223 C    1.463   243 H    0.982
   223   6 C    3.880 --   222 C    1.463   218 C    1.374   244 H    0.988
   224   6 C    3.938 --   228 N    1.374   215 C    1.324   225 C    1.164
   225   6 C    3.850 --   226 C    1.691   224 C    1.164   245 H    1.000
   226   6 C    3.851 --   225 C    1.691   227 C    1.166   246 H    1.000
   227   6 C    3.931 --   228 N    1.401   189 C    1.294   226 C    1.166
   228   7 N    2.555 --   227 C    1.401   224 C    1.374
   229   1 H    1.022 --   191 C    0.999
   230   1 H    1.018 --   192 C    1.000
   231   1 H    1.081 --   194 N    0.962
   232   1 H    1.034 --   199 C    0.988
   233   1 H    1.049 --   200 C    0.982
   234   1 H    1.049 --   202 C    0.982
   235   1 H    1.033 --   203 C    0.988
   236   1 H    1.024 --   205 C    1.001
   237   1 H    1.027 --   206 C    0.999
   238   1 H    1.023 --   211 C    0.998
   239   1 H    1.018 --   212 C    1.000
   240   1 H    1.081 --   214 N    0.962
   241   1 H    1.034 --   219 C    0.988
   242   1 H    1.049 --   220 C    0.982
   243   1 H    1.049 --   222 C    0.982
   244   1 H    1.033 --   223 C    0.988
   245   1 H    1.024 --   225 C    1.000
   246   1 H    1.026 --   226 C    1.000
 ---------------------------------------------------------------------------

Topologies differ in total number of bonds
Writing topology from bond orders to xtbtopo.mol

 dipole moment from electron density (au)
     X       Y       Z   
-134.6462   0.1760  -0.0423  total (Debye):  342.237


           -------------------------------------------------
          | TOTAL ENERGY             -489.259328438490 Eh   |
          | GRADIENT NORM               0.086919782725 Eh/α |
          | HOMO-LUMO GAP               0.062042380663 eV   |
           -------------------------------------------------
########################################################################
[WARNING] Runtime exception occurred
-1- restart_readRestart: Dimension missmatch in restart file.
########################################################################

------------------------------------------------------------------------
 * finished run on 2022/07/28 at 20:49:14.281     
------------------------------------------------------------------------
 total:
 * wall-time:     0 d,  0 h,  0 min, 33.167 sec
 *  cpu-time:     0 d,  0 h,  0 min, 32.906 sec
 * ratio c/w:     0.992 speedup
 SCF:
 * wall-time:     0 d,  0 h,  0 min, 32.453 sec
 *  cpu-time:     0 d,  0 h,  0 min, 32.198 sec
 * ratio c/w:     0.992 speedup

