      -----------------------------------------------------------      
     |                   =====================                   |     
     |                           x T B                           |     
     |                   =====================                   |     
     |                         S. Grimme                         |     
     |          Mulliken Center for Theoretical Chemistry        |     
     |                    University of Bonn                     |     
      -----------------------------------------------------------      

   * xtb version 6.5.1 (b24c23e) compiled by 'conda@728c89f4b128' on 2022-07-12

   xtb is free software: you can redistribute it and/or modify it under
   the terms of the GNU Lesser General Public License as published by
   the Free Software Foundation, either version 3 of the License, or
   (at your option) any later version.
   
   xtb is distributed in the hope that it will be useful,
   but WITHOUT ANY WARRANTY; without even the implied warranty of
   MERCHANTABILITY or FITNESS FOR A PARTICULAR PURPOSE.  See the
   GNU Lesser General Public License for more details.
   
   Cite this work as:
   * C. Bannwarth, E. Caldeweyher, S. Ehlert, A. Hansen, P. Pracht,
     J. Seibert, S. Spicher, S. Grimme, WIREs Comput. Mol. Sci., 2020, 11,
     e01493. DOI: 10.1002/wcms.1493
   
   for GFN2-xTB:
   * C. Bannwarth, S. Ehlert and S. Grimme., J. Chem. Theory Comput., 2019,
     15, 1652-1671. DOI: 10.1021/acs.jctc.8b01176
   for GFN1-xTB:
   * S. Grimme, C. Bannwarth, P. Shushkov, J. Chem. Theory Comput., 2017,
     13, 1989-2009. DOI: 10.1021/acs.jctc.7b00118
   for GFN0-xTB:
   * P. Pracht, E. Caldeweyher, S. Ehlert, S. Grimme, ChemRxiv, 2019, preprint.
     DOI: 10.26434/chemrxiv.8326202.v1
   for GFN-FF:
   * S. Spicher and S. Grimme, Angew. Chem. Int. Ed., 2020, 59, 15665-15673.
     DOI: 10.1002/anie.202004239
   
   for ALPB and GBSA implicit solvation:
   * S. Ehlert, M. Stahn, S. Spicher, S. Grimme, J. Chem. Theory Comput.,
     2021, 17, 4250-4261. DOI: 10.1021/acs.jctc.1c00471
   
   for DFT-D4:
   * E. Caldeweyher, C. Bannwarth and S. Grimme, J. Chem. Phys., 2017,
     147, 034112. DOI: 10.1063/1.4993215
   * E. Caldeweyher, S. Ehlert, A. Hansen, H. Neugebauer, S. Spicher,
     C. Bannwarth and S. Grimme, J. Chem. Phys., 2019, 150, 154122.
     DOI: 10.1063/1.5090222
   * E. Caldeweyher, J.-M. Mewes, S. Ehlert and S. Grimme, Phys. Chem. Chem. Phys.
     2020, 22, 8499-8512. DOI: 10.1039/D0CP00502A
   
   for sTDA-xTB:
   * S. Grimme and C. Bannwarth, J. Chem. Phys., 2016, 145, 054103.
     DOI: 10.1063/1.4959605
   
   in the mass-spec context:
   * V. Asgeirsson, C. Bauer and S. Grimme, Chem. Sci., 2017, 8, 4879.
     DOI: 10.1039/c7sc00601b
   * J. Koopman and S. Grimme, ACS Omega 2019, 4, 12, 15120-15133.
     DOI: 10.1021/acsomega.9b02011
   
   for metadynamics refer to:
   * S. Grimme, J. Chem. Theory Comput., 2019, 155, 2847-2862
     DOI: 10.1021/acs.jctc.9b00143
   
   for SPH calculations refer to:
   * S. Spicher and S. Grimme, J. Chem. Theory Comput., 2021, 17, 1701-1714
     DOI: 10.1021/acs.jctc.0c01306
   
   with help from (in alphabetical order)
   P. Atkinson, C. Bannwarth, F. Bohle, G. Brandenburg, E. Caldeweyher
   M. Checinski, S. Dohm, S. Ehlert, S. Ehrlich, I. Gerasimov, C. Hölzer
   A. Katbashev, J. Koopman, C. Lavigne, S. Lehtola, F. März, M. Müller,
   F. Musil, H. Neugebauer, J. Pisarek, C. Plett, P. Pracht, F. Pultar,
   J. Seibert, P. Shushkov, S. Spicher, M. Stahn, M. Steiner, T. Strunk,
   J. Stückrath, T. Rose, and J. Unsleber
   
 * started run on 2022/07/30 at 15:04:36.315     

           -------------------------------------------------
          |                Calculation Setup                |
           -------------------------------------------------

          program call               : xtb Zn_Ph2OMe_C4_4.xyz --gfn 1 --opt -T 48
          hostname                   : cx3-15-13.cx3.hpc.ic.ac.uk
          coordinate file            : Zn_Ph2OMe_C4_4.xyz
          omp threads                :                     1

   ID    Z sym.   atoms
    1   30 Zn     1, 73, 157, 228
    2    6 C      2-6, 8-11, 13-21, 23-27, 29-33, 36, 37, 39-43, 45, 74-78,
                  80-83, 85-93, 95-99, 101-105, 108, 109, 111-115, 117,
                  145-156, 158-162, 164-167, 169-177, 179-183, 185-189, 192,
                  193, 195-199, 201, 229-233, 235-238, 240-248, 250-254,
                  256-260, 263, 264, 266-270, 272
    3    7 N      7, 12, 34, 35, 79, 84, 106, 107, 163, 168, 190, 191, 234,
                  239, 261, 262
    4    8 O      22, 28, 38, 44, 94, 100, 110, 116, 178, 184, 194, 200, 249,
                  255, 265, 271
    5    1 H      46-72, 118-144, 202-227, 273-298

molecular fragmentation (1/2 indicates fragments):
111111111111111111111111111111111111111111111111111111111111111111111111
222222222222222222222222222222222222222222222222222222222222222222222222
222222222222222222222222222222222222222222222222222222222222222222222222
222222222222222222222222222222222222222222222222222222222222222222222222
2222222222
# atoms in fragment 1/2:    72   226
 fragment masses (1/2) :      645.00     2077.12
CMA distance (Bohr)    :  54.642
constraining FC (au)   :  0.0500
########################################################################
[WARNING] Please study the warnings concerning your input carefully
-1- prog_main_parseArguments: Unknown option '-T' provided
########################################################################

           -------------------------------------------------
          |                 G F N 1 - x T B                 |
           -------------------------------------------------

        Reference                      10.1021/acs.jctc.7b00118
      * Hamiltonian:
        H0-scaling (s, p, d)           1.850000    2.250000    2.000000
        zeta-weighting                 0.000000
      * Dispersion:
        s8                             2.400000
        a1                             0.630000
        a2                             5.000000
        s9                             0.000000
      * Repulsion:
        kExp                           1.500000
        rExp                           1.000000
      * Coulomb:
        alpha                          2.000000
        third order                    atomic
        anisotropic                    false
      * Halogen bond correction:
        rad-scale                      1.300000
        damping                        0.440000


          ...................................................
          :                      SETUP                      :
          :.................................................:
          :  # basis functions                 980          :
          :  # atomic orbitals                 980          :
          :  # shells                          596          :
          :  # electrons                       914          :
          :  # halogen bonds                     0          :
          :  max. iterations                   250          :
          :  Hamiltonian                  GFN1-xTB          :
          :  restarted?                      false          :
          :  GBSA solvation                  false          :
          :  PC potential                    false          :
          :  electronic temp.          300.0000000     K    :
          :  accuracy                    1.0000000          :
          :  -> integral cutoff          0.2500000E+02      :
          :  -> integral neglect         0.1000000E-07      :
          :  -> SCF convergence          0.1000000E-05 Eh   :
          :  -> wf. convergence          0.2000000E-04 e    :
          :  Broyden damping             0.4000000          :
          ...................................................

 iter      E             dE          RMSdq      gap      omega  full diag
   1   -520.9063453 -0.520906E+03  0.989E+00    0.19       0.0  T
   2   -520.7811317  0.125214E+00  0.598E+00    0.14       1.0  T
   3   -389.1422580  0.131639E+03  0.604E+00    0.03       1.0  T
   4    213.8199230  0.602962E+03  0.102E+01    0.01       1.0  T
   5   -300.3018226 -0.514122E+03  0.627E+00    0.02       1.0  T
   6   -517.0822932 -0.216780E+03  0.209E+00    0.01       1.0  T
   7   -520.6274326 -0.354514E+01  0.125E+00    0.08       1.0  T
   8   -521.5770498 -0.949617E+00  0.888E-01    0.43       1.0  T
   9   -521.8832483 -0.306198E+00  0.516E-01    0.16       1.0  T
  10   -521.2586268  0.624622E+00  0.677E-01    0.27       1.0  T
  11   -521.8904761 -0.631849E+00  0.522E-01    0.15       1.0  T
  12   -521.9086339 -0.181578E-01  0.425E-01    0.13       1.0  T
  13   -521.9466836 -0.380497E-01  0.327E-01    0.11       1.0  T
  14   -521.9726482 -0.259645E-01  0.254E-01    0.17       1.0  T
  15   -521.6913899  0.281258E+00  0.499E-01    0.09       1.0  T
  16   -521.6955502 -0.416035E-02  0.390E-01    0.06       1.0  T
  17   -521.9997723 -0.304222E+00  0.821E-02    0.11       1.0  T
  18   -521.9928686  0.690366E-02  0.137E-01    0.20       1.0  T
  19   -521.9955527 -0.268402E-02  0.107E-01    0.19       1.0  T
  20   -521.9976056 -0.205295E-02  0.870E-02    0.18       1.0  T
  21   -521.9994199 -0.181433E-02  0.732E-02    0.16       1.0  T
  22   -522.0007011 -0.128118E-02  0.644E-02    0.15       1.0  T
  23   -522.0034935 -0.279233E-02  0.425E-02    0.14       1.0  T
  24   -522.0047584 -0.126495E-02  0.295E-02    0.13       1.0  T
  25   -522.0053404 -0.582036E-03  0.188E-02    0.11       1.0  T
  26   -522.0054733 -0.132897E-03  0.136E-02    0.10       1.0  T
  27   -522.0057117 -0.238328E-03  0.724E-03    0.11       1.0  T
  28   -522.0057697 -0.579893E-04  0.366E-03    0.11       1.6  T
  29   -522.0057834 -0.137317E-04  0.161E-03    0.11       3.6  T
  30   -522.0057875 -0.410676E-05  0.401E-04    0.11      14.4  T
  31   -522.0057876 -0.948507E-07  0.243E-04    0.11      23.9  T
  32   -522.0057876  0.216493E-07  0.302E-04    0.11      19.2  T
  33   -522.0057877 -0.767235E-07  0.159E-04    0.11      36.3  T
  34   -522.0057877  0.470209E-09  0.151E-04    0.11      38.3  T

   *** convergence criteria satisfied after 34 iterations ***

         #    Occupation            Energy/Eh            Energy/eV
      -------------------------------------------------------------
         1        2.0000           -0.7953782             -21.6433
       ...           ...                  ...                  ...
       451        2.0000           -0.3707443             -10.0885
       452        2.0000           -0.3701113             -10.0712
       453        2.0000           -0.3692324             -10.0473
       454        2.0000           -0.3686380             -10.0312
       455        2.0000           -0.3661226              -9.9627
       456        2.0000           -0.3585969              -9.7579
       457        1.7024           -0.3500638              -9.5257 (HOMO)
       458        0.1543           -0.3460488              -9.4165 (LUMO)
       459        0.1434           -0.3459736              -9.4144
       460                         -0.3192648              -8.6876
       461                         -0.3139983              -8.5443
       462                         -0.3127087              -8.5092
       ...                                ...                  ...
       980                          1.2832603              34.9193
      -------------------------------------------------------------
                  HL-Gap            0.0040150 Eh            0.1093 eV
             Fermi-level           -0.3484068 Eh           -9.4806 eV

 SCC (total)                   0 d,  0 h,  0 min, 12.802 sec
 SCC setup                      ...        0 min,  0.023 sec (  0.183%)
 Dispersion                     ...        0 min,  0.014 sec (  0.111%)
 classical contributions        ...        0 min,  0.005 sec (  0.036%)
 integral evaluation            ...        0 min,  0.363 sec (  2.835%)
 iterations                     ...        0 min, 11.498 sec ( 89.815%)
 molecular gradient             ...        0 min,  0.830 sec (  6.486%)
 printout                       ...        0 min,  0.068 sec (  0.534%)

         :::::::::::::::::::::::::::::::::::::::::::::::::::::
         ::                     SUMMARY                     ::
         :::::::::::::::::::::::::::::::::::::::::::::::::::::
         :: total energy            -515.172688196124 Eh    ::
         :: gradient norm              0.764711861971 Eh/a0 ::
         :: HOMO-LUMO gap              0.109255017750 eV    ::
         ::.................................................::
         :: SCC energy              -522.005787651923 Eh    ::
         :: -> electrostatic           0.857240472915 Eh    ::
         :: repulsion energy           7.089170515850 Eh    ::
         :: dispersion energy         -0.256071060052 Eh    ::
         :: halogen bond corr.         0.000000000000 Eh    ::
         :: add. restraining           0.000000000000 Eh    ::
         :: total charge              -0.000000000003 e     ::
         :::::::::::::::::::::::::::::::::::::::::::::::::::::

      ----------------------------------------------------------- 
     |                   =====================                   |
     |                        A N C O P T                        |
     |                   =====================                   |
     |               Approximate Normal Coordinate               |
     |                Rational Function Optimizer                |
      ----------------------------------------------------------- 

          ...................................................
          :                      SETUP                      :
          :.................................................:
          :   optimization level            normal          :
          :   max. optcycles                   894          :
          :   ANC micro-cycles                  20          :
          :   degrees of freedom               888          :
          :.................................................:
          :   RF solver                   davidson          :
          :   write xtbopt.log                true          :
          :   linear?                        false          :
          :   energy convergence         0.5000000E-05 Eh   :
          :   grad. convergence          0.1000000E-02 Eh/α :
          :   maximium RF displ.         1.0000000          :
          :   Hlow (freq-cutoff)         0.1000000E-01      :
          :   Hmax (freq-cutoff)         5.0000000          :
          :   S6 in model hess.         20.0000000          :
          ...................................................

generating ANC from model Hessian ...
Using Lindh-Hessian (1995)
 Shifting diagonal of input Hessian by    1.0027440632819002E-002
 Lowest  eigenvalues of input Hessian
    0.010000    0.010001    0.010006    0.010008    0.010012    0.010013
    0.010016    0.010020    0.010022    0.010022    0.010023    0.010025
    0.010026    0.000000    0.000000    0.000000    0.000000    0.000000
 Highest eigenvalues
    2.101290    2.102790    2.102791    2.440046    2.538067    2.543900


........................................................................
.............................. CYCLE    1 ..............................
........................................................................
   1   -522.0057877 -0.522006E+03  0.111E-04    0.11       0.0  T
   2   -522.0057854  0.225988E-05  0.120E-03    0.11       4.8  T
   3   -522.0057873 -0.186835E-05  0.475E-04    0.11      12.2  T
   4   -522.0057875 -0.241240E-06  0.305E-04    0.11      19.0  T
   5   -522.0057876 -0.959611E-07  0.198E-04    0.11      29.3  T
   6   -522.0057877 -0.637168E-07  0.509E-05    0.11     113.7  T
     SCC iter.                  ...        0 min,  2.045 sec
     gradient                   ...        0 min,  0.821 sec
 * total energy  :  -515.1726882 Eh     change       -0.1985416E-07 Eh
   gradient norm :     0.7647139 Eh/α   predicted     0.0000000E+00 (-100.00%)
   displ. norm   :     0.5411204 α      lambda       -0.3536009E+00
   maximum displ.:     0.1229772 α      in ANC's #747, #541, #759, ...

........................................................................
.............................. CYCLE    2 ..............................
........................................................................
   1   -522.2180689 -0.522218E+03  0.141E-01    0.15       0.0  T
   2   -521.9975745  0.220494E+00  0.423E-01    0.05       1.0  T
   3   -522.2066150 -0.209040E+00  0.150E-01    0.10       1.0  T
   4   -522.2145437 -0.792875E-02  0.119E-01    0.32       1.0  T
   5   -522.2101845  0.435921E-02  0.115E-01    0.08       1.0  T
   6   -522.2198018 -0.961733E-02  0.772E-02    0.29       1.0  T
   7   -522.2237205 -0.391865E-02  0.539E-02    0.21       1.0  T
   8   -522.2260746 -0.235411E-02  0.331E-02    0.15       1.0  T
   9   -522.2243464  0.172825E-02  0.427E-02    0.10       1.0  T
  10   -522.2264497 -0.210330E-02  0.227E-02    0.14       1.0  T
  11   -522.2271479 -0.698261E-03  0.843E-03    0.13       1.0  T
  12   -522.2271656 -0.176780E-04  0.599E-03    0.13       1.0  T
  13   -522.2271942 -0.286086E-04  0.381E-03    0.13       1.5  T
  14   -522.2272078 -0.136029E-04  0.178E-03    0.13       3.2  T
  15   -522.2272130 -0.518578E-05  0.277E-04    0.13      20.9  T
  16   -522.2272124  0.595201E-06  0.608E-04    0.13       9.5  T
  17   -522.2272129 -0.503292E-06  0.295E-04    0.13      19.6  T
  18   -522.2272130 -0.954474E-07  0.173E-04    0.13      33.6  T
  19   -522.2272130 -0.499203E-07  0.405E-05    0.13     142.9  T
     SCC iter.                  ...        0 min,  6.440 sec
     gradient                   ...        0 min,  0.837 sec
 * total energy  :  -515.4691384 Eh     change       -0.2964502E+00 Eh
   gradient norm :     0.4935163 Eh/α   predicted    -0.2285934E+00 ( -22.89%)
   displ. norm   :     0.6356559 α      lambda       -0.2806596E+00
   maximum displ.:     0.1479029 α      in ANC's #541, #254, #747, ...

........................................................................
.............................. CYCLE    3 ..............................
........................................................................
   1   -522.5603754 -0.522560E+03  0.167E-01    0.19       0.0  T
   2   -522.5455350  0.148404E-01  0.195E-01    0.11       1.0  T
   3   -522.5597674 -0.142324E-01  0.133E-01    0.24       1.0  T
   4   -522.5712232 -0.114558E-01  0.527E-02    0.17       1.0  T
   5   -522.5530677  0.181554E-01  0.114E-01    0.07       1.0  T
   6   -522.5713544 -0.182867E-01  0.347E-02    0.18       1.0  T
   7   -522.5722241 -0.869680E-03  0.201E-02    0.19       1.0  T
   8   -522.5720159  0.208155E-03  0.206E-02    0.16       1.0  T
   9   -522.5725609 -0.544953E-03  0.570E-03    0.17       1.0  T
  10   -522.5726007 -0.397636E-04  0.279E-03    0.17       2.1  T
  11   -522.5726089 -0.822840E-05  0.114E-03    0.16       5.1  T
  12   -522.5726089  0.146767E-07  0.825E-04    0.16       7.0  T
  13   -522.5726094 -0.524762E-06  0.320E-04    0.16      18.1  T
  14   -522.5726095 -0.719582E-07  0.210E-04    0.16      27.6  T
  15   -522.5726095 -0.394110E-07  0.117E-04    0.16      49.7  T
  16   -522.5726095 -0.138157E-07  0.573E-05    0.16     101.2  T
     SCC iter.                  ...        0 min,  5.416 sec
     gradient                   ...        0 min,  0.838 sec
 * total energy  :  -515.6051648 Eh     change       -0.1360265E+00 Eh
   gradient norm :     0.3413767 Eh/α   predicted    -0.1970544E+00 (  44.86%)
   displ. norm   :     0.5139920 α      lambda       -0.9950887E-01
   maximum displ.:     0.1739399 α      in ANC's #254, #190, #577, ...

........................................................................
.............................. CYCLE    4 ..............................
........................................................................
   1   -522.5889923 -0.522589E+03  0.876E-02    0.20       0.0  T
   2   -522.5164925  0.724998E-01  0.281E-01    0.03       1.0  T
   3   -522.5862962 -0.698037E-01  0.980E-02    0.17       1.0  T
   4   -522.5930825 -0.678635E-02  0.276E-02    0.20       1.0  T
   5   -522.5933254 -0.242852E-03  0.231E-02    0.15       1.0  T
   6   -522.5925737  0.751694E-03  0.313E-02    0.13       1.0  T
   7   -522.5936808 -0.110709E-02  0.101E-02    0.15       1.0  T
   8   -522.5937538 -0.729808E-04  0.741E-03    0.16       1.0  T
   9   -522.5937757 -0.218835E-04  0.355E-03    0.16       1.6  T
  10   -522.5937885 -0.128886E-04  0.128E-03    0.16       4.5  T
  11   -522.5937903 -0.176838E-05  0.443E-04    0.16      13.1  T
  12   -522.5937904 -0.497885E-07  0.383E-04    0.16      15.1  T
  13   -522.5937903  0.813299E-07  0.394E-04    0.16      14.7  T
  14   -522.5937905 -0.197937E-06  0.136E-04    0.16      42.5  T
  15   -522.5937905 -0.195065E-07  0.522E-05    0.16     111.0  T
     SCC iter.                  ...        0 min,  5.069 sec
     gradient                   ...        0 min,  0.825 sec
 * total energy  :  -515.6619679 Eh     change       -0.5680311E-01 Eh
   gradient norm :     0.1249597 Eh/α   predicted    -0.6289909E-01 (  10.73%)
   displ. norm   :     0.6594497 α      lambda       -0.4438861E-01
   maximum displ.:     0.2542027 α      in ANC's #190, #254, #124, ...

........................................................................
.............................. CYCLE    5 ..............................
........................................................................
   1   -522.6607725 -0.522661E+03  0.475E-02    0.17       0.0  T
   2   -522.6565629  0.420962E-02  0.655E-02    0.12       1.0  T
   3   -522.6598281 -0.326524E-02  0.425E-02    0.14       1.0  T
   4   -522.6603328 -0.504692E-03  0.339E-02    0.24       1.0  T
   5   -522.6614560 -0.112321E-02  0.147E-02    0.16       1.0  T
   6   -522.6615964 -0.140328E-03  0.988E-03    0.17       1.0  T
   7   -522.6616631 -0.666952E-04  0.458E-03    0.17       1.3  T
   8   -522.6616187  0.443220E-04  0.667E-03    0.16       1.0  T
   9   -522.6616587 -0.399541E-04  0.277E-03    0.17       2.1  T
  10   -522.6616669 -0.817413E-05  0.115E-03    0.17       5.0  T
  11   -522.6616680 -0.111984E-05  0.602E-04    0.17       9.6  T
  12   -522.6616681 -0.145502E-06  0.351E-04    0.17      16.5  T
  13   -522.6616682 -0.105264E-06  0.186E-04    0.17      31.2  T
  14   -522.6616683 -0.342707E-07  0.582E-05    0.17      99.5  T
     SCC iter.                  ...        0 min,  4.741 sec
     gradient                   ...        0 min,  0.826 sec
 * total energy  :  -515.6955068 Eh     change       -0.3353889E-01 Eh
   gradient norm :     0.0758418 Eh/α   predicted    -0.3184604E-01 (  -5.05%)
   displ. norm   :     0.7499880 α      lambda       -0.3102456E-01
   maximum displ.:     0.2558165 α      in ANC's #190, #17, #124, ...

........................................................................
.............................. CYCLE    6 ..............................
........................................................................
   1   -522.7060909 -0.522706E+03  0.374E-02    0.24       0.0  T
   2   -522.6904563  0.156346E-01  0.110E-01    0.08       1.0  T
   3   -522.7058999 -0.154436E-01  0.326E-02    0.25       1.0  T
   4   -522.7066859 -0.786004E-03  0.158E-02    0.23       1.0  T
   5   -522.7068290 -0.143119E-03  0.116E-02    0.21       1.0  T
   6   -522.7069131 -0.841073E-04  0.575E-03    0.20       1.0  T
   7   -522.7068467  0.664078E-04  0.846E-03    0.17       1.0  T
   8   -522.7069091 -0.624198E-04  0.474E-03    0.18       1.2  T
   9   -522.7069293 -0.201241E-04  0.225E-03    0.18       2.6  T
  10   -522.7069360 -0.677304E-05  0.488E-04    0.19      11.9  T
  11   -522.7069363 -0.296170E-06  0.178E-04    0.19      32.6  T
  12   -522.7069363 -0.236741E-07  0.982E-05    0.19      59.0  T
     SCC iter.                  ...        0 min,  4.058 sec
     gradient                   ...        0 min,  0.829 sec
 * total energy  :  -515.7194656 Eh     change       -0.2395878E-01 Eh
   gradient norm :     0.0464462 Eh/α   predicted    -0.2423769E-01 (   1.16%)
   displ. norm   :     0.8231055 α      lambda       -0.2297174E-01
   maximum displ.:     0.2713521 α      in ANC's #17, #64, #48, ...

........................................................................
.............................. CYCLE    7 ..............................
........................................................................
   1   -522.7091075 -0.522709E+03  0.400E-02    0.31       0.0  T
   2   -522.7071214  0.198612E-02  0.787E-02    0.18       1.0  T
   3   -522.7103601 -0.323870E-02  0.166E-02    0.25       1.0  T
   4   -522.7102992  0.608485E-04  0.149E-02    0.22       1.0  T
   5   -522.7104206 -0.121380E-03  0.503E-03    0.24       1.2  T
   6   -522.7104143  0.632331E-05  0.435E-03    0.23       1.3  T
   7   -522.7104276 -0.132562E-04  0.191E-03    0.24       3.0  T
   8   -522.7104297 -0.213532E-05  0.702E-04    0.24       8.2  T
   9   -522.7104300 -0.354013E-06  0.314E-04    0.24      18.4  T
  10   -522.7104301 -0.817091E-07  0.858E-05    0.24      67.5  T
  11   -522.7104301 -0.323882E-08  0.507E-05    0.24     114.4  T
     SCC iter.                  ...        0 min,  3.714 sec
     gradient                   ...        0 min,  0.823 sec
 * total energy  :  -515.7404071 Eh     change       -0.2094148E-01 Eh
   gradient norm :     0.0463194 Eh/α   predicted    -0.1926759E-01 (  -7.99%)
   displ. norm   :     0.9345604 α      lambda       -0.2558800E-01
   maximum displ.:     0.3201551 α      in ANC's #17, #64, #48, ...

........................................................................
.............................. CYCLE    8 ..............................
........................................................................
   1   -522.6968917 -0.522697E+03  0.520E-02    0.47       0.0  T
   2   -522.6959528  0.938864E-03  0.831E-02    0.40       1.0  T
   3   -522.6987118 -0.275900E-02  0.211E-02    0.41       1.0  T
   4   -522.6986575  0.543217E-04  0.171E-02    0.44       1.0  T
   5   -522.6987862 -0.128641E-03  0.573E-03    0.42       1.0  T
   6   -522.6987932 -0.703584E-05  0.319E-03    0.43       1.8  T
   7   -522.6988015 -0.827887E-05  0.755E-04    0.43       7.7  T
   8   -522.6988020 -0.564013E-06  0.379E-04    0.43      15.3  T
   9   -522.6988021 -0.992253E-07  0.121E-04    0.43      47.8  T
  10   -522.6988021 -0.252544E-08  0.693E-05    0.43      83.6  T
     SCC iter.                  ...        0 min,  3.374 sec
     gradient                   ...        0 min,  0.825 sec
 * total energy  :  -515.7659950 Eh     change       -0.2558789E-01 Eh
   gradient norm :     0.0751568 Eh/α   predicted    -0.2396832E-01 (  -6.33%)
   displ. norm   :     0.9533556 α      lambda       -0.2914346E-01
   maximum displ.:     0.2931616 α      in ANC's #17, #64, #120, ...

........................................................................
.............................. CYCLE    9 ..............................
........................................................................
   1   -522.6558183 -0.522656E+03  0.642E-02    0.81       0.0  T
   2   -522.6557243  0.939193E-04  0.798E-02    0.80       1.0  T
   3   -522.6581189 -0.239460E-02  0.219E-02    0.80       1.0  T
   4   -522.6580494  0.695804E-04  0.156E-02    0.83       1.0  T
   5   -522.6581488 -0.994168E-04  0.741E-03    0.81       1.0  T
   6   -522.6581750 -0.262515E-04  0.251E-03    0.83       2.3  T
   7   -522.6581795 -0.443191E-05  0.619E-04    0.83       9.4  T
   8   -522.6581796 -0.177409E-06  0.362E-04    0.83      16.0  T
   9   -522.6581797 -0.588469E-07  0.163E-04    0.83      35.5  T
  10   -522.6581797 -0.160666E-07  0.730E-05    0.83      79.3  T
     SCC iter.                  ...        0 min,  3.373 sec
     gradient                   ...        0 min,  0.825 sec
 * total energy  :  -515.7929225 Eh     change       -0.2692750E-01 Eh
   gradient norm :     0.1114499 Eh/α   predicted    -0.2781579E-01 (   3.30%)
   displ. norm   :     0.9634372 α      lambda       -0.2546086E-01
   maximum displ.:     0.3185893 α      in ANC's #17, #64, #48, ...

........................................................................
.............................. CYCLE   10 ..............................
........................................................................
   1   -522.6455167 -0.522646E+03  0.448E-02    0.91       0.0  T
   2   -522.6457016 -0.184865E-03  0.496E-02    0.91       1.0  T
   3   -522.6463612 -0.659581E-03  0.184E-02    0.91       1.0  T
   4   -522.6462259  0.135274E-03  0.138E-02    0.91       1.0  T
   5   -522.6463515 -0.125594E-03  0.522E-03    0.91       1.1  T
   6   -522.6463765 -0.250356E-04  0.156E-03    0.91       3.7  T
   7   -522.6463785 -0.196757E-05  0.645E-04    0.91       9.0  T
   8   -522.6463789 -0.460409E-06  0.223E-04    0.91      26.0  T
   9   -522.6463790 -0.386387E-07  0.935E-05    0.91      61.9  T
  10   -522.6463790 -0.346847E-08  0.376E-05    0.91     153.9  T
     SCC iter.                  ...        0 min,  3.382 sec
     gradient                   ...        0 min,  0.825 sec
 * total energy  :  -515.8156840 Eh     change       -0.2276149E-01 Eh
   gradient norm :     0.1420339 Eh/α   predicted    -0.2454695E-01 (   7.84%)
   displ. norm   :     0.8087671 α      lambda       -0.2363137E-01
   maximum displ.:     0.2333790 α      in ANC's #17, #64, #120, ...

........................................................................
.............................. CYCLE   11 ..............................
........................................................................
   1   -522.6371086 -0.522637E+03  0.601E-02    0.91       0.0  T
   2   -522.6378179 -0.709291E-03  0.550E-02    0.91       1.0  T
   3   -522.6386505 -0.832536E-03  0.205E-02    0.91       1.0  T
   4   -522.6383898  0.260644E-03  0.178E-02    0.91       1.0  T
   5   -522.6386705 -0.280694E-03  0.648E-03    0.91       1.0  T
   6   -522.6386973 -0.268060E-04  0.209E-03    0.91       2.8  T
   7   -522.6387018 -0.452703E-05  0.902E-04    0.91       6.4  T
   8   -522.6387027 -0.878450E-06  0.377E-04    0.91      15.4  T
   9   -522.6387028 -0.724350E-07  0.129E-04    0.91      44.9  T
  10   -522.6387028 -0.630962E-08  0.698E-05    0.91      83.0  T
     SCC iter.                  ...        0 min,  3.396 sec
     gradient                   ...        0 min,  0.841 sec
 * total energy  :  -515.8318838 Eh     change       -0.1619984E-01 Eh
   gradient norm :     0.1580974 Eh/α   predicted    -0.1954437E-01 (  20.65%)
   displ. norm   :     0.7586489 α      lambda       -0.2829513E-01
   maximum displ.:     0.2902361 α      in ANC's #17, #64, #48, ...

........................................................................
.............................. CYCLE   12 ..............................
........................................................................
   1   -522.6855775 -0.522686E+03  0.265E-02    0.91       0.0  T
   2   -522.6856824 -0.104912E-03  0.233E-02    0.91       1.0  T
   3   -522.6857892 -0.106851E-03  0.102E-02    0.91       1.0  T
   4   -522.6857230  0.662026E-04  0.996E-03    0.91       1.0  T
   5   -522.6857944 -0.713765E-04  0.254E-03    0.91       2.3  T
   6   -522.6857986 -0.422108E-05  0.804E-04    0.91       7.2  T
   7   -522.6857991 -0.485364E-06  0.268E-04    0.91      21.6  T
   8   -522.6857992 -0.625653E-07  0.107E-04    0.91      54.3  T
   9   -522.6857992 -0.101199E-07  0.490E-05    0.91     118.2  T
     SCC iter.                  ...        0 min,  3.066 sec
     gradient                   ...        0 min,  0.842 sec
 * total energy  :  -515.8570806 Eh     change       -0.2519682E-01 Eh
   gradient norm :     0.1383592 Eh/α   predicted    -0.2229018E-01 ( -11.54%)
   displ. norm   :     0.7802168 α      lambda       -0.4009255E-01
   maximum displ.:     0.2069714 α      in ANC's #64, #38, #196, ...

........................................................................
.............................. CYCLE   13 ..............................
........................................................................
   1   -522.7587319 -0.522759E+03  0.580E-02    0.94       0.0  T
   2   -522.7590721 -0.340294E-03  0.535E-02    0.94       1.0  T
   3   -522.7595400 -0.467901E-03  0.270E-02    0.94       1.0  T
   4   -522.7590057  0.534304E-03  0.246E-02    0.94       1.0  T
   5   -522.7595699 -0.564121E-03  0.465E-03    0.94       1.2  T
   6   -522.7595830 -0.131339E-04  0.124E-03    0.94       4.7  T
   7   -522.7595841 -0.106029E-05  0.533E-04    0.94      10.9  T
   8   -522.7595843 -0.242121E-06  0.201E-04    0.94      28.9  T
   9   -522.7595843 -0.315407E-07  0.914E-05    0.94      63.4  T
  10   -522.7595843 -0.470573E-08  0.321E-05    0.94     180.5  T
     SCC iter.                  ...        0 min,  3.421 sec
     gradient                   ...        0 min,  0.839 sec
 * total energy  :  -515.8779924 Eh     change       -0.2091176E-01 Eh
   gradient norm :     0.1090263 Eh/α   predicted    -0.3224919E-01 (  54.22%)
   displ. norm   :     0.7891595 α      lambda       -0.3387809E-01
   maximum displ.:     0.3081732 α      in ANC's #17, #64, #63, ...

........................................................................
.............................. CYCLE   14 ..............................
........................................................................
   1   -522.7676301 -0.522768E+03  0.253E-02    0.93       0.0  T
   2   -522.7676638 -0.336590E-04  0.248E-02    0.93       1.0  T
   3   -522.7678881 -0.224310E-03  0.921E-03    0.93       1.0  T
   4   -522.7678247  0.633736E-04  0.106E-02    0.93       1.0  T
   5   -522.7678972 -0.725149E-04  0.266E-03    0.93       2.2  T
   6   -522.7678996 -0.239279E-05  0.585E-04    0.93       9.9  T
   7   -522.7678999 -0.272846E-06  0.240E-04    0.93      24.1  T
   8   -522.7679000 -0.550179E-07  0.907E-05    0.93      63.9  T
   9   -522.7679000 -0.538807E-08  0.412E-05    0.93     140.7  T
     SCC iter.                  ...        0 min,  3.061 sec
     gradient                   ...        0 min,  0.833 sec
 * total energy  :  -515.8960348 Eh     change       -0.1804243E-01 Eh
   gradient norm :     0.1004078 Eh/α   predicted    -0.2748823E-01 (  52.35%)
   displ. norm   :     0.5772924 α      lambda       -0.3134377E-01
   maximum displ.:     0.2230742 α      in ANC's #17, #64, #48, ...

........................................................................
.............................. CYCLE   15 ..............................
........................................................................
   1   -522.7509218 -0.522751E+03  0.350E-02    0.91       0.0  T
   2   -522.7510939 -0.172045E-03  0.326E-02    0.91       1.0  T
   3   -522.7513298 -0.235914E-03  0.158E-02    0.91       1.0  T
   4   -522.7511386  0.191205E-03  0.149E-02    0.91       1.0  T
   5   -522.7513435 -0.204917E-03  0.362E-03    0.91       1.6  T
   6   -522.7513492 -0.572829E-05  0.884E-04    0.91       6.5  T
   7   -522.7513496 -0.366189E-06  0.430E-04    0.91      13.5  T
   8   -522.7513498 -0.164502E-06  0.140E-04    0.91      41.3  T
   9   -522.7513498 -0.124766E-07  0.622E-05    0.91      93.2  T
     SCC iter.                  ...        0 min,  3.052 sec
     gradient                   ...        0 min,  0.831 sec
 * total energy  :  -515.9151981 Eh     change       -0.1916327E-01 Eh
   gradient norm :     0.1186332 Eh/α   predicted    -0.2089480E-01 (   9.04%)
   displ. norm   :     0.7155983 α      lambda       -0.2504317E-01
   maximum displ.:     0.3290475 α      in ANC's #17, #64, #48, ...

........................................................................
.............................. CYCLE   16 ..............................
........................................................................
   1   -522.7910380 -0.522791E+03  0.257E-02    0.91       0.0  T
   2   -522.7911093 -0.713260E-04  0.226E-02    0.91       1.0  T
   3   -522.7911976 -0.882885E-04  0.101E-02    0.91       1.0  T
   4   -522.7911311  0.664952E-04  0.101E-02    0.91       1.0  T
   5   -522.7912026 -0.714197E-04  0.214E-03    0.91       2.7  T
   6   -522.7912058 -0.327953E-05  0.400E-04    0.91      14.5  T
   7   -522.7912059 -0.100530E-06  0.182E-04    0.91      31.8  T
   8   -522.7912060 -0.279695E-07  0.752E-05    0.91      77.0  T
     SCC iter.                  ...        0 min,  2.709 sec
     gradient                   ...        0 min,  0.832 sec
 * total energy  :  -515.9344212 Eh     change       -0.1922311E-01 Eh
   gradient norm :     0.0870654 Eh/α   predicted    -0.1893366E-01 (  -1.51%)
   displ. norm   :     0.7957816 α      lambda       -0.2858843E-01
   maximum displ.:     0.2942922 α      in ANC's #17, #64, #48, ...

........................................................................
.............................. CYCLE   17 ..............................
........................................................................
   1   -522.8781903 -0.522878E+03  0.287E-02    0.97       0.0  T
   2   -522.8783003 -0.109994E-03  0.209E-02    0.97       1.0  T
   3   -522.8784417 -0.141368E-03  0.980E-03    0.97       1.0  T
   4   -522.8784100  0.316626E-04  0.101E-02    0.97       1.0  T
   5   -522.8785042 -0.941223E-04  0.280E-03    0.97       2.1  T
   6   -522.8785059 -0.173329E-05  0.835E-04    0.97       6.9  T
   7   -522.8785066 -0.678926E-06  0.261E-04    0.97      22.2  T
   8   -522.8785067 -0.714001E-07  0.941E-05    0.97      61.6  T
   9   -522.8785067 -0.599550E-08  0.357E-05    0.97     162.3  T
     SCC iter.                  ...        0 min,  3.046 sec
     gradient                   ...        0 min,  0.830 sec
 * total energy  :  -515.9492895 Eh     change       -0.1486826E-01 Eh
   gradient norm :     0.0979796 Eh/α   predicted    -0.2334632E-01 (  57.02%)
   displ. norm   :     0.7697240 α      lambda       -0.2122018E-01
   maximum displ.:     0.3998721 α      in ANC's #17, #64, #48, ...

........................................................................
.............................. CYCLE   18 ..............................
........................................................................
   1   -522.8865799 -0.522887E+03  0.166E-02    0.95       0.0  T
   2   -522.8865820 -0.213852E-05  0.167E-02    0.95       1.0  T
   3   -522.8866864 -0.104376E-03  0.665E-03    0.95       1.0  T
   4   -522.8866526  0.338067E-04  0.702E-03    0.95       1.0  T
   5   -522.8866896 -0.369517E-04  0.146E-03    0.95       4.0  T
   6   -522.8866904 -0.819734E-06  0.563E-04    0.95      10.3  T
   7   -522.8866908 -0.407373E-06  0.188E-04    0.95      30.8  T
   8   -522.8866908 -0.426701E-07  0.500E-05    0.95     115.9  T
     SCC iter.                  ...        0 min,  2.710 sec
     gradient                   ...        0 min,  0.832 sec
 * total energy  :  -515.9664094 Eh     change       -0.1711990E-01 Eh
   gradient norm :     0.0378671 Eh/α   predicted    -0.1689632E-01 (  -1.31%)
   displ. norm   :     0.8658111 α      lambda       -0.1820257E-01
   maximum displ.:     0.4459870 α      in ANC's #17, #64, #48, ...

........................................................................
.............................. CYCLE   19 ..............................
........................................................................
   1   -522.8691467 -0.522869E+03  0.204E-02    0.92       0.0  T
   2   -522.8691969 -0.502343E-04  0.179E-02    0.92       1.0  T
   3   -522.8692621 -0.652298E-04  0.775E-03    0.92       1.0  T
   4   -522.8692187  0.434128E-04  0.723E-03    0.92       1.0  T
   5   -522.8692644 -0.456803E-04  0.171E-03    0.92       3.4  T
   6   -522.8692669 -0.247902E-05  0.533E-04    0.92      10.9  T
   7   -522.8692672 -0.315304E-06  0.220E-04    0.92      26.4  T
   8   -522.8692673 -0.629998E-07  0.392E-05    0.92     147.8  T
   9   -522.8692673 -0.761133E-09  0.184E-05    0.92     314.5  T
     SCC iter.                  ...        0 min,  3.044 sec
     gradient                   ...        0 min,  0.834 sec
 * total energy  :  -515.9734754 Eh     change       -0.7066043E-02 Eh
   gradient norm :     0.0850894 Eh/α   predicted    -0.1592388E-01 ( 125.36%)
   displ. norm   :     0.6964622 α      lambda       -0.2348159E-01
   maximum displ.:     0.3448172 α      in ANC's #17, #48, #64, ...

........................................................................
.............................. CYCLE   20 ..............................
........................................................................
   1   -522.9077427 -0.522908E+03  0.201E-02    0.93       0.0  T
   2   -522.9077116  0.310816E-04  0.172E-02    0.93       1.0  T
   3   -522.9078205 -0.108824E-03  0.833E-03    0.93       1.0  T
   4   -522.9078046  0.158253E-04  0.732E-03    0.93       1.0  T
   5   -522.9078482 -0.435293E-04  0.200E-03    0.93       2.9  T
   6   -522.9078514 -0.323755E-05  0.756E-04    0.93       7.7  T
   7   -522.9078521 -0.723794E-06  0.117E-04    0.93      49.6  T
   8   -522.9078521 -0.880789E-08  0.476E-05    0.93     121.8  T
     SCC iter.                  ...        0 min,  2.710 sec
     gradient                   ...        0 min,  0.833 sec
 * total energy  :  -515.9893444 Eh     change       -0.1586898E-01 Eh
   gradient norm :     0.0322349 Eh/α   predicted    -0.1743578E-01 (   9.87%)
   displ. norm   :     0.8384472 α      lambda       -0.1416297E-01
   maximum displ.:     0.4748766 α      in ANC's #17, #48, #64, ...
 * RMSD in coord.:     0.6326040 α      energy gain  -0.8166562E+00 Eh

generating ANC from model Hessian ...
Using Lindh-Hessian (1995)
 Shifting diagonal of input Hessian by    1.0022307465353920E-002
 Lowest  eigenvalues of input Hessian
    0.010000    0.010004    0.010008    0.010011    0.010013    0.010016
    0.010016    0.010016    0.010018    0.000000    0.000000    0.000000
    0.000000    0.000000    0.000000    0.010026    0.010035    0.010043
 Highest eigenvalues
    2.120889    2.120983    2.168959    2.520712    2.543912    2.622130


........................................................................
.............................. CYCLE   21 ..............................
........................................................................
   1   -522.9435019 -0.522944E+03  0.112E-02    0.94       0.0  T
   2   -522.9434780  0.238794E-04  0.121E-02    0.94       1.0  T
   3   -522.9435726 -0.945642E-04  0.451E-03    0.94       1.3  T
   4   -522.9435535  0.190701E-04  0.520E-03    0.94       1.1  T
   5   -522.9435771 -0.235582E-04  0.113E-03    0.94       5.1  T
   6   -522.9435776 -0.498522E-06  0.349E-04    0.94      16.6  T
   7   -522.9435777 -0.112843E-06  0.112E-04    0.94      51.6  T
   8   -522.9435777 -0.125744E-07  0.376E-05    0.94     154.2  T
     SCC iter.                  ...        0 min,  2.718 sec
     gradient                   ...        0 min,  0.834 sec
 * total energy  :  -516.0003037 Eh     change       -0.1095926E-01 Eh
   gradient norm :     0.0297777 Eh/α   predicted     0.0000000E+00 (-100.00%)
   displ. norm   :     0.6322134 α      lambda       -0.1013388E-01
   maximum displ.:     0.2655221 α      in ANC's #47, #24, #64, ...

........................................................................
.............................. CYCLE   22 ..............................
........................................................................
   1   -522.9647028 -0.522965E+03  0.497E-03    0.94       0.0  T
   2   -522.9646952  0.759374E-05  0.513E-03    0.94       1.1  T
   3   -522.9647178 -0.226090E-04  0.185E-03    0.94       3.1  T
   4   -522.9647162  0.158064E-05  0.195E-03    0.94       3.0  T
   5   -522.9647189 -0.275928E-05  0.559E-04    0.94      10.4  T
   6   -522.9647191 -0.201216E-06  0.197E-04    0.94      29.4  T
   7   -522.9647192 -0.430430E-07  0.620E-05    0.94      93.5  T
     SCC iter.                  ...        0 min,  2.374 sec
     gradient                   ...        0 min,  0.843 sec
 * total energy  :  -516.0087769 Eh     change       -0.8473242E-02 Eh
   gradient norm :     0.0220319 Eh/α   predicted    -0.7092194E-02 ( -16.30%)
   displ. norm   :     0.8883480 α      lambda       -0.1315761E-01
   maximum displ.:     0.3791051 α      in ANC's #64, #47, #24, ...

........................................................................
.............................. CYCLE   23 ..............................
........................................................................
   1   -522.9911568 -0.522991E+03  0.815E-03    0.93       0.0  T
   2   -522.9911410  0.158049E-04  0.785E-03    0.94       1.0  T
   3   -522.9911884 -0.473895E-04  0.330E-03    0.94       1.8  T
   4   -522.9911866  0.172953E-05  0.308E-03    0.94       1.9  T
   5   -522.9911932 -0.657798E-05  0.919E-04    0.94       6.3  T
   6   -522.9911938 -0.594976E-06  0.296E-04    0.94      19.6  T
   7   -522.9911939 -0.963510E-07  0.899E-05    0.94      64.4  T
   8   -522.9911939 -0.672651E-08  0.304E-05    0.94     190.3  T
     SCC iter.                  ...        0 min,  2.711 sec
     gradient                   ...        0 min,  0.840 sec
 * total energy  :  -516.0192927 Eh     change       -0.1051575E-01 Eh
   gradient norm :     0.0227440 Eh/α   predicted    -0.1177057E-01 (  11.93%)
   displ. norm   :     0.8791188 α      lambda       -0.1201926E-01
   maximum displ.:     0.3701109 α      in ANC's #24, #47, #64, ...

........................................................................
.............................. CYCLE   24 ..............................
........................................................................
   1   -523.0102227 -0.523010E+03  0.656E-03    0.93       0.0  T
   2   -523.0102014  0.212660E-04  0.708E-03    0.93       1.0  T
   3   -523.0102524 -0.510428E-04  0.234E-03    0.93       2.5  T
   4   -523.0102508  0.167083E-05  0.236E-03    0.93       2.5  T
   5   -523.0102540 -0.327445E-05  0.789E-04    0.93       7.3  T
   6   -523.0102545 -0.480161E-06  0.246E-04    0.93      23.6  T
   7   -523.0102546 -0.677740E-07  0.762E-05    0.93      76.0  T
   8   -523.0102546 -0.393584E-08  0.252E-05    0.93     230.3  T
     SCC iter.                  ...        0 min,  2.716 sec
     gradient                   ...        0 min,  0.846 sec
 * total energy  :  -516.0282886 Eh     change       -0.8995935E-02 Eh
   gradient norm :     0.0292622 Eh/α   predicted    -0.1065420E-01 (  18.43%)
   displ. norm   :     0.8420065 α      lambda       -0.1146372E-01
   maximum displ.:     0.3772946 α      in ANC's #47, #24, #64, ...

........................................................................
.............................. CYCLE   25 ..............................
........................................................................
   1   -523.0284273 -0.523028E+03  0.663E-03    0.93       0.0  T
   2   -523.0284027  0.245898E-04  0.734E-03    0.93       1.0  T
   3   -523.0284586 -0.558926E-04  0.234E-03    0.93       2.5  T
   4   -523.0284568  0.178781E-05  0.229E-03    0.93       2.5  T
   5   -523.0284596 -0.276777E-05  0.775E-04    0.93       7.5  T
   6   -523.0284602 -0.630484E-06  0.259E-04    0.93      22.4  T
   7   -523.0284603 -0.681657E-07  0.620E-05    0.93      93.4  T
   8   -523.0284603 -0.185571E-08  0.241E-05    0.93     240.2  T
     SCC iter.                  ...        0 min,  2.722 sec
     gradient                   ...        0 min,  0.843 sec
 * total energy  :  -516.0365144 Eh     change       -0.8225838E-02 Eh
   gradient norm :     0.0251307 Eh/α   predicted    -0.9795610E-02 (  19.08%)
   displ. norm   :     0.8160936 α      lambda       -0.1115148E-01
   maximum displ.:     0.3726170 α      in ANC's #24, #47, #64, ...

........................................................................
.............................. CYCLE   26 ..............................
........................................................................
   1   -523.0477918 -0.523048E+03  0.676E-03    0.93       0.0  T
   2   -523.0477729  0.188753E-04  0.718E-03    0.93       1.0  T
   3   -523.0478213 -0.483718E-04  0.266E-03    0.93       2.2  T
   4   -523.0478193  0.196383E-05  0.242E-03    0.93       2.4  T
   5   -523.0478228 -0.348662E-05  0.761E-04    0.93       7.6  T
   6   -523.0478234 -0.610841E-06  0.288E-04    0.93      20.1  T
   7   -523.0478235 -0.826103E-07  0.612E-05    0.93      94.6  T
   8   -523.0478235 -0.173804E-08  0.257E-05    0.93     225.7  T
     SCC iter.                  ...        0 min,  2.719 sec
     gradient                   ...        0 min,  0.840 sec
 * total energy  :  -516.0443815 Eh     change       -0.7867047E-02 Eh
   gradient norm :     0.0209191 Eh/α   predicted    -0.9289249E-02 (  18.08%)
   displ. norm   :     0.8389992 α      lambda       -0.9379762E-02
   maximum displ.:     0.4122809 α      in ANC's #24, #47, #64, ...

........................................................................
.............................. CYCLE   27 ..............................
........................................................................
   1   -523.0714452 -0.523071E+03  0.533E-03    0.93       0.0  T
   2   -523.0714269  0.183372E-04  0.610E-03    0.93       1.0  T
   3   -523.0714680 -0.411398E-04  0.184E-03    0.93       3.2  T
   4   -523.0714669  0.115797E-05  0.175E-03    0.93       3.3  T
   5   -523.0714684 -0.153067E-05  0.631E-04    0.93       9.2  T
   6   -523.0714688 -0.350912E-06  0.214E-04    0.93      27.1  T
   7   -523.0714688 -0.452563E-07  0.529E-05    0.93     109.6  T
   8   -523.0714688 -0.145587E-08  0.198E-05    0.93     292.7  T
     SCC iter.                  ...        0 min,  2.714 sec
     gradient                   ...        0 min,  0.835 sec
 * total energy  :  -516.0523558 Eh     change       -0.7974369E-02 Eh
   gradient norm :     0.0170117 Eh/α   predicted    -0.7991187E-02 (   0.21%)
   displ. norm   :     0.8836353 α      lambda       -0.8767661E-02
   maximum displ.:     0.4602695 α      in ANC's #24, #47, #28, ...

........................................................................
.............................. CYCLE   28 ..............................
........................................................................
   1   -523.0961617 -0.523096E+03  0.554E-03    0.93       0.0  T
   2   -523.0961443  0.173856E-04  0.632E-03    0.93       1.0  T
   3   -523.0961865 -0.422311E-04  0.188E-03    0.93       3.1  T
   4   -523.0961851  0.143737E-05  0.180E-03    0.93       3.2  T
   5   -523.0961870 -0.186035E-05  0.686E-04    0.93       8.4  T
   6   -523.0961873 -0.348621E-06  0.242E-04    0.93      23.9  T
   7   -523.0961874 -0.620079E-07  0.545E-05    0.93     106.3  T
   8   -523.0961874 -0.147850E-08  0.215E-05    0.93     269.0  T
     SCC iter.                  ...        0 min,  2.711 sec
     gradient                   ...        0 min,  0.840 sec
 * total energy  :  -516.0597589 Eh     change       -0.7403075E-02 Eh
   gradient norm :     0.0156746 Eh/α   predicted    -0.7806781E-02 (   5.45%)
   displ. norm   :     0.8937106 α      lambda       -0.7910175E-02
   maximum displ.:     0.4844995 α      in ANC's #24, #47, #28, ...

........................................................................
.............................. CYCLE   29 ..............................
........................................................................
   1   -523.1204289 -0.523120E+03  0.523E-03    0.92       0.0  T
   2   -523.1204148  0.140646E-04  0.573E-03    0.93       1.0  T
   3   -523.1204513 -0.364246E-04  0.177E-03    0.92       3.3  T
   4   -523.1204507  0.574177E-06  0.160E-03    0.92       3.6  T
   5   -523.1204519 -0.120642E-05  0.645E-04    0.92       9.0  T
   6   -523.1204523 -0.403377E-06  0.232E-04    0.92      25.0  T
   7   -523.1204524 -0.526231E-07  0.479E-05    0.92     121.0  T
   8   -523.1204524 -0.729074E-09  0.200E-05    0.92     290.1  T
     SCC iter.                  ...        0 min,  2.713 sec
     gradient                   ...        0 min,  0.836 sec
 * total energy  :  -516.0670354 Eh     change       -0.7276449E-02 Eh
   gradient norm :     0.0125148 Eh/α   predicted    -0.7114103E-02 (  -2.23%)
   displ. norm   :     0.9205102 α      lambda       -0.7590426E-02
   maximum displ.:     0.5176041 α      in ANC's #24, #47, #28, ...

........................................................................
.............................. CYCLE   30 ..............................
........................................................................
   1   -523.1414714 -0.523141E+03  0.487E-03    0.92       0.0  T
   2   -523.1414617  0.968273E-05  0.524E-03    0.92       1.1  T
   3   -523.1414909 -0.291997E-04  0.166E-03    0.92       3.5  T
   4   -523.1414905  0.417318E-06  0.143E-03    0.92       4.1  T
   5   -523.1414915 -0.107606E-05  0.574E-04    0.92      10.1  T
   6   -523.1414918 -0.273710E-06  0.242E-04    0.92      24.0  T
   7   -523.1414919 -0.596450E-07  0.461E-05    0.92     125.6  T
   8   -523.1414919 -0.718160E-09  0.195E-05    0.92     297.1  T
     SCC iter.                  ...        0 min,  2.724 sec
     gradient                   ...        0 min,  0.838 sec
 * total energy  :  -516.0732845 Eh     change       -0.6249135E-02 Eh
   gradient norm :     0.0171166 Eh/α   predicted    -0.7011045E-02 (  12.19%)
   displ. norm   :     0.8673377 α      lambda       -0.7898248E-02
   maximum displ.:     0.4982678 α      in ANC's #24, #47, #28, ...

........................................................................
.............................. CYCLE   31 ..............................
........................................................................
   1   -523.1620459 -0.523162E+03  0.480E-03    0.92       0.0  T
   2   -523.1620432  0.278065E-05  0.396E-03    0.92       1.5  T
   3   -523.1620546 -0.114193E-04  0.213E-03    0.92       2.7  T
   4   -523.1620566 -0.199461E-05  0.114E-03    0.92       5.1  T
   5   -523.1620569 -0.279050E-06  0.461E-04    0.92      12.6  T
   6   -523.1620571 -0.205353E-06  0.221E-04    0.92      26.2  T
   7   -523.1620571 -0.637417E-07  0.480E-05    0.92     120.8  T
   8   -523.1620571 -0.105229E-08  0.173E-05    0.92     334.3  T
     SCC iter.                  ...        0 min,  2.713 sec
     gradient                   ...        0 min,  0.840 sec
 * total energy  :  -516.0798537 Eh     change       -0.6569180E-02 Eh
   gradient norm :     0.0137414 Eh/α   predicted    -0.6919956E-02 (   5.34%)
   displ. norm   :     0.9034004 α      lambda       -0.6597434E-02
   maximum displ.:     0.5332493 α      in ANC's #24, #47, #28, ...

........................................................................
.............................. CYCLE   32 ..............................
........................................................................
   1   -523.1779150 -0.523178E+03  0.419E-03    0.92       0.0  T
   2   -523.1779126  0.235932E-05  0.374E-03    0.92       1.6  T
   3   -523.1779250 -0.123815E-04  0.143E-03    0.92       4.0  T
   4   -523.1779258 -0.783533E-06  0.978E-04    0.92       5.9  T
   5   -523.1779260 -0.235107E-06  0.392E-04    0.92      14.8  T
   6   -523.1779262 -0.114047E-06  0.192E-04    0.92      30.2  T
   7   -523.1779262 -0.507929E-07  0.474E-05    0.92     122.3  T
     SCC iter.                  ...        0 min,  2.377 sec
     gradient                   ...        0 min,  0.843 sec
 * total energy  :  -516.0860608 Eh     change       -0.6207154E-02 Eh
   gradient norm :     0.0093910 Eh/α   predicted    -0.5990904E-02 (  -3.48%)
   displ. norm   :     0.9270759 α      lambda       -0.6208082E-02
   maximum displ.:     0.5662605 α      in ANC's #24, #47, #28, ...

........................................................................
.............................. CYCLE   33 ..............................
........................................................................
   1   -523.1958005 -0.523196E+03  0.383E-03    0.92       0.0  T
   2   -523.1957993  0.121820E-05  0.322E-03    0.92       1.8  T
   3   -523.1958076 -0.829223E-05  0.140E-03    0.92       4.2  T
   4   -523.1958085 -0.908838E-06  0.866E-04    0.92       6.7  T
   5   -523.1958087 -0.179413E-06  0.219E-04    0.92      26.5  T
   6   -523.1958087 -0.196947E-07  0.824E-05    0.92      70.3  T
   7   -523.1958087 -0.439638E-08  0.422E-05    0.92     137.2  T
     SCC iter.                  ...        0 min,  2.386 sec
     gradient                   ...        0 min,  0.844 sec
 * total energy  :  -516.0919970 Eh     change       -0.5936154E-02 Eh
   gradient norm :     0.0079410 Eh/α   predicted    -0.5771879E-02 (  -2.77%)
   displ. norm   :     0.9325405 α      lambda       -0.5879655E-02
   maximum displ.:     0.5791333 α      in ANC's #24, #47, #28, ...

........................................................................
.............................. CYCLE   34 ..............................
........................................................................
   1   -523.2113765 -0.523211E+03  0.366E-03    0.91       0.0  T
   2   -523.2113749  0.162212E-05  0.318E-03    0.91       1.8  T
   3   -523.2113838 -0.890233E-05  0.134E-03    0.91       4.3  T
   4   -523.2113846 -0.815661E-06  0.858E-04    0.91       6.7  T
   5   -523.2113848 -0.139332E-06  0.320E-04    0.91      18.1  T
   6   -523.2113848 -0.697225E-07  0.171E-04    0.91      33.8  T
   7   -523.2113849 -0.431312E-07  0.384E-05    0.91     151.0  T
     SCC iter.                  ...        0 min,  2.378 sec
     gradient                   ...        0 min,  0.841 sec
 * total energy  :  -516.0975980 Eh     change       -0.5600978E-02 Eh
   gradient norm :     0.0073615 Eh/α   predicted    -0.5496401E-02 (  -1.87%)
   displ. norm   :     0.9300032 α      lambda       -0.5558994E-02
   maximum displ.:     0.5884084 α      in ANC's #24, #47, #28, ...

........................................................................
.............................. CYCLE   35 ..............................
........................................................................
   1   -523.2266611 -0.523227E+03  0.350E-03    0.91       0.0  T
   2   -523.2266582  0.289784E-05  0.323E-03    0.91       1.8  T
   3   -523.2266686 -0.104632E-04  0.130E-03    0.91       4.5  T
   4   -523.2266694 -0.770055E-06  0.820E-04    0.91       7.1  T
   5   -523.2266695 -0.106653E-06  0.345E-04    0.91      16.8  T
   6   -523.2266696 -0.101537E-06  0.166E-04    0.91      34.9  T
   7   -523.2266696 -0.378808E-07  0.346E-05    0.91     167.4  T
     SCC iter.                  ...        0 min,  2.387 sec
     gradient                   ...        0 min,  0.856 sec
 * total energy  :  -516.1029042 Eh     change       -0.5306193E-02 Eh
   gradient norm :     0.0070603 Eh/α   predicted    -0.5183505E-02 (  -2.31%)
   displ. norm   :     0.9267570 α      lambda       -0.5169345E-02
   maximum displ.:     0.5976484 α      in ANC's #24, #47, #28, ...

........................................................................
.............................. CYCLE   36 ..............................
........................................................................
   1   -523.2432338 -0.523243E+03  0.343E-03    0.91       0.0  T
   2   -523.2432306  0.320666E-05  0.318E-03    0.91       1.8  T
   3   -523.2432411 -0.105063E-04  0.132E-03    0.91       4.4  T
   4   -523.2432420 -0.847474E-06  0.790E-04    0.91       7.3  T
   5   -523.2432421 -0.909270E-07  0.338E-04    0.91      17.1  T
   6   -523.2432422 -0.100030E-06  0.154E-04    0.91      37.6  T
   7   -523.2432422 -0.309817E-07  0.317E-05    0.91     182.6  T
     SCC iter.                  ...        0 min,  2.381 sec
     gradient                   ...        0 min,  0.853 sec
 * total energy  :  -516.1078858 Eh     change       -0.4981649E-02 Eh
   gradient norm :     0.0066778 Eh/α   predicted    -0.4804582E-02 (  -3.55%)
   displ. norm   :     0.9235629 α      lambda       -0.4840650E-02
   maximum displ.:     0.5972922 α      in ANC's #24, #28, #47, ...

........................................................................
.............................. CYCLE   37 ..............................
........................................................................
   1   -523.2552064 -0.523255E+03  0.363E-03    0.91       0.0  T
   2   -523.2552036  0.281852E-05  0.326E-03    0.91       1.8  T
   3   -523.2552141 -0.105516E-04  0.145E-03    0.91       4.0  T
   4   -523.2552152 -0.104076E-05  0.830E-04    0.91       7.0  T
   5   -523.2552152 -0.539875E-07  0.380E-04    0.91      15.2  T
   6   -523.2552154 -0.122619E-06  0.168E-04    0.91      34.4  T
   7   -523.2552154 -0.388386E-07  0.376E-05    0.91     154.1  T
     SCC iter.                  ...        0 min,  2.385 sec
     gradient                   ...        0 min,  0.852 sec
 * total energy  :  -516.1125416 Eh     change       -0.4655801E-02 Eh
   gradient norm :     0.0062388 Eh/α   predicted    -0.4484793E-02 (  -3.67%)
   displ. norm   :     0.9127517 α      lambda       -0.4536397E-02
   maximum displ.:     0.6114312 α      in ANC's #24, #28, #47, ...

........................................................................
.............................. CYCLE   38 ..............................
........................................................................
   1   -523.2747414 -0.523275E+03  0.379E-03    0.91       0.0  T
   2   -523.2747372  0.415970E-05  0.327E-03    0.91       1.8  T
   3   -523.2747460 -0.879663E-05  0.182E-03    0.91       3.2  T
   4   -523.2747481 -0.208864E-05  0.861E-04    0.91       6.7  T
   5   -523.2747482 -0.112176E-06  0.289E-04    0.91      20.0  T
   6   -523.2747483 -0.788807E-07  0.132E-04    0.91      43.8  T
   7   -523.2747483 -0.212344E-07  0.293E-05    0.91     197.6  T
     SCC iter.                  ...        0 min,  2.376 sec
     gradient                   ...        0 min,  0.844 sec
 * total energy  :  -516.1168633 Eh     change       -0.4321732E-02 Eh
   gradient norm :     0.0072786 Eh/α   predicted    -0.4157880E-02 (  -3.79%)
   displ. norm   :     0.9143521 α      lambda       -0.4281955E-02
   maximum displ.:     0.6005798 α      in ANC's #24, #28, #47, ...

........................................................................
.............................. CYCLE   39 ..............................
........................................................................
   1   -523.2825084 -0.523283E+03  0.421E-03    0.90       0.0  T
   2   -523.2825067  0.175565E-05  0.335E-03    0.91       1.7  T
   3   -523.2825142 -0.752800E-05  0.191E-03    0.91       3.0  T
   4   -523.2825162 -0.201600E-05  0.994E-04    0.90       5.8  T
   5   -523.2825163 -0.113840E-06  0.407E-04    0.91      14.2  T
   6   -523.2825165 -0.157611E-06  0.172E-04    0.90      33.7  T
   7   -523.2825165 -0.411557E-07  0.433E-05    0.90     133.9  T
     SCC iter.                  ...        0 min,  2.382 sec
     gradient                   ...        0 min,  0.843 sec
 * total energy  :  -516.1209201 Eh     change       -0.4056716E-02 Eh
   gradient norm :     0.0054800 Eh/α   predicted    -0.3930927E-02 (  -3.10%)
   displ. norm   :     0.9015283 α      lambda       -0.3928956E-02
   maximum displ.:     0.6140399 α      in ANC's #24, #28, #47, ...

........................................................................
.............................. CYCLE   40 ..............................
........................................................................
   1   -523.2977545 -0.523298E+03  0.293E-03    0.90       0.0  T
   2   -523.2977518  0.269424E-05  0.260E-03    0.90       2.2  T
   3   -523.2977584 -0.661530E-05  0.127E-03    0.90       4.6  T
   4   -523.2977594 -0.101560E-05  0.653E-04    0.90       8.9  T
   5   -523.2977595 -0.543151E-07  0.252E-04    0.90      23.0  T
   6   -523.2977595 -0.524071E-07  0.114E-04    0.90      50.8  T
   7   -523.2977596 -0.160628E-07  0.265E-05    0.90     218.3  T
     SCC iter.                  ...        0 min,  2.388 sec
     gradient                   ...        0 min,  0.841 sec
 * total energy  :  -516.1246860 Eh     change       -0.3765987E-02 Eh
   gradient norm :     0.0046910 Eh/α   predicted    -0.3561118E-02 (  -5.44%)
   displ. norm   :     0.8832243 α      lambda       -0.3578858E-02
   maximum displ.:     0.6033072 α      in ANC's #24, #28, #47, ...

........................................................................
.............................. CYCLE   41 ..............................
........................................................................
   1   -523.3103879 -0.523310E+03  0.269E-03    0.90       0.0  T
   2   -523.3103862  0.171226E-05  0.233E-03    0.90       2.5  T
   3   -523.3103913 -0.509826E-05  0.108E-03    0.90       5.4  T
   4   -523.3103920 -0.741229E-06  0.598E-04    0.90       9.7  T
   5   -523.3103921 -0.644438E-07  0.244E-04    0.90      23.7  T
   6   -523.3103921 -0.452271E-07  0.112E-04    0.90      51.7  T
   7   -523.3103921 -0.165282E-07  0.257E-05    0.90     225.1  T
     SCC iter.                  ...        0 min,  2.375 sec
     gradient                   ...        0 min,  0.839 sec
 * total energy  :  -516.1281264 Eh     change       -0.3440399E-02 Eh
   gradient norm :     0.0045109 Eh/α   predicted    -0.3185340E-02 (  -7.41%)
   displ. norm   :     0.8722839 α      lambda       -0.3309762E-02
   maximum displ.:     0.5997264 α      in ANC's #24, #28, #47, ...

........................................................................
.............................. CYCLE   42 ..............................
........................................................................
   1   -523.3216629 -0.523322E+03  0.278E-03    0.90       0.0  T
   2   -523.3216619  0.101382E-05  0.221E-03    0.90       2.6  T
   3   -523.3216654 -0.349997E-05  0.123E-03    0.90       4.7  T
   4   -523.3216664 -0.959447E-06  0.645E-04    0.90       9.0  T
   5   -523.3216664 -0.746936E-07  0.246E-04    0.90      23.5  T
   6   -523.3216665 -0.523285E-07  0.113E-04    0.90      51.4  T
   7   -523.3216665 -0.171963E-07  0.258E-05    0.90     224.9  T
     SCC iter.                  ...        0 min,  2.374 sec
     gradient                   ...        0 min,  0.845 sec
 * total energy  :  -516.1312988 Eh     change       -0.3172402E-02 Eh
   gradient norm :     0.0047891 Eh/α   predicted    -0.2914049E-02 (  -8.14%)
   displ. norm   :     0.8614684 α      lambda       -0.3095752E-02
   maximum displ.:     0.5969110 α      in ANC's #24, #28, #47, ...
 * RMSD in coord.:     1.0631283 α      energy gain  -0.1419545E+00 Eh

generating ANC from model Hessian ...
Using Lindh-Hessian (1995)
 Shifting diagonal of input Hessian by    1.0029161122166719E-002
 Lowest  eigenvalues of input Hessian
    0.010000    0.010005    0.010011    0.010016    0.010017    0.010019
    0.010020    0.010020    0.010023    0.000000    0.000000    0.000000
    0.000000    0.000000    0.000000    0.010033    0.010036    0.010069
 Highest eigenvalues
    2.268542    2.285406    2.287213    2.762544    2.785993    2.788374


........................................................................
.............................. CYCLE   43 ..............................
........................................................................
   1   -523.3336441 -0.523334E+03  0.355E-03    0.90       0.0  T
   2   -523.3336434  0.689465E-06  0.251E-03    0.90       2.3  T
   3   -523.3336444 -0.100244E-05  0.185E-03    0.90       3.1  T
   4   -523.3336469 -0.247571E-05  0.800E-04    0.90       7.2  T
   5   -523.3336471 -0.221338E-06  0.247E-04    0.90      23.4  T
   6   -523.3336472 -0.623025E-07  0.111E-04    0.90      52.0  T
   7   -523.3336472 -0.162664E-07  0.270E-05    0.90     214.3  T
     SCC iter.                  ...        0 min,  2.380 sec
     gradient                   ...        0 min,  0.841 sec
 * total energy  :  -516.1342072 Eh     change       -0.2908385E-02 Eh
   gradient norm :     0.0065915 Eh/α   predicted     0.0000000E+00 (-100.00%)
   displ. norm   :     0.3030112 α      lambda       -0.1114686E-02
   maximum displ.:     0.2566477 α      in ANC's #24, #28, #33, ...

........................................................................
.............................. CYCLE   44 ..............................
........................................................................
   1   -523.3365521 -0.523337E+03  0.161E-03    0.90       0.0  T
   2   -523.3365521 -0.779600E-07  0.994E-04    0.90       5.8  T
   3   -523.3365521  0.978072E-07  0.677E-04    0.90       8.6  T
   4   -523.3365522 -0.168465E-06  0.223E-04    0.90      26.0  T
   5   -523.3365523 -0.528233E-07  0.701E-05    0.90      82.6  T
   6   -523.3365523 -0.565115E-08  0.184E-05    0.90     315.5  T
     SCC iter.                  ...        0 min,  2.041 sec
     gradient                   ...        0 min,  0.845 sec
 * total energy  :  -516.1352580 Eh     change       -0.1050771E-02 Eh
   gradient norm :     0.0042337 Eh/α   predicted    -0.6093100E-03 ( -42.01%)
   displ. norm   :     0.5267302 α      lambda       -0.1880728E-02
   maximum displ.:     0.3893706 α      in ANC's #24, #28, #33, ...

........................................................................
.............................. CYCLE   45 ..............................
........................................................................
   1   -523.3411469 -0.523341E+03  0.312E-03    0.90       0.0  T
   2   -523.3411472 -0.356426E-06  0.193E-03    0.90       3.0  T
   3   -523.3411470  0.253125E-06  0.130E-03    0.90       4.4  T
   4   -523.3411474 -0.477924E-06  0.485E-04    0.90      11.9  T
   5   -523.3411477 -0.265310E-06  0.144E-04    0.90      40.1  T
   6   -523.3411477 -0.248707E-07  0.405E-05    0.90     143.0  T
     SCC iter.                  ...        0 min,  2.044 sec
     gradient                   ...        0 min,  0.843 sec
 * total energy  :  -516.1368025 Eh     change       -0.1544463E-02 Eh
   gradient norm :     0.0091223 Eh/α   predicted    -0.1201276E-02 ( -22.22%)
   displ. norm   :     0.6231835 α      lambda       -0.2125153E-02
   maximum displ.:     0.4492822 α      in ANC's #24, #28, #33, ...

........................................................................
.............................. CYCLE   46 ..............................
........................................................................
   1   -523.3482636 -0.523348E+03  0.168E-03    0.90       0.0  T
   2   -523.3482639 -0.324274E-06  0.994E-04    0.90       5.8  T
   3   -523.3482642 -0.208731E-06  0.677E-04    0.90       8.6  T
   4   -523.3482642 -0.616342E-07  0.373E-04    0.90      15.5  T
   5   -523.3482643 -0.105502E-06  0.147E-04    0.90      39.4  T
   6   -523.3482643 -0.264478E-07  0.397E-05    0.90     145.9  T
     SCC iter.                  ...        0 min,  2.037 sec
     gradient                   ...        0 min,  0.842 sec
 * total energy  :  -516.1387841 Eh     change       -0.1981656E-02 Eh
   gradient norm :     0.0096057 Eh/α   predicted    -0.1475242E-02 ( -25.56%)
   displ. norm   :     0.7266831 α      lambda       -0.2463835E-02
   maximum displ.:     0.5159013 α      in ANC's #24, #28, #33, ...

........................................................................
.............................. CYCLE   47 ..............................
........................................................................
   1   -523.3565969 -0.523357E+03  0.224E-03    0.89       0.0  T
   2   -523.3565972 -0.388939E-06  0.139E-03    0.89       4.2  T
   3   -523.3565976 -0.366948E-06  0.920E-04    0.89       6.3  T
   4   -523.3565978 -0.194640E-06  0.553E-04    0.89      10.5  T
   5   -523.3565981 -0.273207E-06  0.170E-04    0.89      34.1  T
   6   -523.3565981 -0.314525E-07  0.601E-05    0.89      96.3  T
     SCC iter.                  ...        0 min,  2.046 sec
     gradient                   ...        0 min,  0.848 sec
 * total energy  :  -516.1408462 Eh     change       -0.2062098E-02 Eh
   gradient norm :     0.0079117 Eh/α   predicted    -0.1882454E-02 (  -8.71%)
   displ. norm   :     0.7456743 α      lambda       -0.2542124E-02
   maximum displ.:     0.5288045 α      in ANC's #24, #28, #33, ...

........................................................................
.............................. CYCLE   48 ..............................
........................................................................
   1   -523.3657385 -0.523366E+03  0.295E-03    0.89       0.0  T
   2   -523.3657385  0.526654E-07  0.195E-03    0.89       3.0  T
   3   -523.3657374  0.106382E-05  0.157E-03    0.89       3.7  T
   4   -523.3657394 -0.197268E-05  0.618E-04    0.89       9.4  T
   5   -523.3657397 -0.298247E-06  0.183E-04    0.89      31.7  T
   6   -523.3657397 -0.410853E-07  0.553E-05    0.89     104.7  T
     SCC iter.                  ...        0 min,  2.057 sec
     gradient                   ...        0 min,  0.859 sec
 * total energy  :  -516.1428386 Eh     change       -0.1992407E-02 Eh
   gradient norm :     0.0085937 Eh/α   predicted    -0.1977815E-02 (  -0.73%)
   displ. norm   :     0.7296601 α      lambda       -0.2353054E-02
   maximum displ.:     0.5198712 α      in ANC's #24, #28, #33, ...

........................................................................
.............................. CYCLE   49 ..............................
........................................................................
   1   -523.3759376 -0.523376E+03  0.227E-03    0.89       0.0  T
   2   -523.3759377 -0.802434E-07  0.140E-03    0.89       4.2  T
   3   -523.3759374  0.296968E-06  0.117E-03    0.89       5.0  T
   4   -523.3759383 -0.876232E-06  0.537E-04    0.89      10.8  T
   5   -523.3759385 -0.235525E-06  0.132E-04    0.89      43.9  T
   6   -523.3759385 -0.148797E-07  0.396E-05    0.89     146.1  T
     SCC iter.                  ...        0 min,  2.049 sec
     gradient                   ...        0 min,  0.856 sec
 * total energy  :  -516.1448597 Eh     change       -0.2021086E-02 Eh
   gradient norm :     0.0074312 Eh/α   predicted    -0.1802916E-02 ( -10.79%)
   displ. norm   :     0.7563389 α      lambda       -0.2269044E-02
   maximum displ.:     0.5379087 α      in ANC's #24, #28, #33, ...

........................................................................
.............................. CYCLE   50 ..............................
........................................................................
   1   -523.3825243 -0.523383E+03  0.175E-03    0.89       0.0  T
   2   -523.3825239  0.412108E-06  0.142E-03    0.89       4.1  T
   3   -523.3825256 -0.170702E-05  0.682E-04    0.89       8.5  T
   4   -523.3825259 -0.322340E-06  0.367E-04    0.89      15.8  T
   5   -523.3825259 -0.580816E-07  0.136E-04    0.89      42.6  T
   6   -523.3825260 -0.126504E-07  0.468E-05    0.89     123.8  T
     SCC iter.                  ...        0 min,  2.043 sec
     gradient                   ...        0 min,  0.853 sec
 * total energy  :  -516.1465167 Eh     change       -0.1656989E-02 Eh
   gradient norm :     0.0089720 Eh/α   predicted    -0.1783528E-02 (   7.64%)
   displ. norm   :     0.6876524 α      lambda       -0.2227155E-02
   maximum displ.:     0.4912306 α      in ANC's #24, #28, #33, ...

........................................................................
.............................. CYCLE   51 ..............................
........................................................................
   1   -523.3887380 -0.523389E+03  0.206E-03    0.89       0.0  T
   2   -523.3887373  0.660422E-06  0.156E-03    0.89       3.7  T
   3   -523.3887385 -0.117614E-05  0.105E-03    0.89       5.5  T
   4   -523.3887394 -0.884057E-06  0.450E-04    0.89      12.9  T
   5   -523.3887395 -0.561562E-07  0.142E-04    0.89      40.9  T
   6   -523.3887395 -0.209707E-07  0.490E-05    0.89     118.2  T
     SCC iter.                  ...        0 min,  2.037 sec
     gradient                   ...        0 min,  0.846 sec
 * total energy  :  -516.1483834 Eh     change       -0.1866660E-02 Eh
   gradient norm :     0.0051516 Eh/α   predicted    -0.1640153E-02 ( -12.13%)
   displ. norm   :     0.7386885 α      lambda       -0.1830442E-02
   maximum displ.:     0.5345282 α      in ANC's #24, #28, #33, ...

........................................................................
.............................. CYCLE   52 ..............................
........................................................................
   1   -523.3950031 -0.523395E+03  0.161E-03    0.89       0.0  T
   2   -523.3950022  0.911854E-06  0.142E-03    0.89       4.1  T
   3   -523.3950045 -0.224796E-05  0.668E-04    0.89       8.7  T
   4   -523.3950048 -0.328748E-06  0.332E-04    0.89      17.4  T
   5   -523.3950048 -0.142650E-07  0.114E-04    0.89      51.0  T
   6   -523.3950048 -0.122541E-07  0.377E-05    0.89     153.8  T
     SCC iter.                  ...        0 min,  2.039 sec
     gradient                   ...        0 min,  0.844 sec
 * total energy  :  -516.1500689 Eh     change       -0.1685545E-02 Eh
   gradient norm :     0.0043750 Eh/α   predicted    -0.1414622E-02 ( -16.07%)
   displ. norm   :     0.7290511 α      lambda       -0.1651828E-02
   maximum displ.:     0.5284384 α      in ANC's #24, #28, #33, ...

........................................................................
.............................. CYCLE   53 ..............................
........................................................................
   1   -523.4014438 -0.523401E+03  0.151E-03    0.89       0.0  T
   2   -523.4014428  0.986557E-06  0.136E-03    0.89       4.3  T
   3   -523.4014451 -0.225934E-05  0.617E-04    0.89       9.4  T
   4   -523.4014454 -0.297529E-06  0.296E-04    0.89      19.6  T
   5   -523.4014454 -0.336468E-08  0.104E-04    0.89      55.6  T
   6   -523.4014454 -0.105429E-07  0.345E-05    0.89     167.9  T
     SCC iter.                  ...        0 min,  2.046 sec
     gradient                   ...        0 min,  0.844 sec
 * total energy  :  -516.1516264 Eh     change       -0.1557528E-02 Eh
   gradient norm :     0.0039216 Eh/α   predicted    -0.1264900E-02 ( -18.79%)
   displ. norm   :     0.7227559 α      lambda       -0.1554624E-02
   maximum displ.:     0.5254281 α      in ANC's #24, #28, #33, ...

........................................................................
.............................. CYCLE   54 ..............................
........................................................................
   1   -523.4075160 -0.523408E+03  0.150E-03    0.89       0.0  T
   2   -523.4075151  0.874187E-06  0.130E-03    0.89       4.5  T
   3   -523.4075172 -0.208886E-05  0.624E-04    0.89       9.3  T
   4   -523.4075176 -0.337513E-06  0.282E-04    0.89      20.5  T
   5   -523.4075176 -0.222030E-09  0.112E-04    0.89      51.9  T
   6   -523.4075176 -0.110426E-07  0.451E-05    0.89     128.4  T
     SCC iter.                  ...        0 min,  2.036 sec
     gradient                   ...        0 min,  0.840 sec
 * total energy  :  -516.1530922 Eh     change       -0.1465735E-02 Eh
   gradient norm :     0.0034828 Eh/α   predicted    -0.1183362E-02 ( -19.26%)
   displ. norm   :     0.7179672 α      lambda       -0.1431244E-02
   maximum displ.:     0.5254281 α      in ANC's #24, #28, #33, ...

[...]
    25   6 C       57   1 H                                       1.0845320
    26   6 C       58   1 H                                       1.0818318
    29   6 C       59   1 H                                       1.0916906
    29   6 C       60   1 H                                       1.0969353
    29   6 C       61   1 H                                       1.0969087
    31   6 C       62   1 H                                       1.0785014
    32   6 C       63   1 H                                       1.0791156
    39   6 C       64   1 H                                       1.0915984
    39   6 C       65   1 H                                       1.0968669
    39   6 C       66   1 H                                       1.0967685
    40   6 C       67   1 H                                       1.0818623
    41   6 C       68   1 H                                       1.0845299
    42   6 C       69   1 H                                       1.0818790
    45   6 C       70   1 H                                       1.0968613
    45   6 C       71   1 H                                       1.0917013
    45   6 C       72   1 H                                       1.0969669
    74   6 C       75   6 C                                       1.3900801
    75   6 C       76   6 C                                       1.4368920
    76   6 C       77   6 C                                       1.3564916
    77   6 C       78   6 C                                       1.4385599
    75   6 C       79   7 N                                       1.3649235
    78   6 C       79   7 N                                       1.3643925
    78   6 C       80   6 C                                       1.3984736
    80   6 C       81   6 C                                       1.3973235
    81   6 C       82   6 C                                       1.4365628
    82   6 C       83   6 C                                       1.3573456
    81   6 C       84   7 N                                       1.3693910
    83   6 C       85   6 C                                       1.4342475
    84   7 N       85   6 C                                       1.3596015
    85   6 C       86   6 C                                       1.4093096
    86   6 C       87   6 C                                       1.4092572
    87   6 C       88   6 C                                       1.4342343
    88   6 C       89   6 C                                       1.3573805
    89   6 C       90   6 C                                       1.4365523
    90   6 C       91   6 C                                       1.3972088
    92   6 C       93   6 C                                       1.4010966
    93   6 C       94   8 O                                       1.3599091
    94   8 O       95   6 C                                       1.4128529
    93   6 C       96   6 C                                       1.3945330
    96   6 C       97   6 C                                       1.3867022
    97   6 C       98   6 C                                       1.3867030
    92   6 C       99   6 C                                       1.4008511
    98   6 C       99   6 C                                       1.3945934
    99   6 C      100   8 O                                       1.3602437
   100   8 O      101   6 C                                       1.4127342
    91   6 C      102   6 C                                       1.3983906
   102   6 C      103   6 C                                       1.4385223
   103   6 C      104   6 C                                       1.3565313
    74   6 C      105   6 C                                       1.3900960
   104   6 C      105   6 C                                       1.4368962
   102   6 C      106   7 N                                       1.3643482
   105   6 C      106   7 N                                       1.3648986
    87   6 C      107   7 N                                       1.3595641
    90   6 C      107   7 N                                       1.3694451
   108   6 C      109   6 C                                       1.4012557
   109   6 C      110   8 O                                       1.3598225
   110   8 O      111   6 C                                       1.4128183
   109   6 C      112   6 C                                       1.3944719
   112   6 C      113   6 C                                       1.3867155
   113   6 C      114   6 C                                       1.3866727
   108   6 C      115   6 C                                       1.4007925
   114   6 C      115   6 C                                       1.3946254
   115   6 C      116   8 O                                       1.3600501
   116   8 O      117   6 C                                       1.4128831
    74   6 C      118   1 H                                       1.0858482
    76   6 C      119   1 H                                       1.0791222
    77   6 C      120   1 H                                       1.0784370
    82   6 C      121   1 H                                       1.0783032
    83   6 C      122   1 H                                       1.0786321
    88   6 C      123   1 H                                       1.0786365
    89   6 C      124   1 H                                       1.0783091
    95   6 C      125   1 H                                       1.0969292
    95   6 C      126   1 H                                       1.0916946
    95   6 C      127   1 H                                       1.0968320
    96   6 C      128   1 H                                       1.0818302
    97   6 C      129   1 H                                       1.0845365
    98   6 C      130   1 H                                       1.0818348
   101   6 C      131   1 H                                       1.0917029
   101   6 C      132   1 H                                       1.0969436
   101   6 C      133   1 H                                       1.0969169
   103   6 C      134   1 H                                       1.0784773
   104   6 C      135   1 H                                       1.0791231
   111   6 C      136   1 H                                       1.0916210
   111   6 C      137   1 H                                       1.0969133
   111   6 C      138   1 H                                       1.0967984
   112   6 C      139   1 H                                       1.0818721
   113   6 C      140   1 H                                       1.0845293
   114   6 C      141   1 H                                       1.0818618
   117   6 C      142   1 H                                       1.0968796
   117   6 C      143   1 H                                       1.0916966
   117   6 C      144   1 H                                       1.0969524
   145   6 C      146   6 C                                       1.2218573
   147   6 C      148   6 C                                       1.2219396
   149   6 C      150   6 C                                       1.2226577
   151   6 C      152   6 C                                       1.2226663
   153   6 C      154   6 C                                       1.2222152
   155   6 C      156   6 C                                       1.2220944
   158   6 C      159   6 C                                       1.4091065
   159   6 C      160   6 C                                       1.4337825
   160   6 C      161   6 C                                       1.3576541
   161   6 C      162   6 C                                       1.4357919
   159   6 C      163   7 N                                       1.3596611
   162   6 C      163   7 N                                       1.3692002
   162   6 C      164   6 C                                       1.3975079
   164   6 C      165   6 C                                       1.3973211
   165   6 C      166   6 C                                       1.4356991
   166   6 C      167   6 C                                       1.3577577
   165   6 C      168   7 N                                       1.3694170
   167   6 C      169   6 C                                       1.4335536
   168   7 N      169   6 C                                       1.3591329
   169   6 C      170   6 C                                       1.4099813
   170   6 C      171   6 C                                       1.4099465
   171   6 C      172   6 C                                       1.4335692
   172   6 C      173   6 C                                       1.3577839
   173   6 C      174   6 C                                       1.4356577
   174   6 C      175   6 C                                       1.3972104
   176   6 C      177   6 C                                       1.4008452
   177   6 C      178   8 O                                       1.3599264
   178   8 O      179   6 C                                       1.4128605
   177   6 C      180   6 C                                       1.3945957
   180   6 C      181   6 C                                       1.3867203
   181   6 C      182   6 C                                       1.3867046
   176   6 C      183   6 C                                       1.4010392
   182   6 C      183   6 C                                       1.3945520
   183   6 C      184   8 O                                       1.3597933
   184   8 O      185   6 C                                       1.4129270
   175   6 C      186   6 C                                       1.3974117
   186   6 C      187   6 C                                       1.4357738
   187   6 C      188   6 C                                       1.3576317
   158   6 C      189   6 C                                       1.4091745
   188   6 C      189   6 C                                       1.4337970
   186   6 C      190   7 N                                       1.3691384
   189   6 C      190   7 N                                       1.3596439
   171   6 C      191   7 N                                       1.3591111
   174   6 C      191   7 N                                       1.3694140
   192   6 C      193   6 C                                       1.4011342
   193   6 C      194   8 O                                       1.3597817
   194   8 O      195   6 C                                       1.4129216
   193   6 C      196   6 C                                       1.3945307
   196   6 C      197   6 C                                       1.3867011
   197   6 C      198   6 C                                       1.3867080
   192   6 C      199   6 C                                       1.4008788
   198   6 C      199   6 C                                       1.3946139
   199   6 C      200   8 O                                       1.3599216
   200   8 O      201   6 C                                       1.4128894
   160   6 C      202   1 H                                       1.0786101
   161   6 C      203   1 H                                       1.0782546
   166   6 C      204   1 H                                       1.0782604
   167   6 C      205   1 H                                       1.0786110
   172   6 C      206   1 H                                       1.0786119
   173   6 C      207   1 H                                       1.0782744
   179   6 C      208   1 H                                       1.0968620
   179   6 C      209   1 H                                       1.0916409
   179   6 C      210   1 H                                       1.0969061
   180   6 C      211   1 H                                       1.0818292
   181   6 C      212   1 H                                       1.0845408
   182   6 C      213   1 H                                       1.0818287
   185   6 C      214   1 H                                       1.0916451
   185   6 C      215   1 H                                       1.0968963
   185   6 C      216   1 H                                       1.0968431
   187   6 C      217   1 H                                       1.0782580
   188   6 C      218   1 H                                       1.0785942
   195   6 C      219   1 H                                       1.0968882
   195   6 C      220   1 H                                       1.0916398
   195   6 C      221   1 H                                       1.0968454
   196   6 C      222   1 H                                       1.0818388
   197   6 C      223   1 H                                       1.0845428
   198   6 C      224   1 H                                       1.0818335
   201   6 C      225   1 H                                       1.0969125
   201   6 C      226   1 H                                       1.0968734
   201   6 C      227   1 H                                       1.0916494
   229   6 C      230   6 C                                       1.4100192
   230   6 C      231   6 C                                       1.4335624
   231   6 C      232   6 C                                       1.3577815
   232   6 C      233   6 C                                       1.4356468
   230   6 C      234   7 N                                       1.3590917
   233   6 C      234   7 N                                       1.3694644
   233   6 C      235   6 C                                       1.3972414
   235   6 C      236   6 C                                       1.3974675
   236   6 C      237   6 C                                       1.4356868
   237   6 C      238   6 C                                       1.3577503
   236   6 C      239   7 N                                       1.3691945
   238   6 C      240   6 C                                       1.4336742
   239   7 N      240   6 C                                       1.3595395
   240   6 C      241   6 C                                       1.4094313
   241   6 C      242   6 C                                       1.4095483
   242   6 C      243   6 C                                       1.4336790
   243   6 C      244   6 C                                       1.3577448
   244   6 C      245   6 C                                       1.4356763
   245   6 C      246   6 C                                       1.3975635
   247   6 C      248   6 C                                       1.4009031
   248   6 C      249   8 O                                       1.3598794
   249   8 O      250   6 C                                       1.4129259
   248   6 C      251   6 C                                       1.3946282
   251   6 C      252   6 C                                       1.3866781
   252   6 C      253   6 C                                       1.3867118
   247   6 C      254   6 C                                       1.4011613
   253   6 C      254   6 C                                       1.3944952
   254   6 C      255   8 O                                       1.3598319
   255   8 O      256   6 C                                       1.4128763
   246   6 C      257   6 C                                       1.3972495
   257   6 C      258   6 C                                       1.4356506
   258   6 C      259   6 C                                       1.3577932
   229   6 C      260   6 C                                       1.4099933
   259   6 C      260   6 C                                       1.4335425
   257   6 C      261   7 N                                       1.3695359
   260   6 C      261   7 N                                       1.3590843
   242   6 C      262   7 N                                       1.3595682
   245   6 C      262   7 N                                       1.3691834
   263   6 C      264   6 C                                       1.4009502
   264   6 C      265   8 O                                       1.3598420
   265   8 O      266   6 C                                       1.4129247
   264   6 C      267   6 C                                       1.3945946
   267   6 C      268   6 C                                       1.3866934
   268   6 C      269   6 C                                       1.3867223
   263   6 C      270   6 C                                       1.4010232
   269   6 C      270   6 C                                       1.3945190
   270   6 C      271   8 O                                       1.3598157
   271   8 O      272   6 C                                       1.4128915
   231   6 C      273   1 H                                       1.0786102
   232   6 C      274   1 H                                       1.0782617
   237   6 C      275   1 H                                       1.0782742
   238   6 C      276   1 H                                       1.0786103
   243   6 C      277   1 H                                       1.0786008
   244   6 C      278   1 H                                       1.0782825
   250   6 C      279   1 H                                       1.0968436
   250   6 C      280   1 H                                       1.0916366
   250   6 C      281   1 H                                       1.0969042
   251   6 C      282   1 H                                       1.0818227
   252   6 C      283   1 H                                       1.0845347
   253   6 C      284   1 H                                       1.0818265
   256   6 C      285   1 H                                       1.0916506
   256   6 C      286   1 H                                       1.0968947
   256   6 C      287   1 H                                       1.0968328
   258   6 C      288   1 H                                       1.0782441 (min)
   259   6 C      289   1 H                                       1.0786171
   266   6 C      290   1 H                                       1.0969097
   266   6 C      291   1 H                                       1.0916481
   266   6 C      292   1 H                                       1.0968471
   267   6 C      293   1 H                                       1.0818308
   268   6 C      294   1 H                                       1.0845294
   269   6 C      295   1 H                                       1.0818245
   272   6 C      296   1 H                                       1.0968917
   272   6 C      297   1 H                                       1.0968515
   272   6 C      298   1 H                                       1.0916362

 * 4 distinct bonds (by element types)

   Z      Z             #   av. dist./Å        max./Å        min./Å
   1 H    6 C         106     1.0871442     1.0969669     1.0782441
   6 C    6 C         134     1.3935995     1.4385939     1.2218573
   6 C    7 N          32     1.3644538     1.3695359     1.3590843
   6 C    8 O          32     1.3863950     1.4129270     1.3597817


optimized geometry written to: xtbopt.xyz


           -------------------------------------------------
          | TOTAL ENERGY             -516.171325988193 Eh   |
          | GRADIENT NORM               0.000530469691 Eh/α |
          | HOMO-LUMO GAP               0.865429139550 eV   |
           -------------------------------------------------

------------------------------------------------------------------------
 * finished run on 2022/07/30 at 15:11:53.670     
------------------------------------------------------------------------
 total:
 * wall-time:     0 d,  0 h,  7 min, 17.355 sec
 *  cpu-time:     0 d,  0 h,  7 min, 15.216 sec
 * ratio c/w:     0.995 speedup
 SCF:
 * wall-time:     0 d,  0 h,  0 min, 12.804 sec
 *  cpu-time:     0 d,  0 h,  0 min, 12.738 sec
 * ratio c/w:     0.995 speedup
 ANC optimizer:
 * wall-time:     0 d,  0 h,  7 min,  4.213 sec
 *  cpu-time:     0 d,  0 h,  7 min,  2.146 sec
 * ratio c/w:     0.995 speedup

