      -----------------------------------------------------------      
     |                   =====================                   |     
     |                           x T B                           |     
     |                   =====================                   |     
     |                         S. Grimme                         |     
     |          Mulliken Center for Theoretical Chemistry        |     
     |                    University of Bonn                     |     
      -----------------------------------------------------------      

   * xtb version 6.5.1 (b24c23e) compiled by 'conda@728c89f4b128' on 2022-07-12

   xtb is free software: you can redistribute it and/or modify it under
   the terms of the GNU Lesser General Public License as published by
   the Free Software Foundation, either version 3 of the License, or
   (at your option) any later version.
   
   xtb is distributed in the hope that it will be useful,
   but WITHOUT ANY WARRANTY; without even the implied warranty of
   MERCHANTABILITY or FITNESS FOR A PARTICULAR PURPOSE.  See the
   GNU Lesser General Public License for more details.
   
   Cite this work as:
   * C. Bannwarth, E. Caldeweyher, S. Ehlert, A. Hansen, P. Pracht,
     J. Seibert, S. Spicher, S. Grimme, WIREs Comput. Mol. Sci., 2020, 11,
     e01493. DOI: 10.1002/wcms.1493
   
   for GFN2-xTB:
   * C. Bannwarth, S. Ehlert and S. Grimme., J. Chem. Theory Comput., 2019,
     15, 1652-1671. DOI: 10.1021/acs.jctc.8b01176
   for GFN1-xTB:
   * S. Grimme, C. Bannwarth, P. Shushkov, J. Chem. Theory Comput., 2017,
     13, 1989-2009. DOI: 10.1021/acs.jctc.7b00118
   for GFN0-xTB:
   * P. Pracht, E. Caldeweyher, S. Ehlert, S. Grimme, ChemRxiv, 2019, preprint.
     DOI: 10.26434/chemrxiv.8326202.v1
   for GFN-FF:
   * S. Spicher and S. Grimme, Angew. Chem. Int. Ed., 2020, 59, 15665-15673.
     DOI: 10.1002/anie.202004239
   
   for ALPB and GBSA implicit solvation:
   * S. Ehlert, M. Stahn, S. Spicher, S. Grimme, J. Chem. Theory Comput.,
     2021, 17, 4250-4261. DOI: 10.1021/acs.jctc.1c00471
   
   for DFT-D4:
   * E. Caldeweyher, C. Bannwarth and S. Grimme, J. Chem. Phys., 2017,
     147, 034112. DOI: 10.1063/1.4993215
   * E. Caldeweyher, S. Ehlert, A. Hansen, H. Neugebauer, S. Spicher,
     C. Bannwarth and S. Grimme, J. Chem. Phys., 2019, 150, 154122.
     DOI: 10.1063/1.5090222
   * E. Caldeweyher, J.-M. Mewes, S. Ehlert and S. Grimme, Phys. Chem. Chem. Phys.
     2020, 22, 8499-8512. DOI: 10.1039/D0CP00502A
   
   for sTDA-xTB:
   * S. Grimme and C. Bannwarth, J. Chem. Phys., 2016, 145, 054103.
     DOI: 10.1063/1.4959605
   
   in the mass-spec context:
   * V. Asgeirsson, C. Bauer and S. Grimme, Chem. Sci., 2017, 8, 4879.
     DOI: 10.1039/c7sc00601b
   * J. Koopman and S. Grimme, ACS Omega 2019, 4, 12, 15120-15133.
     DOI: 10.1021/acsomega.9b02011
   
   for metadynamics refer to:
   * S. Grimme, J. Chem. Theory Comput., 2019, 155, 2847-2862
     DOI: 10.1021/acs.jctc.9b00143
   
   for SPH calculations refer to:
   * S. Spicher and S. Grimme, J. Chem. Theory Comput., 2021, 17, 1701-1714
     DOI: 10.1021/acs.jctc.0c01306
   
   with help from (in alphabetical order)
   P. Atkinson, C. Bannwarth, F. Bohle, G. Brandenburg, E. Caldeweyher
   M. Checinski, S. Dohm, S. Ehlert, S. Ehrlich, I. Gerasimov, C. Hölzer
   A. Katbashev, J. Koopman, C. Lavigne, S. Lehtola, F. März, M. Müller,
   F. Musil, H. Neugebauer, J. Pisarek, C. Plett, P. Pracht, F. Pultar,
   J. Seibert, P. Shushkov, S. Spicher, M. Stahn, M. Steiner, T. Strunk,
   J. Stückrath, T. Rose, and J. Unsleber
   
 * started run on 2022/07/30 at 15:11:53.682     

           -------------------------------------------------
          |                Calculation Setup                |
           -------------------------------------------------

          program call               : xtb xtbopt.xyz --gfn 1 --vipea
          hostname                   : cx3-15-13.cx3.hpc.ic.ac.uk
          coordinate file            : xtbopt.xyz
          omp threads                :                     1

   ID    Z sym.   atoms
    1   30 Zn     1, 73, 157, 228
    2    6 C      2-6, 8-11, 13-21, 23-27, 29-33, 36, 37, 39-43, 45, 74-78,
                  80-83, 85-93, 95-99, 101-105, 108, 109, 111-115, 117,
                  145-156, 158-162, 164-167, 169-177, 179-183, 185-189, 192,
                  193, 195-199, 201, 229-233, 235-238, 240-248, 250-254,
                  256-260, 263, 264, 266-270, 272
    3    7 N      7, 12, 34, 35, 79, 84, 106, 107, 163, 168, 190, 191, 234,
                  239, 261, 262
    4    8 O      22, 28, 38, 44, 94, 100, 110, 116, 178, 184, 194, 200, 249,
                  255, 265, 271
    5    1 H      46-72, 118-144, 202-227, 273-298

           -------------------------------------------------
          |                 I P E A - x T B                 |
           -------------------------------------------------

        Reference                      10.1039/c7sc00601b
      * Hamiltonian:
        H0-scaling (s, p, d)           2.150000    2.300000    2.000000
        zeta-weighting                 0.000000
      * Dispersion:
        s8                             2.400000
        a1                             0.630000
        a2                             5.000000
        s9                             0.000000
      * Repulsion:
        kExp                           1.500000
        rExp                           1.000000
      * Coulomb:
        alpha                          1.000000
        third order                    atomic
        anisotropic                    false
      * Halogen bond correction:
        rad-scale                      1.300000
        damping                        0.440000


          ...................................................
          :                      SETUP                      :
          :.................................................:
          :  # basis functions                1168          :
          :  # atomic orbitals                1168          :
          :  # shells                          784          :
          :  # electrons                       914          :
          :  # halogen bonds                     0          :
          :  max. iterations                   250          :
          :  Hamiltonian                  GFN1-xTB          :
          :  restarted?                      false          :
          :  GBSA solvation                  false          :
          :  PC potential                    false          :
          :  electronic temp.          300.0000000     K    :
          :  accuracy                    1.0000000          :
          :  -> integral cutoff          0.2500000E+02      :
          :  -> integral neglect         0.1000000E-07      :
          :  -> SCF convergence          0.1000000E-05 Eh   :
          :  -> wf. convergence          0.2000000E-04 e    :
          :  Broyden damping             0.4000000          :
          ...................................................

 iter      E             dE          RMSdq      gap      omega  full diag
   1   -582.1693756 -0.582169E+03  0.973E+00    1.31       0.0  T
   2   -583.4794391 -0.131006E+01  0.622E+00    1.39       1.0  T
   3   -579.1367642  0.434267E+01  0.438E+00    1.04       1.0  T
   4   -584.9495908 -0.581283E+01  0.138E+00    1.38       1.0  T
   5   -586.2387678 -0.128918E+01  0.334E-01    1.16       1.0  T
   6   -586.3104323 -0.716644E-01  0.968E-02    1.21       1.0  T
   7   -586.3129614 -0.252915E-02  0.559E-02    1.20       1.0  T
   8   -586.3142582 -0.129678E-02  0.256E-02    1.21       1.0  T
   9   -586.3143093 -0.511168E-04  0.116E-02    1.21       1.0  T
  10   -586.3143937 -0.844122E-04  0.354E-03    1.21       1.6  T
  11   -586.3143990 -0.528532E-05  0.201E-03    1.21       2.9  T
  12   -586.3144017 -0.272783E-05  0.552E-04    1.21      10.5  T
  13   -586.3144019 -0.141112E-06  0.277E-04    1.21      20.9  T
  14   -586.3144019 -0.428186E-07  0.683E-05    1.21      84.8  T
  15   -586.3144019 -0.190403E-08  0.292E-05    1.21     198.1  T

   *** convergence criteria satisfied after 15 iterations ***

         #    Occupation            Energy/Eh            Energy/eV
      -------------------------------------------------------------
         1        2.0000           -1.0498645             -28.5683
       ...           ...                  ...                  ...
       451        2.0000           -0.3858727             -10.5001
       452        2.0000           -0.3845236             -10.4634
       453        2.0000           -0.3845064             -10.4630
       454        2.0000           -0.3842368             -10.4556
       455        2.0000           -0.3777406             -10.2788
       456        2.0000           -0.3713849             -10.1059
       457        2.0000           -0.3639093              -9.9025 (HOMO)
       458                         -0.3195230              -8.6947 (LUMO)
       459                         -0.3100328              -8.4364
       460                         -0.3022065              -8.2235
       461                         -0.3007576              -8.1840
       462                         -0.3007179              -8.1830
       ...                                ...                  ...
      1168                        531.7031108           14468.3781
      -------------------------------------------------------------
                  HL-Gap            0.0443863 Eh            1.2078 eV
             Fermi-level           -0.3417161 Eh           -9.2986 eV

 SCC (total)                   0 d,  0 h,  0 min, 10.824 sec
 SCC setup                      ...        0 min,  0.010 sec (  0.093%)
 Dispersion                     ...        0 min,  0.014 sec (  0.133%)
 classical contributions        ...        0 min,  0.005 sec (  0.043%)
 integral evaluation            ...        0 min,  0.891 sec (  8.230%)
 iterations                     ...        0 min,  7.873 sec ( 72.742%)
 molecular gradient             ...        0 min,  1.924 sec ( 17.774%)
 printout                       ...        0 min,  0.107 sec (  0.985%)

         :::::::::::::::::::::::::::::::::::::::::::::::::::::
         ::                     SUMMARY                     ::
         :::::::::::::::::::::::::::::::::::::::::::::::::::::
         :: total energy            -576.000909519711 Eh    ::
         :: gradient norm              0.073584824816 Eh/a0 ::
         :: HOMO-LUMO gap              1.207811498204 eV    ::
         ::.................................................::
         :: SCC energy              -586.314401914380 Eh    ::
         :: -> electrostatic           0.453928227655 Eh    ::
         :: repulsion energy          10.577814495909 Eh    ::
         :: dispersion energy         -0.264322101239 Eh    ::
         :: halogen bond corr.         0.000000000000 Eh    ::
         :: add. restraining           0.000000000000 Eh    ::
         :: total charge               0.000000000000 e     ::
         :::::::::::::::::::::::::::::::::::::::::::::::::::::

           ------------------------------------------------- 
          |        vertical delta SCC IP calculation        |
           ------------------------------------------------- 
   1   -585.9176177 -0.585918E+03  0.802E-02    1.21       0.0  T
   2   -585.9136310  0.398669E-02  0.948E-02    1.13       1.0  T
   3   -585.9215625 -0.793151E-02  0.563E-02    1.18       1.0  T
   4   -585.9229384 -0.137590E-02  0.476E-02    1.18       1.0  T
   5   -585.9259808 -0.304240E-02  0.228E-02    1.19       1.0  T
   6   -585.9262624 -0.281590E-03  0.121E-02    1.18       1.0  T
   7   -585.9263545 -0.921208E-04  0.605E-03    1.18       1.0  T
   8   -585.9263925 -0.380054E-04  0.193E-03    1.18       3.0  T
   9   -585.9263951 -0.258343E-05  0.110E-03    1.18       5.3  T
  10   -585.9263955 -0.447140E-06  0.726E-04    1.18       8.0  T
  11   -585.9263958 -0.269716E-06  0.227E-04    1.18      25.5  T
  12   -585.9263959 -0.492067E-07  0.825E-05    1.18      70.2  T
  13   -585.9263959 -0.299679E-08  0.381E-05    1.18     152.2  T
     SCC iter.                  ...        0 min,  6.818 sec
     gradient                   ...        0 min,  1.954 sec
------------------------------------------------------------------------
empirical IP shift (eV):    4.8455
delta SCC IP (eV):    5.7127
------------------------------------------------------------------------
           ------------------------------------------------- 
          |        vertical delta SCC EA calculation        |
           ------------------------------------------------- 
   1   -586.5809513 -0.586581E+03  0.141E-01    0.32       0.0  T
   2   -586.5916283 -0.106770E-01  0.132E-01    0.09       1.0  T
   3   -586.6051327 -0.135044E-01  0.737E-02    0.20       1.0  T
   4   -586.6057118 -0.579065E-03  0.577E-02    0.16       1.0  T
   5   -586.6033292  0.238259E-02  0.568E-02    0.17       1.0  T
   6   -586.6067344 -0.340520E-02  0.347E-02    0.16       1.0  T
   7   -586.6085724 -0.183796E-02  0.102E-02    0.16       1.0  T
   8   -586.6086392 -0.668585E-04  0.431E-03    0.15       1.3  T
   9   -586.6086481 -0.892222E-05  0.296E-03    0.15       2.0  T
  10   -586.6086526 -0.441264E-05  0.847E-04    0.15       6.8  T
  11   -586.6086529 -0.359165E-06  0.503E-04    0.15      11.5  T
  12   -586.6086531 -0.139261E-06  0.176E-04    0.15      32.9  T
  13   -586.6086531 -0.138838E-07  0.878E-05    0.15      66.0  T
     SCC iter.                  ...        0 min,  6.848 sec
     gradient                   ...        0 min,  1.924 sec
------------------------------------------------------------------------
empirical EA shift (eV):    4.8455
delta SCC EA (eV):    3.1615
------------------------------------------------------------------------
           -------------------------------------------------
          |                Property Printout                |
           -------------------------------------------------

    * Orbital Energies and Occupations

         #    Occupation            Energy/Eh            Energy/eV
      -------------------------------------------------------------
         1        2.0000           -1.0153700             -27.6296
       ...           ...                  ...                  ...
       446        2.0000           -0.3600795              -9.7983
       447        2.0000           -0.3597880              -9.7903
       448        2.0000           -0.3597428              -9.7891
       449        2.0000           -0.3587171              -9.7612
       450        2.0000           -0.3431581              -9.3378
       451        2.0000           -0.3423704              -9.3164
       452        2.0000           -0.3377377              -9.1903
       453        2.0000           -0.3351124              -9.1189
       454        2.0000           -0.3347132              -9.1080
       455        2.0000           -0.3337395              -9.0815
       456        2.0000           -0.3249764              -8.8431
       457        2.0000           -0.3141794              -8.5493
       458        0.9500           -0.2699250              -7.3450 (HOMO)
       459        0.0497           -0.2643253              -7.1927 (LUMO)
       460        0.0002           -0.2590596              -7.0494
       461        0.0001           -0.2583115              -7.0290
       462        0.0000           -0.2567626              -6.9869
       463                         -0.2511119              -6.8331
       464                         -0.2507452              -6.8231
       465                         -0.2468942              -6.7183
       466                         -0.2197966              -5.9810
       467                         -0.2183201              -5.9408
       468                         -0.2170597              -5.9065
       469                         -0.2141337              -5.8269
       ...                                ...                  ...
      1168                        531.7512849           14469.6890
      -------------------------------------------------------------
                  HL-Gap            0.0055996 Eh            0.1524 eV
             Fermi-level           -0.2795910 Eh           -7.6081 eV

  Mulliken/CM5 charges         n(s)   n(p)   n(d)
     1Zn    0.36555  0.69168   0.764  0.871  0.000
     2C    -0.02682 -0.06790   1.089  2.938  0.000
     3C     0.05690  0.11875   1.120  2.823  0.000
     4C    -0.03943 -0.08536   1.091  2.949  0.000
     5C    -0.03442 -0.07927   1.086  2.949  0.000
     6C     0.05993  0.12629   1.115  2.825  0.000
     7N    -0.23654 -0.48059   1.348  3.888  0.000
     8C     0.01585  0.02454   1.096  2.888  0.000
     9C     0.05928  0.12479   1.113  2.827  0.000
    10C    -0.03421 -0.07908   1.084  2.951  0.000
    11C    -0.03623 -0.08130   1.089  2.947  0.000
    12N    -0.23367 -0.47700   1.349  3.884  0.000
    13C     0.06241  0.12900   1.125  2.813  0.000
    14C     0.01507  0.02200   1.087  2.898  0.000
    15C     0.06237  0.12897   1.125  2.813  0.000
    16C    -0.03627 -0.08134   1.089  2.947  0.000
    17C    -0.03429 -0.07916   1.084  2.951  0.000
    18C     0.05927  0.12477   1.113  2.827  0.000
    19C     0.01590  0.02459   1.096  2.889  0.000
    20C    -0.00751 -0.00506   1.070  2.938  0.000
    21C     0.09576  0.11478   1.106  2.798  0.000
    22O    -0.23020 -0.32003   1.612  4.619  0.000
    23C     0.03490 -0.08582   1.108  2.857  0.000
    24C    -0.04664 -0.09870   1.048  2.999  0.000
    25C    -0.03323 -0.08875   1.089  2.945  0.000
    26C    -0.04695 -0.09902   1.048  2.999  0.000
    27C     0.09545  0.11450   1.106  2.799  0.000
    28O    -0.23058 -0.32033   1.612  4.619  0.000
    29C     0.03465 -0.08606   1.109  2.857  0.000
    30C     0.05995  0.12631   1.115  2.825  0.000
    31C    -0.03450 -0.07936   1.086  2.949  0.000
    32C    -0.03946 -0.08539   1.091  2.949  0.000
    33C     0.05690  0.11876   1.120  2.823  0.000
    34N    -0.23650 -0.48061   1.348  3.888  0.000
    35N    -0.23371 -0.47699   1.349  3.884  0.000
    36C    -0.00756 -0.00511   1.070  2.938  0.000
    37C     0.09573  0.11475   1.106  2.798  0.000
    38O    -0.23021 -0.32012   1.612  4.619  0.000
    39C     0.03491 -0.08584   1.108  2.857  0.000
    40C    -0.04666 -0.09872   1.048  2.999  0.000
    41C    -0.03321 -0.08873   1.089  2.945  0.000
    42C    -0.04695 -0.09901   1.048  2.999  0.000
    43C     0.09549  0.11453   1.106  2.799  0.000
    44O    -0.23053 -0.32042   1.612  4.619  0.000
    45C     0.03469 -0.08603   1.109  2.857  0.000
    46H     0.02330  0.08209   0.977  0.000  0.000
    47H     0.02880  0.08525   0.971  0.000  0.000
    48H     0.02413  0.08400   0.976  0.000  0.000
    49H     0.02539  0.08534   0.975  0.000  0.000
    50H     0.02732  0.08526   0.973  0.000  0.000
    51H     0.02726  0.08518   0.973  0.000  0.000
    52H     0.02539  0.08529   0.975  0.000  0.000
    53H     0.03256  0.09138   0.967  0.000  0.000
    54H     0.04512  0.10540   0.955  0.000  0.000
    55H     0.03543  0.09434   0.965  0.000  0.000
    56H     0.03167  0.09119   0.968  0.000  0.000
    57H     0.02864  0.08463   0.971  0.000  0.000
    58H     0.03125  0.09078   0.969  0.000  0.000
    59H     0.04443  0.10471   0.956  0.000  0.000
    60H     0.03337  0.09224   0.967  0.000  0.000
    61H     0.03406  0.09291   0.966  0.000  0.000
    62H     0.02413  0.08387   0.976  0.000  0.000
    63H     0.02876  0.08521   0.971  0.000  0.000
    64H     0.04504  0.10535   0.955  0.000  0.000
    65H     0.03246  0.09128   0.968  0.000  0.000
    66H     0.03545  0.09439   0.965  0.000  0.000
    67H     0.03164  0.09116   0.968  0.000  0.000
    68H     0.02864  0.08464   0.971  0.000  0.000
    69H     0.03124  0.09076   0.969  0.000  0.000
    70H     0.03408  0.09293   0.966  0.000  0.000
    71H     0.04442  0.10470   0.956  0.000  0.000
    72H     0.03341  0.09227   0.967  0.000  0.000
    73Zn    0.36531  0.69140   0.764  0.871  0.000
    74C    -0.02709 -0.06816   1.088  2.939  0.000
    75C     0.05681  0.11866   1.120  2.823  0.000
    76C    -0.03955 -0.08548   1.091  2.949  0.000
    77C    -0.03448 -0.07934   1.086  2.949  0.000
    78C     0.05974  0.12608   1.115  2.825  0.000
    79N    -0.23675 -0.48075   1.348  3.888  0.000
    80C     0.01571  0.02439   1.096  2.889  0.000
    81C     0.05903  0.12454   1.113  2.828  0.000
    82C    -0.03436 -0.07923   1.083  2.951  0.000
    83C    -0.03641 -0.08148   1.089  2.948  0.000
    84N    -0.23375 -0.47713   1.350  3.884  0.000
    85C     0.06219  0.12880   1.125  2.813  0.000
    86C     0.01483  0.02176   1.087  2.899  0.000
    87C     0.06219  0.12880   1.125  2.813  0.000
    88C    -0.03645 -0.08152   1.089  2.948  0.000
    89C    -0.03441 -0.07928   1.084  2.951  0.000
    90C     0.05902  0.12451   1.113  2.828  0.000
    91C     0.01575  0.02444   1.096  2.889  0.000
    92C    -0.00753 -0.00508   1.070  2.937  0.000
    93C     0.09581  0.11485   1.106  2.798  0.000
    94O    -0.23014 -0.31997   1.612  4.618  0.000
    95C     0.03493 -0.08580   1.108  2.857  0.000
    96C    -0.04663 -0.09869   1.048  2.999  0.000
    97C    -0.03325 -0.08878   1.089  2.945  0.000
    98C    -0.04702 -0.09908   1.048  2.999  0.000
    99C     0.09538  0.11441   1.106  2.799  0.000
   100O    -0.23063 -0.32043   1.612  4.619  0.000
   101C     0.03468 -0.08603   1.109  2.857  0.000
   102C     0.05976  0.12610   1.115  2.825  0.000
   103C    -0.03455 -0.07941   1.086  2.949  0.000
   104C    -0.03958 -0.08552   1.091  2.949  0.000
   105C     0.05681  0.11867   1.120  2.823  0.000
   106N    -0.23669 -0.48076   1.348  3.888  0.000
   107N    -0.23381 -0.47712   1.350  3.884  0.000
   108C    -0.00758 -0.00512   1.070  2.937  0.000
   109C     0.09579  0.11484   1.106  2.798  0.000
   110O    -0.23016 -0.32001   1.612  4.618  0.000
   111C     0.03493 -0.08581   1.108  2.857  0.000
   112C    -0.04665 -0.09871   1.048  2.999  0.000
   113C    -0.03324 -0.08876   1.089  2.945  0.000
   114C    -0.04701 -0.09908   1.048  2.999  0.000
   115C     0.09541  0.11442   1.106  2.799  0.000
   116O    -0.23059 -0.32052   1.612  4.619  0.000
   117C     0.03471 -0.08602   1.109  2.857  0.000
   118H     0.02304  0.08183   0.977  0.000  0.000
   119H     0.02860  0.08505   0.971  0.000  0.000
   120H     0.02398  0.08391   0.976  0.000  0.000
   121H     0.02533  0.08520   0.975  0.000  0.000
   122H     0.02750  0.08544   0.973  0.000  0.000
   123H     0.02742  0.08534   0.973  0.000  0.000
   124H     0.02532  0.08519   0.975  0.000  0.000
   125H     0.03243  0.09125   0.968  0.000  0.000
   126H     0.04505  0.10534   0.955  0.000  0.000
   127H     0.03557  0.09448   0.964  0.000  0.000
   128H     0.03168  0.09120   0.968  0.000  0.000
   129H     0.02855  0.08454   0.971  0.000  0.000
   130H     0.03107  0.09060   0.969  0.000  0.000
   131H     0.04427  0.10455   0.956  0.000  0.000
   132H     0.03331  0.09219   0.967  0.000  0.000
   133H     0.03386  0.09271   0.966  0.000  0.000
   134H     0.02396  0.08375   0.976  0.000  0.000
   135H     0.02856  0.08501   0.971  0.000  0.000
   136H     0.04497  0.10527   0.955  0.000  0.000
   137H     0.03232  0.09113   0.968  0.000  0.000
   138H     0.03558  0.09452   0.964  0.000  0.000
   139H     0.03165  0.09117   0.968  0.000  0.000
   140H     0.02856  0.08455   0.971  0.000  0.000
   141H     0.03106  0.09059   0.969  0.000  0.000
   142H     0.03386  0.09271   0.966  0.000  0.000
   143H     0.04425  0.10453   0.956  0.000  0.000
   144H     0.03337  0.09226   0.967  0.000  0.000
   145C    -0.02309 -0.02390   1.063  2.960  0.000
   146C    -0.02472 -0.02629   1.090  2.935  0.000
   147C    -0.02717 -0.02798   1.059  2.968  0.000
   148C    -0.02032 -0.02189   1.095  2.925  0.000
   149C    -0.02612 -0.02693   1.061  2.965  0.000
   150C    -0.02368 -0.02524   1.092  2.932  0.000
   151C    -0.02634 -0.02715   1.061  2.966  0.000
   152C    -0.02346 -0.02502   1.092  2.931  0.000
   153C    -0.02748 -0.02829   1.059  2.968  0.000
   154C    -0.02086 -0.02242   1.095  2.926  0.000
   155C    -0.02359 -0.02440   1.063  2.961  0.000
   156C    -0.02505 -0.02661   1.090  2.935  0.000
   157Zn    0.36592  0.69033   0.766  0.868  0.000
   158C     0.01030  0.01724   1.082  2.907  0.000
   159C     0.06172  0.12833   1.124  2.814  0.000
   160C    -0.03896 -0.08403   1.088  2.951  0.000
   161C    -0.03494 -0.07980   1.084  2.951  0.000
   162C     0.05723  0.12272   1.111  2.832  0.000
   163N    -0.23480 -0.47787   1.349  3.886  0.000
   164C     0.01763  0.02624   1.097  2.885  0.000
   165C     0.05729  0.12276   1.111  2.832  0.000
   166C    -0.03494 -0.07980   1.084  2.951  0.000
   167C    -0.03812 -0.08319   1.088  2.950  0.000
   168N    -0.23413 -0.47732   1.349  3.885  0.000
   169C     0.06188  0.12859   1.125  2.814  0.000
   170C     0.01216  0.01910   1.084  2.903  0.000
   171C     0.06187  0.12858   1.125  2.814  0.000
   172C    -0.03816 -0.08323   1.088  2.950  0.000
   173C    -0.03500 -0.07986   1.084  2.951  0.000
   174C     0.05730  0.12277   1.111  2.832  0.000
   175C     0.01767  0.02628   1.097  2.886  0.000
   176C    -0.00689 -0.00447   1.070  2.937  0.000
   177C     0.09587  0.11488   1.106  2.799  0.000
   178O    -0.22999 -0.31986   1.612  4.618  0.000
   179C     0.03506 -0.08567   1.108  2.857  0.000
   180C    -0.04697 -0.09904   1.048  2.999  0.000
   181C    -0.03350 -0.08902   1.088  2.945  0.000
   182C    -0.04683 -0.09889   1.048  2.999  0.000
   183C     0.09600  0.11505   1.106  2.798  0.000
   184O    -0.22986 -0.31968   1.612  4.618  0.000
   185C     0.03509 -0.08565   1.108  2.857  0.000
   186C     0.05724  0.12274   1.111  2.832  0.000
   187C    -0.03495 -0.07982   1.084  2.951  0.000
   188C    -0.03893 -0.08400   1.088  2.951  0.000
   189C     0.06177  0.12839   1.124  2.814  0.000
   190N    -0.23477 -0.47787   1.349  3.886  0.000
   191N    -0.23414 -0.47731   1.349  3.885  0.000
   192C    -0.00692 -0.00450   1.070  2.937  0.000
   193C     0.09601  0.11505   1.106  2.798  0.000
   194O    -0.22986 -0.31974   1.612  4.618  0.000
   195C     0.03511 -0.08562   1.108  2.857  0.000
   196C    -0.04683 -0.09889   1.048  2.999  0.000
   197C    -0.03350 -0.08902   1.088  2.945  0.000
   198C    -0.04699 -0.09905   1.048  2.999  0.000
   199C     0.09585  0.11486   1.106  2.798  0.000
   200O    -0.23001 -0.31990   1.612  4.618  0.000
   201C     0.03506 -0.08567   1.108  2.857  0.000
   202H     0.02380  0.08173   0.976  0.000  0.000
   203H     0.02310  0.08306   0.977  0.000  0.000
   204H     0.02355  0.08348   0.976  0.000  0.000
   205H     0.02539  0.08333   0.975  0.000  0.000
   206H     0.02537  0.08330   0.975  0.000  0.000
   207H     0.02356  0.08344   0.976  0.000  0.000
   208H     0.03368  0.09259   0.966  0.000  0.000
   209H     0.04442  0.10471   0.956  0.000  0.000
   210H     0.03276  0.09158   0.967  0.000  0.000
   211H     0.03049  0.09001   0.970  0.000  0.000
   212H     0.02756  0.08355   0.972  0.000  0.000
   213H     0.03079  0.09031   0.969  0.000  0.000
   214H     0.04472  0.10501   0.955  0.000  0.000
   215H     0.03247  0.09130   0.968  0.000  0.000
   216H     0.03442  0.09333   0.966  0.000  0.000
   217H     0.02311  0.08305   0.977  0.000  0.000
   218H     0.02383  0.08178   0.976  0.000  0.000
   219H     0.03241  0.09123   0.968  0.000  0.000
   220H     0.04470  0.10499   0.955  0.000  0.000
   221H     0.03444  0.09335   0.966  0.000  0.000
   222H     0.03078  0.09031   0.969  0.000  0.000
   223H     0.02756  0.08356   0.972  0.000  0.000
   224H     0.03048  0.09000   0.970  0.000  0.000
   225H     0.03274  0.09156   0.967  0.000  0.000
   226H     0.03369  0.09260   0.966  0.000  0.000
   227H     0.04441  0.10470   0.956  0.000  0.000
   228Zn    0.36588  0.69031   0.766  0.868  0.000
   229C     0.01186  0.01880   1.084  2.904  0.000
   230C     0.06186  0.12858   1.125  2.814  0.000
   231C    -0.03825 -0.08332   1.088  2.951  0.000
   232C    -0.03495 -0.07981   1.084  2.951  0.000
   233C     0.05714  0.12260   1.111  2.832  0.000
   234N    -0.23423 -0.47743   1.349  3.885  0.000
   235C     0.01765  0.02627   1.097  2.885  0.000
   236C     0.05702  0.12252   1.111  2.832  0.000
   237C    -0.03501 -0.07988   1.084  2.951  0.000
   238C    -0.03905 -0.08411   1.088  2.951  0.000
   239N    -0.23483 -0.47793   1.349  3.886  0.000
   240C     0.06163  0.12827   1.125  2.814  0.000
   241C     0.01023  0.01717   1.083  2.907  0.000
   242C     0.06168  0.12831   1.125  2.814  0.000
   243C    -0.03898 -0.08405   1.087  2.951  0.000
   244C    -0.03494 -0.07980   1.084  2.951  0.000
   245C     0.05703  0.12254   1.111  2.832  0.000
   246C     0.01765  0.02626   1.097  2.885  0.000
   247C    -0.00694 -0.00452   1.070  2.937  0.000
   248C     0.09593  0.11494   1.106  2.798  0.000
   249O    -0.22994 -0.31983   1.612  4.618  0.000
   250C     0.03512 -0.08562   1.108  2.857  0.000
   251C    -0.04688 -0.09895   1.048  2.999  0.000
   252C    -0.03348 -0.08901   1.088  2.945  0.000
   253C    -0.04694 -0.09900   1.048  2.999  0.000
   254C     0.09594  0.11499   1.106  2.798  0.000
   255O    -0.22994 -0.31978   1.612  4.618  0.000
   256C     0.03508 -0.08565   1.108  2.857  0.000
   257C     0.05712  0.12256   1.111  2.832  0.000
   258C    -0.03495 -0.07981   1.084  2.951  0.000
   259C    -0.03827 -0.08334   1.088  2.950  0.000
   260C     0.06185  0.12856   1.125  2.814  0.000
   261N    -0.23430 -0.47742   1.349  3.885  0.000
   262N    -0.23475 -0.47793   1.349  3.886  0.000
   263C    -0.00693 -0.00451   1.070  2.937  0.000
   264C     0.09589  0.11493   1.106  2.798  0.000
   265O    -0.22998 -0.31980   1.612  4.618  0.000
   266C     0.03506 -0.08567   1.108  2.857  0.000
   267C    -0.04696 -0.09903   1.048  2.999  0.000
   268C    -0.03349 -0.08902   1.088  2.945  0.000
   269C    -0.04687 -0.09893   1.048  2.999  0.000
   270C     0.09597  0.11501   1.106  2.798  0.000
   271O    -0.22989 -0.31977   1.612  4.618  0.000
   272C     0.03512 -0.08562   1.108  2.857  0.000
   273H     0.02523  0.08317   0.975  0.000  0.000
   274H     0.02346  0.08338   0.977  0.000  0.000
   275H     0.02318  0.08306   0.977  0.000  0.000
   276H     0.02416  0.08209   0.976  0.000  0.000
   277H     0.02420  0.08214   0.976  0.000  0.000
   278H     0.02315  0.08302   0.977  0.000  0.000
   279H     0.03440  0.09333   0.966  0.000  0.000
   280H     0.04459  0.10488   0.955  0.000  0.000
   281H     0.03231  0.09113   0.968  0.000  0.000
   282H     0.03065  0.09018   0.969  0.000  0.000
   283H     0.02754  0.08354   0.972  0.000  0.000
   284H     0.03058  0.09010   0.969  0.000  0.000
   285H     0.04437  0.10467   0.956  0.000  0.000
   286H     0.03260  0.09142   0.967  0.000  0.000
   287H     0.03391  0.09282   0.966  0.000  0.000
   288H     0.02350  0.08346   0.977  0.000  0.000
   289H     0.02521  0.08314   0.975  0.000  0.000
   290H     0.03265  0.09147   0.967  0.000  0.000
   291H     0.04438  0.10467   0.956  0.000  0.000
   292H     0.03389  0.09280   0.966  0.000  0.000
   293H     0.03054  0.09006   0.969  0.000  0.000
   294H     0.02753  0.08353   0.972  0.000  0.000
   295H     0.03068  0.09021   0.969  0.000  0.000
   296H     0.03231  0.09113   0.968  0.000  0.000
   297H     0.03438  0.09330   0.966  0.000  0.000
   298H     0.04460  0.10490   0.955  0.000  0.000

Wiberg/Mayer (AO) data.
largest (>0.10) Wiberg bond orders for each atom

 ---------------------------------------------------------------------------
     #   Z sym  total        # sym  WBO       # sym  WBO       # sym  WBO
 ---------------------------------------------------------------------------
     1  30 Zn   2.421 --    34 N    0.567     7 N    0.567    12 N    0.562
                            35 N    0.562
     2   6 C    3.810 --     3 C    1.388    33 C    1.388    46 H    0.998
     3   6 C    3.947 --     2 C    1.388     7 N    1.285     4 C    1.199
     4   6 C    3.851 --     5 C    1.645     3 C    1.199    47 H    0.995
     5   6 C    3.838 --     4 C    1.645     6 C    1.204    48 H    1.000
     6   6 C    3.926 --     8 C    1.369     7 N    1.279     5 C    1.204
     7   7 N    3.000 --     3 C    1.285     6 C    1.279     1 Zn   0.567
     8   6 C    3.835 --     6 C    1.369     9 C    1.369    36 C    1.037
     9   6 C    3.914 --     8 C    1.369    12 N    1.269    10 C    1.212
    10   6 C    3.829 --    11 C    1.628     9 C    1.212    49 H    0.999
    11   6 C    3.841 --    10 C    1.628    13 C    1.223    50 H    1.000
    12   7 N    3.010 --    13 C    1.310     9 C    1.269     1 Zn   0.562
    13   6 C    3.922 --    12 N    1.310    14 C    1.298    11 C    1.223
    14   6 C    3.830 --    15 C    1.299    13 C    1.298   146 C    1.217
    15   6 C    3.922 --    35 N    1.310    14 C    1.299    16 C    1.223
    16   6 C    3.842 --    17 C    1.628    15 C    1.223    51 H    1.000
    17   6 C    3.829 --    16 C    1.628    18 C    1.212    52 H    0.999
    18   6 C    3.914 --    19 C    1.370    35 N    1.269    17 C    1.212
    19   6 C    3.834 --    30 C    1.370    18 C    1.370    20 C    1.036
    20   6 C    3.868 --    27 C    1.379    21 C    1.379    19 C    1.036
    21   6 C    3.919 --    24 C    1.387    20 C    1.379    22 O    1.119
    22   8 O    2.194 --    21 C    1.119    23 C    0.983
    23   6 C    3.915 --    55 H    0.997    53 H    0.996    54 H    0.986
                            22 O    0.983
    24   6 C    3.830 --    25 C    1.439    21 C    1.387    56 H    0.989
    25   6 C    3.918 --    24 C    1.439    26 C    1.439    57 H    0.986
    26   6 C    3.830 --    25 C    1.439    27 C    1.387    58 H    0.989
    27   6 C    3.918 --    26 C    1.387    20 C    1.379    28 O    1.118
    28   8 O    2.193 --    27 C    1.118    29 C    0.984
    29   6 C    3.916 --    60 H    0.997    61 H    0.996    59 H    0.987
                            28 O    0.984
    30   6 C    3.926 --    19 C    1.370    34 N    1.279    31 C    1.204
    31   6 C    3.838 --    32 C    1.645    30 C    1.204    62 H    1.000
    32   6 C    3.851 --    31 C    1.645    33 C    1.199    63 H    0.995
    33   6 C    3.947 --     2 C    1.388    34 N    1.285    32 C    1.199
    34   7 N    3.000 --    33 C    1.285    30 C    1.279     1 Zn   0.567
    35   7 N    3.010 --    15 C    1.310    18 C    1.269     1 Zn   0.562
    36   6 C    3.868 --    43 C    1.379    37 C    1.378     8 C    1.037
    37   6 C    3.919 --    40 C    1.387    36 C    1.378    38 O    1.119
    38   8 O    2.194 --    37 C    1.119    39 C    0.983
    39   6 C    3.914 --    66 H    0.997    65 H    0.996    64 H    0.986
                            38 O    0.983
    40   6 C    3.830 --    41 C    1.439    37 C    1.387    67 H    0.989
    41   6 C    3.918 --    40 C    1.439    42 C    1.439    68 H    0.986
    42   6 C    3.830 --    41 C    1.439    43 C    1.387    69 H    0.989
    43   6 C    3.918 --    42 C    1.387    36 C    1.379    44 O    1.118
    44   8 O    2.193 --    43 C    1.118    45 C    0.983
    45   6 C    3.916 --    72 H    0.997    70 H    0.996    71 H    0.987
                            44 O    0.983
    46   1 H    1.033 --     2 C    0.998
    47   1 H    1.018 --     4 C    0.995
    48   1 H    1.031 --     5 C    1.000
    49   1 H    1.029 --    10 C    0.999
    50   1 H    1.027 --    11 C    1.000
    51   1 H    1.028 --    16 C    1.000
    52   1 H    1.029 --    17 C    0.999
    53   1 H    1.030 --    23 C    0.996
    54   1 H    1.043 --    23 C    0.986
    55   1 H    1.027 --    23 C    0.997
    56   1 H    1.021 --    24 C    0.989
    57   1 H    1.025 --    25 C    0.986
    58   1 H    1.021 --    26 C    0.989
    59   1 H    1.043 --    29 C    0.987
    60   1 H    1.028 --    29 C    0.997
    61   1 H    1.029 --    29 C    0.996
    62   1 H    1.030 --    31 C    1.000
    63   1 H    1.018 --    32 C    0.995
    64   1 H    1.043 --    39 C    0.986
    65   1 H    1.030 --    39 C    0.996
    66   1 H    1.027 --    39 C    0.997
    67   1 H    1.021 --    40 C    0.989
    68   1 H    1.025 --    41 C    0.986
    69   1 H    1.021 --    42 C    0.989
    70   1 H    1.029 --    45 C    0.996
    71   1 H    1.043 --    45 C    0.987
    72   1 H    1.028 --    45 C    0.997
    73  30 Zn   2.421 --   106 N    0.567    79 N    0.567    84 N    0.562
                           107 N    0.562
    74   6 C    3.809 --    75 C    1.388   105 C    1.388   118 H    0.998
    75   6 C    3.947 --    74 C    1.388    79 N    1.285    76 C    1.199
    76   6 C    3.850 --    77 C    1.645    75 C    1.199   119 H    0.995
    77   6 C    3.838 --    76 C    1.645    78 C    1.204   120 H    1.000
    78   6 C    3.926 --    80 C    1.370    79 N    1.279    77 C    1.204
    79   7 N    3.000 --    75 C    1.285    78 C    1.279    73 Zn   0.567
    80   6 C    3.834 --    78 C    1.370    81 C    1.369   108 C    1.037
    81   6 C    3.914 --    80 C    1.369    84 N    1.269    82 C    1.213
    82   6 C    3.829 --    83 C    1.626    81 C    1.213   121 H    0.999
    83   6 C    3.841 --    82 C    1.626    85 C    1.224   122 H    1.000
    84   7 N    3.010 --    85 C    1.311    81 C    1.269    73 Zn   0.562
    85   6 C    3.921 --    84 N    1.311    86 C    1.296    83 C    1.224
    86   6 C    3.829 --    87 C    1.296    85 C    1.296   156 C    1.221
    87   6 C    3.921 --   107 N    1.311    86 C    1.296    88 C    1.224
    88   6 C    3.841 --    89 C    1.627    87 C    1.224   123 H    1.000
    89   6 C    3.829 --    88 C    1.627    90 C    1.213   124 H    0.999
    90   6 C    3.914 --    91 C    1.369   107 N    1.269    89 C    1.213
    91   6 C    3.834 --   102 C    1.370    90 C    1.369    92 C    1.037
    92   6 C    3.868 --    99 C    1.380    93 C    1.378    91 C    1.037
    93   6 C    3.919 --    96 C    1.387    92 C    1.378    94 O    1.119
    94   8 O    2.194 --    93 C    1.119    95 C    0.983
    95   6 C    3.915 --   127 H    0.996   125 H    0.996   126 H    0.986
                            94 O    0.983
    96   6 C    3.830 --    97 C    1.439    93 C    1.387   128 H    0.989
    97   6 C    3.918 --    96 C    1.439    98 C    1.439   129 H    0.986
    98   6 C    3.830 --    97 C    1.439    99 C    1.387   130 H    0.989
    99   6 C    3.918 --    98 C    1.387    92 C    1.380   100 O    1.118
   100   8 O    2.193 --    99 C    1.118   101 C    0.984
   101   6 C    3.916 --   132 H    0.997   133 H    0.996   131 H    0.987
                           100 O    0.984
   102   6 C    3.926 --    91 C    1.370   106 N    1.279   103 C    1.204
   103   6 C    3.838 --   104 C    1.645   102 C    1.204   134 H    1.000
   104   6 C    3.850 --   103 C    1.645   105 C    1.199   135 H    0.995
   105   6 C    3.947 --    74 C    1.388   106 N    1.285   104 C    1.199
   106   7 N    3.000 --   105 C    1.285   102 C    1.279    73 Zn   0.567
   107   7 N    3.010 --    87 C    1.311    90 C    1.269    73 Zn   0.562
   108   6 C    3.868 --   115 C    1.380   109 C    1.378    80 C    1.037
   109   6 C    3.919 --   112 C    1.387   108 C    1.378   110 O    1.119
   110   8 O    2.195 --   109 C    1.119   111 C    0.983
   111   6 C    3.915 --   138 H    0.997   137 H    0.996   136 H    0.986
                           110 O    0.983
   112   6 C    3.830 --   113 C    1.439   109 C    1.387   139 H    0.989
   113   6 C    3.918 --   112 C    1.439   114 C    1.439   140 H    0.986
   114   6 C    3.829 --   113 C    1.439   115 C    1.387   141 H    0.989
   115   6 C    3.918 --   114 C    1.387   108 C    1.380   116 O    1.118
   116   8 O    2.193 --   115 C    1.118   117 C    0.983
   117   6 C    3.916 --   144 H    0.997   142 H    0.996   143 H    0.987
                           116 O    0.983
   118   1 H    1.033 --    74 C    0.998
   119   1 H    1.018 --    76 C    0.995
   120   1 H    1.031 --    77 C    1.000
   121   1 H    1.029 --    82 C    0.999
   122   1 H    1.027 --    83 C    1.000
   123   1 H    1.027 --    88 C    1.000
   124   1 H    1.029 --    89 C    0.999
   125   1 H    1.030 --    95 C    0.996
   126   1 H    1.043 --    95 C    0.986
   127   1 H    1.027 --    95 C    0.996
   128   1 H    1.021 --    96 C    0.989
   129   1 H    1.025 --    97 C    0.986
   130   1 H    1.021 --    98 C    0.989
   131   1 H    1.043 --   101 C    0.987
   132   1 H    1.028 --   101 C    0.997
   133   1 H    1.029 --   101 C    0.996
   134   1 H    1.031 --   103 C    1.000
   135   1 H    1.018 --   104 C    0.995
   136   1 H    1.043 --   111 C    0.986
   137   1 H    1.030 --   111 C    0.996
   138   1 H    1.027 --   111 C    0.997
   139   1 H    1.021 --   112 C    0.989
   140   1 H    1.025 --   113 C    0.986
   141   1 H    1.021 --   114 C    0.989
   142   1 H    1.029 --   117 C    0.996
   143   1 H    1.043 --   117 C    0.987
   144   1 H    1.028 --   117 C    0.997
   145   6 C    3.803 --   146 C    2.503   147 C    1.324
   146   6 C    3.799 --   145 C    2.503    14 C    1.217   148 C    0.178
   147   6 C    3.801 --   148 C    2.501   145 C    1.324
   148   6 C    3.801 --   147 C    2.501   158 C    1.219   146 C    0.178
   149   6 C    3.802 --   150 C    2.488   151 C    1.337
   150   6 C    3.802 --   149 C    2.488   170 C    1.232   152 C    0.178
   151   6 C    3.802 --   152 C    2.488   149 C    1.337
   152   6 C    3.802 --   151 C    2.488   229 C    1.232   150 C    0.178
   153   6 C    3.801 --   154 C    2.497   155 C    1.328
   154   6 C    3.802 --   153 C    2.497   241 C    1.223   156 C    0.178
   155   6 C    3.804 --   156 C    2.499   153 C    1.328
   156   6 C    3.800 --   155 C    2.499    86 C    1.221   154 C    0.178
   157  30 Zn   2.412 --   190 N    0.563   163 N    0.563   168 N    0.563
                           191 N    0.563
   158   6 C    3.817 --   159 C    1.295   189 C    1.294   148 C    1.219
   159   6 C    3.924 --   163 N    1.312   158 C    1.295   160 C    1.225
   160   6 C    3.838 --   161 C    1.625   159 C    1.225   202 H    1.001
   161   6 C    3.831 --   160 C    1.625   162 C    1.215   203 H    1.000
   162   6 C    3.912 --   164 C    1.371   163 N    1.264   161 C    1.215
   163   7 N    3.000 --   159 C    1.312   162 C    1.264   157 Zn   0.563
   164   6 C    3.831 --   162 C    1.371   165 C    1.369   192 C    1.037
   165   6 C    3.911 --   164 C    1.369   168 N    1.265   166 C    1.217
   166   6 C    3.829 --   167 C    1.622   165 C    1.217   204 H    1.000
   167   6 C    3.838 --   166 C    1.622   169 C    1.228   205 H    1.001
   168   7 N    3.003 --   169 C    1.315   165 C    1.265   157 Zn   0.563
   169   6 C    3.921 --   168 N    1.315   170 C    1.289   167 C    1.228
   170   6 C    3.817 --   171 C    1.289   169 C    1.289   150 C    1.232
   171   6 C    3.921 --   191 N    1.315   170 C    1.289   172 C    1.228
   172   6 C    3.838 --   173 C    1.622   171 C    1.228   206 H    1.001
   173   6 C    3.829 --   172 C    1.622   174 C    1.217   207 H    1.000
   174   6 C    3.911 --   175 C    1.369   191 N    1.265   173 C    1.217
   175   6 C    3.831 --   186 C    1.372   174 C    1.369   176 C    1.037
   176   6 C    3.868 --   177 C    1.379   183 C    1.379   175 C    1.037
   177   6 C    3.918 --   180 C    1.387   176 C    1.379   178 O    1.119
   178   8 O    2.194 --   177 C    1.119   179 C    0.984
   179   6 C    3.915 --   208 H    0.997   210 H    0.996   209 H    0.987
                           178 O    0.984
   180   6 C    3.829 --   181 C    1.439   177 C    1.387   211 H    0.989
   181   6 C    3.918 --   182 C    1.439   180 C    1.439   212 H    0.986
   182   6 C    3.829 --   181 C    1.439   183 C    1.387   213 H    0.989
   183   6 C    3.919 --   182 C    1.387   176 C    1.379   184 O    1.120
   184   8 O    2.195 --   183 C    1.120   185 C    0.983
   185   6 C    3.915 --   216 H    0.997   215 H    0.996   214 H    0.986
                           184 O    0.983
   186   6 C    3.912 --   175 C    1.372   190 N    1.264   187 C    1.215
   187   6 C    3.831 --   188 C    1.625   186 C    1.215   217 H    1.000
   188   6 C    3.838 --   187 C    1.625   189 C    1.225   218 H    1.001
   189   6 C    3.924 --   190 N    1.313   158 C    1.294   188 C    1.225
   190   7 N    3.000 --   189 C    1.313   186 C    1.264   157 Zn   0.563
   191   7 N    3.002 --   171 C    1.315   174 C    1.265   157 Zn   0.563
   192   6 C    3.868 --   199 C    1.379   193 C    1.379   164 C    1.037
   193   6 C    3.919 --   196 C    1.387   192 C    1.379   194 O    1.120
   194   8 O    2.195 --   193 C    1.120   195 C    0.983
   195   6 C    3.915 --   221 H    0.997   219 H    0.996   220 H    0.986
                           194 O    0.983
   196   6 C    3.829 --   197 C    1.439   193 C    1.387   222 H    0.989
   197   6 C    3.918 --   198 C    1.439   196 C    1.439   223 H    0.986
   198   6 C    3.829 --   197 C    1.439   199 C    1.387   224 H    0.989
   199   6 C    3.918 --   198 C    1.387   192 C    1.379   200 O    1.119
   200   8 O    2.194 --   199 C    1.119   201 C    0.984
   201   6 C    3.915 --   226 H    0.997   225 H    0.996   227 H    0.987
                           200 O    0.984
   202   1 H    1.028 --   160 C    1.001
   203   1 H    1.031 --   161 C    1.000
   204   1 H    1.030 --   166 C    1.000
   205   1 H    1.027 --   167 C    1.001
   206   1 H    1.027 --   172 C    1.001
   207   1 H    1.030 --   173 C    1.000
   208   1 H    1.028 --   179 C    0.997
   209   1 H    1.043 --   179 C    0.987
   210   1 H    1.029 --   179 C    0.996
   211   1 H    1.022 --   180 C    0.989
   212   1 H    1.025 --   181 C    0.986
   213   1 H    1.021 --   182 C    0.989
   214   1 H    1.043 --   185 C    0.986
   215   1 H    1.030 --   185 C    0.996
   216   1 H    1.028 --   185 C    0.997
   217   1 H    1.031 --   187 C    1.000
   218   1 H    1.028 --   188 C    1.001
   219   1 H    1.030 --   195 C    0.996
   220   1 H    1.043 --   195 C    0.986
   221   1 H    1.028 --   195 C    0.997
   222   1 H    1.021 --   196 C    0.989
   223   1 H    1.025 --   197 C    0.986
   224   1 H    1.022 --   198 C    0.989
   225   1 H    1.030 --   201 C    0.996
   226   1 H    1.028 --   201 C    0.997
   227   1 H    1.043 --   201 C    0.987
   228  30 Zn   2.411 --   234 N    0.563   262 N    0.563   261 N    0.563
                           239 N    0.563
   229   6 C    3.817 --   260 C    1.289   230 C    1.289   152 C    1.232
   230   6 C    3.921 --   234 N    1.315   229 C    1.289   231 C    1.228
   231   6 C    3.838 --   232 C    1.622   230 C    1.228   273 H    1.001
   232   6 C    3.829 --   231 C    1.622   233 C    1.217   274 H    1.000
   233   6 C    3.912 --   235 C    1.369   234 N    1.265   232 C    1.217
   234   7 N    3.002 --   230 C    1.315   233 C    1.265   228 Zn   0.563
   235   6 C    3.831 --   236 C    1.371   233 C    1.369   263 C    1.037
   236   6 C    3.912 --   235 C    1.371   239 N    1.264   237 C    1.215
   237   6 C    3.831 --   238 C    1.624   236 C    1.215   275 H    1.000
   238   6 C    3.837 --   237 C    1.624   240 C    1.226   276 H    1.001
   239   7 N    3.000 --   240 C    1.313   236 C    1.264   228 Zn   0.563
   240   6 C    3.923 --   239 N    1.313   241 C    1.292   238 C    1.226
   241   6 C    3.817 --   240 C    1.292   242 C    1.292   154 C    1.223
   242   6 C    3.923 --   262 N    1.313   241 C    1.292   243 C    1.226
   243   6 C    3.837 --   244 C    1.624   242 C    1.226   277 H    1.001
   244   6 C    3.831 --   243 C    1.624   245 C    1.216   278 H    1.000
   245   6 C    3.912 --   246 C    1.371   262 N    1.264   244 C    1.216
   246   6 C    3.831 --   245 C    1.371   257 C    1.369   247 C    1.037
   247   6 C    3.868 --   248 C    1.379   254 C    1.379   246 C    1.037
   248   6 C    3.919 --   251 C    1.387   247 C    1.379   249 O    1.119
   249   8 O    2.195 --   248 C    1.119   250 C    0.983
   250   6 C    3.915 --   279 H    0.997   281 H    0.996   280 H    0.987
                           249 O    0.983
   251   6 C    3.829 --   252 C    1.439   248 C    1.387   282 H    0.989
   252   6 C    3.918 --   251 C    1.439   253 C    1.439   283 H    0.986
   253   6 C    3.829 --   252 C    1.439   254 C    1.387   284 H    0.989
   254   6 C    3.918 --   253 C    1.387   247 C    1.379   255 O    1.119
   255   8 O    2.195 --   254 C    1.119   256 C    0.983
   256   6 C    3.915 --   287 H    0.997   286 H    0.996   285 H    0.987
                           255 O    0.983
   257   6 C    3.912 --   246 C    1.369   261 N    1.265   258 C    1.217
   258   6 C    3.829 --   259 C    1.622   257 C    1.217   288 H    1.000
   259   6 C    3.838 --   258 C    1.622   260 C    1.228   289 H    1.001
   260   6 C    3.922 --   261 N    1.315   229 C    1.289   259 C    1.228
   261   7 N    3.002 --   260 C    1.315   257 C    1.265   228 Zn   0.563
   262   7 N    3.000 --   242 C    1.313   245 C    1.264   228 Zn   0.563
   263   6 C    3.868 --   264 C    1.379   270 C    1.379   235 C    1.037
   264   6 C    3.918 --   267 C    1.387   263 C    1.379   265 O    1.119
   265   8 O    2.195 --   264 C    1.119   266 C    0.983
   266   6 C    3.915 --   292 H    0.997   290 H    0.996   291 H    0.987
                           265 O    0.983
   267   6 C    3.829 --   268 C    1.439   264 C    1.387   293 H    0.989
   268   6 C    3.918 --   267 C    1.439   269 C    1.439   294 H    0.986
   269   6 C    3.829 --   268 C    1.439   270 C    1.387   295 H    0.989
   270   6 C    3.919 --   269 C    1.387   263 C    1.379   271 O    1.119
   271   8 O    2.195 --   270 C    1.119   272 C    0.983
   272   6 C    3.915 --   297 H    0.997   296 H    0.996   298 H    0.986
                           271 O    0.983
   273   1 H    1.027 --   231 C    1.001
   274   1 H    1.030 --   232 C    1.000
   275   1 H    1.030 --   237 C    1.000
   276   1 H    1.027 --   238 C    1.001
   277   1 H    1.027 --   243 C    1.001
   278   1 H    1.030 --   244 C    1.000
   279   1 H    1.028 --   250 C    0.997
   280   1 H    1.043 --   250 C    0.987
   281   1 H    1.030 --   250 C    0.996
   282   1 H    1.022 --   251 C    0.989
   283   1 H    1.025 --   252 C    0.986
   284   1 H    1.021 --   253 C    0.989
   285   1 H    1.043 --   256 C    0.987
   286   1 H    1.030 --   256 C    0.996
   287   1 H    1.028 --   256 C    0.997
   288   1 H    1.030 --   258 C    1.000
   289   1 H    1.027 --   259 C    1.001
   290   1 H    1.030 --   266 C    0.996
   291   1 H    1.043 --   266 C    0.987
   292   1 H    1.028 --   266 C    0.997
   293   1 H    1.021 --   267 C    0.989
   294   1 H    1.025 --   268 C    0.986
   295   1 H    1.022 --   269 C    0.989
   296   1 H    1.030 --   272 C    0.996
   297   1 H    1.028 --   272 C    0.997
   298   1 H    1.043 --   272 C    0.986
 ---------------------------------------------------------------------------

Topologies differ in total number of bonds
Writing topology from bond orders to xtbtopo.mol

 dipole moment from electron density (au)
     X       Y       Z   
-126.7977   0.0297   0.0543  total (Debye):  322.288


           -------------------------------------------------
          | TOTAL ENERGY             -576.295160679825 Eh   |
          | GRADIENT NORM               0.079331838731 Eh/α |
          | HOMO-LUMO GAP               0.152372998179 eV   |
           -------------------------------------------------
########################################################################
[WARNING] Runtime exception occurred
-1- restart_readRestart: Dimension missmatch in restart file.
########################################################################

------------------------------------------------------------------------
 * finished run on 2022/07/30 at 15:12:24.938     
------------------------------------------------------------------------
 total:
 * wall-time:     0 d,  0 h,  0 min, 31.256 sec
 *  cpu-time:     0 d,  0 h,  0 min, 31.104 sec
 * ratio c/w:     0.995 speedup
 SCF:
 * wall-time:     0 d,  0 h,  0 min, 30.428 sec
 *  cpu-time:     0 d,  0 h,  0 min, 30.283 sec
 * ratio c/w:     0.995 speedup

