      -----------------------------------------------------------      
     |                   =====================                   |     
     |                           x T B                           |     
     |                   =====================                   |     
     |                         S. Grimme                         |     
     |          Mulliken Center for Theoretical Chemistry        |     
     |                    University of Bonn                     |     
      -----------------------------------------------------------      

   * xtb version 6.5.1 (b24c23e) compiled by 'conda@728c89f4b128' on 2022-07-12

   xtb is free software: you can redistribute it and/or modify it under
   the terms of the GNU Lesser General Public License as published by
   the Free Software Foundation, either version 3 of the License, or
   (at your option) any later version.
   
   xtb is distributed in the hope that it will be useful,
   but WITHOUT ANY WARRANTY; without even the implied warranty of
   MERCHANTABILITY or FITNESS FOR A PARTICULAR PURPOSE.  See the
   GNU Lesser General Public License for more details.
   
   Cite this work as:
   * C. Bannwarth, E. Caldeweyher, S. Ehlert, A. Hansen, P. Pracht,
     J. Seibert, S. Spicher, S. Grimme, WIREs Comput. Mol. Sci., 2020, 11,
     e01493. DOI: 10.1002/wcms.1493
   
   for GFN2-xTB:
   * C. Bannwarth, S. Ehlert and S. Grimme., J. Chem. Theory Comput., 2019,
     15, 1652-1671. DOI: 10.1021/acs.jctc.8b01176
   for GFN1-xTB:
   * S. Grimme, C. Bannwarth, P. Shushkov, J. Chem. Theory Comput., 2017,
     13, 1989-2009. DOI: 10.1021/acs.jctc.7b00118
   for GFN0-xTB:
   * P. Pracht, E. Caldeweyher, S. Ehlert, S. Grimme, ChemRxiv, 2019, preprint.
     DOI: 10.26434/chemrxiv.8326202.v1
   for GFN-FF:
   * S. Spicher and S. Grimme, Angew. Chem. Int. Ed., 2020, 59, 15665-15673.
     DOI: 10.1002/anie.202004239
   
   for ALPB and GBSA implicit solvation:
   * S. Ehlert, M. Stahn, S. Spicher, S. Grimme, J. Chem. Theory Comput.,
     2021, 17, 4250-4261. DOI: 10.1021/acs.jctc.1c00471
   
   for DFT-D4:
   * E. Caldeweyher, C. Bannwarth and S. Grimme, J. Chem. Phys., 2017,
     147, 034112. DOI: 10.1063/1.4993215
   * E. Caldeweyher, S. Ehlert, A. Hansen, H. Neugebauer, S. Spicher,
     C. Bannwarth and S. Grimme, J. Chem. Phys., 2019, 150, 154122.
     DOI: 10.1063/1.5090222
   * E. Caldeweyher, J.-M. Mewes, S. Ehlert and S. Grimme, Phys. Chem. Chem. Phys.
     2020, 22, 8499-8512. DOI: 10.1039/D0CP00502A
   
   for sTDA-xTB:
   * S. Grimme and C. Bannwarth, J. Chem. Phys., 2016, 145, 054103.
     DOI: 10.1063/1.4959605
   
   in the mass-spec context:
   * V. Asgeirsson, C. Bauer and S. Grimme, Chem. Sci., 2017, 8, 4879.
     DOI: 10.1039/c7sc00601b
   * J. Koopman and S. Grimme, ACS Omega 2019, 4, 12, 15120-15133.
     DOI: 10.1021/acsomega.9b02011
   
   for metadynamics refer to:
   * S. Grimme, J. Chem. Theory Comput., 2019, 155, 2847-2862
     DOI: 10.1021/acs.jctc.9b00143
   
   for SPH calculations refer to:
   * S. Spicher and S. Grimme, J. Chem. Theory Comput., 2021, 17, 1701-1714
     DOI: 10.1021/acs.jctc.0c01306
   
   with help from (in alphabetical order)
   P. Atkinson, C. Bannwarth, F. Bohle, G. Brandenburg, E. Caldeweyher
   M. Checinski, S. Dohm, S. Ehlert, S. Ehrlich, I. Gerasimov, C. Hölzer
   A. Katbashev, J. Koopman, C. Lavigne, S. Lehtola, F. März, M. Müller,
   F. Musil, H. Neugebauer, J. Pisarek, C. Plett, P. Pracht, F. Pultar,
   J. Seibert, P. Shushkov, S. Spicher, M. Stahn, M. Steiner, T. Strunk,
   J. Stückrath, T. Rose, and J. Unsleber
   
 * started run on 2022/07/30 at 14:12:24.256     

           -------------------------------------------------
          |                Calculation Setup                |
           -------------------------------------------------

          program call               : xtb xtbopt.xyz --gfn 1 --vipea
          hostname                   : cx3-15-13.cx3.hpc.ic.ac.uk
          coordinate file            : xtbopt.xyz
          omp threads                :                     1

   ID    Z sym.   atoms
    1   29 Cu     1, 59
    2    6 C      2-6, 8-13, 15-19, 21-26, 28-33, 35-40, 60-64, 66-71, 73-77,
                  79-84, 86-91, 93-98, 117, 118
    3    7 N      7, 14, 20, 27, 34, 41, 65, 72, 78, 85, 92, 99
    4    1 H      42-58, 100-116

           -------------------------------------------------
          |                 I P E A - x T B                 |
           -------------------------------------------------

        Reference                      10.1039/c7sc00601b
      * Hamiltonian:
        H0-scaling (s, p, d)           2.150000    2.300000    2.000000
        zeta-weighting                 0.000000
      * Dispersion:
        s8                             2.400000
        a1                             0.630000
        a2                             5.000000
        s9                             0.000000
      * Repulsion:
        kExp                           1.500000
        rExp                           1.000000
      * Coulomb:
        alpha                          1.000000
        third order                    atomic
        anisotropic                    false
      * Halogen bond correction:
        rad-scale                      1.300000
        damping                        0.440000


          ...................................................
          :                      SETUP                      :
          :.................................................:
          :  # basis functions                 498          :
          :  # atomic orbitals                 496          :
          :  # shells                          320          :
          :  # electrons                       396          :
          :  # halogen bonds                     0          :
          :  max. iterations                   250          :
          :  Hamiltonian                  GFN1-xTB          :
          :  restarted?                      false          :
          :  GBSA solvation                  false          :
          :  PC potential                    false          :
          :  electronic temp.          300.0000000     K    :
          :  accuracy                    1.0000000          :
          :  -> integral cutoff          0.2500000E+02      :
          :  -> integral neglect         0.1000000E-07      :
          :  -> SCF convergence          0.1000000E-05 Eh   :
          :  -> wf. convergence          0.2000000E-04 e    :
          :  Broyden damping             0.4000000          :
          ...................................................

 iter      E             dE          RMSdq      gap      omega  full diag
   1   -246.5740474 -0.246574E+03  0.104E+01    0.01       0.0  T
   2   -246.4782439  0.958035E-01  0.655E+00    0.02       1.0  T
   3   -241.2162724  0.526197E+01  0.576E+00    0.01       1.0  T
   4   -246.9611808 -0.574491E+01  0.147E+00    0.02       1.0  T
   5   -247.3278942 -0.366713E+00  0.870E-01    0.25       1.0  T
   6   -247.3313323 -0.343818E-02  0.871E-01    0.28       1.0  T
   7   -247.4712980 -0.139966E+00  0.424E-01    0.06       1.0  T
   8   -247.4898169 -0.185189E-01  0.310E-01    0.03       1.0  T
   9   -247.5028058 -0.129889E-01  0.196E-01    0.02       1.0  T
  10   -247.5045791 -0.177338E-02  0.156E-01    0.02       1.0  T
  11   -247.5083223 -0.374318E-02  0.589E-02    0.01       1.0  T
  12   -247.5084457 -0.123333E-03  0.417E-02    0.01       1.0  T
  13   -247.5087160 -0.270365E-03  0.197E-02    0.01       1.0  T
  14   -247.5087178 -0.181274E-05  0.195E-02    0.01       1.0  T
  15   -247.5088084 -0.905578E-04  0.300E-03    0.01       3.1  T
  16   -247.5088101 -0.169677E-05  0.109E-03    0.01       8.4  T
  17   -247.5088102 -0.112573E-06  0.556E-04    0.01      16.6  T
  18   -247.5088102 -0.357606E-07  0.350E-04    0.01      26.3  T
  19   -247.5088103 -0.285912E-07  0.508E-05    0.01     181.2  T
  20   -247.5088103  0.474927E-09  0.671E-05    0.01     137.3  T

   *** convergence criteria satisfied after 20 iterations ***

         #    Occupation            Energy/Eh            Energy/eV
      -------------------------------------------------------------
         1        2.0000           -1.0241387             -27.8682
       ...           ...                  ...                  ...
       192        2.0000           -0.4257299             -11.5847
       193        2.0000           -0.4253447             -11.5742
       194        2.0000           -0.3984199             -10.8416
       195        2.0000           -0.3972005             -10.8084
       196        2.0000           -0.3971972             -10.8083
       197        2.0000           -0.3816668             -10.3857
       198        0.9621           -0.3244455              -8.8286 (HOMO)
       199        0.7941           -0.3241205              -8.8198 (LUMO)
       200        0.2437           -0.3226412              -8.7795
       201        0.0000           -0.3136817              -8.5357
       202        0.0000           -0.3136726              -8.5355
       203                         -0.3031614              -8.2494
       ...                                ...                  ...
       496                        544.3399715           14812.2446
      -------------------------------------------------------------
                  HL-Gap            0.0003250 Eh            0.0088 eV
             Fermi-level           -0.3245174 Eh           -8.8306 eV

 SCC (total)                   0 d,  0 h,  0 min,  2.012 sec
 SCC setup                      ...        0 min,  0.002 sec (  0.093%)
 Dispersion                     ...        0 min,  0.003 sec (  0.144%)
 classical contributions        ...        0 min,  0.001 sec (  0.060%)
 integral evaluation            ...        0 min,  0.255 sec ( 12.671%)
 iterations                     ...        0 min,  1.139 sec ( 56.577%)
 molecular gradient             ...        0 min,  0.598 sec ( 29.726%)
 printout                       ...        0 min,  0.015 sec (  0.728%)

         :::::::::::::::::::::::::::::::::::::::::::::::::::::
         ::                     SUMMARY                     ::
         :::::::::::::::::::::::::::::::::::::::::::::::::::::
         :: total energy            -242.656679101483 Eh    ::
         :: gradient norm              0.072620666372 Eh/a0 ::
         :: HOMO-LUMO gap              0.008844131648 eV    ::
         ::.................................................::
         :: SCC energy              -247.508810268285 Eh    ::
         :: -> electrostatic           0.181433423352 Eh    ::
         :: repulsion energy           4.962443140248 Eh    ::
         :: dispersion energy         -0.110311973447 Eh    ::
         :: halogen bond corr.         0.000000000000 Eh    ::
         :: add. restraining           0.000000000000 Eh    ::
         :: total charge              -0.000000000001 e     ::
         :::::::::::::::::::::::::::::::::::::::::::::::::::::

           ------------------------------------------------- 
          |        vertical delta SCC IP calculation        |
           ------------------------------------------------- 
   1   -247.1310467 -0.247131E+03  0.316E-01    0.01       0.0  T
   2   -247.1422263 -0.111795E-01  0.133E-01    0.00       1.0  T
   3   -247.1432360 -0.100974E-02  0.887E-02    0.00       1.0  T
   4   -247.1437915 -0.555454E-03  0.680E-02    0.01       1.0  T
   5   -247.1298231  0.139684E-01  0.235E-01    0.07       1.0  T
   6   -247.1423396 -0.125166E-01  0.889E-02    0.02       1.0  T
   7   -247.1443856 -0.204596E-02  0.132E-02    0.00       1.0  T
   8   -247.1444244 -0.388370E-04  0.435E-03    0.00       2.1  T
   9   -247.1444286 -0.411791E-05  0.206E-03    0.00       4.5  T
  10   -247.1444296 -0.103201E-05  0.907E-04    0.00      10.2  T
  11   -247.1444298 -0.180506E-06  0.303E-04    0.00      30.4  T
  12   -247.1444298 -0.119528E-07  0.166E-04    0.00      55.6  T
  13   -247.1444298 -0.329612E-08  0.990E-05    0.00      92.9  T
     SCC iter.                  ...        0 min,  0.730 sec
     gradient                   ...        0 min,  0.595 sec
------------------------------------------------------------------------
empirical IP shift (eV):    4.8455
delta SCC IP (eV):    5.0698
------------------------------------------------------------------------
           ------------------------------------------------- 
          |        vertical delta SCC EA calculation        |
           ------------------------------------------------- 
   1   -247.7349537 -0.247735E+03  0.724E-01    0.20       0.0  T
   2   -247.6079736  0.126980E+00  0.928E-01    0.00       1.0  T
   3   -247.7574086 -0.149435E+00  0.597E-01    0.20       1.0  T
   4   -247.7821452 -0.247366E-01  0.363E-01    0.07       1.0  T
   5   -247.7632848  0.188605E-01  0.390E-01    0.02       1.0  T
   6   -247.7449142  0.183706E-01  0.466E-01    0.02       1.0  T
   7   -247.7924784 -0.475642E-01  0.126E-01    0.01       1.0  T
   8   -247.7948753 -0.239688E-02  0.325E-02    0.01       1.0  T
   9   -247.7951509 -0.275546E-03  0.897E-03    0.02       1.0  T
  10   -247.7951545 -0.364012E-05  0.804E-03    0.01       1.1  T
  11   -247.7951550 -0.517846E-06  0.653E-03    0.02       1.4  T
  12   -247.7951658 -0.108142E-04  0.157E-03    0.02       5.9  T
  13   -247.7951662 -0.335484E-06  0.648E-04    0.02      14.2  T
  14   -247.7951661  0.321023E-07  0.659E-04    0.02      14.0  T
  15   -247.7951662 -0.942896E-07  0.150E-04    0.02      61.4  T
  16   -247.7951662  0.513950E-09  0.160E-04    0.02      57.6  T
     SCC iter.                  ...        0 min,  0.889 sec
     gradient                   ...        0 min,  0.596 sec
------------------------------------------------------------------------
empirical EA shift (eV):    4.8455
delta SCC EA (eV):    2.9466
------------------------------------------------------------------------
           -------------------------------------------------
          |                Property Printout                |
           -------------------------------------------------

    * Orbital Energies and Occupations

         #    Occupation            Energy/Eh            Energy/eV
      -------------------------------------------------------------
         1        2.0000           -0.9504049             -25.8618
       ...           ...                  ...                  ...
       187        2.0000           -0.3648864              -9.9291
       188        2.0000           -0.3604816              -9.8092
       189        2.0000           -0.3603461              -9.8055
       190        2.0000           -0.3520227              -9.5790
       191        2.0000           -0.3519671              -9.5775
       192        2.0000           -0.3519630              -9.5774
       193        2.0000           -0.3514059              -9.5622
       194        2.0000           -0.3262873              -8.8787
       195        2.0000           -0.3246035              -8.8329
       196        2.0000           -0.3246014              -8.8329
       197        2.0000           -0.3088089              -8.4031
       198        1.2332           -0.2496587              -6.7936
       199        0.9991           -0.2491463              -6.7796 (HOMO)
       200        0.7461           -0.2485909              -6.7645 (LUMO)
       201        0.0109           -0.2439747              -6.6389
       202        0.0107           -0.2439631              -6.6386
       203                         -0.2298065              -6.2534
       204                         -0.2164215              -5.8891
       205                         -0.2146563              -5.8411
       206                         -0.2084590              -5.6725
       207                         -0.2084582              -5.6724
       208                         -0.1913228              -5.2062
       209                         -0.1810899              -4.9277
       210                         -0.1773651              -4.8263
       ...                                ...                  ...
       496                        544.4140234           14814.2596
      -------------------------------------------------------------
                  HL-Gap            0.0005554 Eh            0.0151 eV
             Fermi-level           -0.2491483 Eh           -6.7797 eV

  Mulliken/CM5 charges         n(s)   n(p)   n(d)
     1Cu    0.25612  0.61034   0.534  0.888  9.322
     2C    -0.03311 -0.07437   1.079  2.954  0.000
     3C     0.05647  0.11793   1.117  2.827  0.000
     4C    -0.04385 -0.09001   1.085  2.959  0.000
     5C    -0.04010 -0.08587   1.079  2.961  0.000
     6C     0.05440  0.11956   1.105  2.840  0.000
     7N    -0.21741 -0.46774   1.326  3.891  0.000
     8C     0.00577  0.01105   1.086  2.908  0.000
     9C     0.01718  0.00841   1.094  2.889  0.000
    10C    -0.01707 -0.07036   1.077  2.940  0.000
    11C    -0.01367 -0.06574   1.091  2.922  0.000
    12C     0.01262  0.00887   1.075  2.912  0.000
    13C     0.11047  0.22802   1.211  2.678  0.000
    14N    -0.27607 -0.40067   1.544  3.732  0.000
    15C    -0.01283 -0.06491   1.091  2.922  0.000
    16C    -0.01615 -0.06945   1.077  2.939  0.000
    17C     0.05336  0.11777   1.103  2.844  0.000
    18C    -0.04032 -0.08609   1.075  2.966  0.000
    19C    -0.03898 -0.08448   1.079  2.960  0.000
    20N    -0.21386 -0.46334   1.329  3.885  0.000
    21C     0.06120  0.12716   1.121  2.818  0.000
    22C     0.00783  0.01458   1.077  2.915  0.000
    23C     0.06111  0.12709   1.121  2.818  0.000
    24C    -0.03905 -0.08457   1.079  2.960  0.000
    25C    -0.04040 -0.08619   1.075  2.966  0.000
    26C     0.05327  0.11767   1.103  2.844  0.000
    27N    -0.21374 -0.46329   1.329  3.885  0.000
    28C     0.00573  0.01102   1.086  2.908  0.000
    29C     0.01712  0.00835   1.094  2.889  0.000
    30C    -0.01719 -0.07048   1.077  2.940  0.000
    31C    -0.01374 -0.06582   1.091  2.922  0.000
    32C     0.01257  0.00883   1.075  2.913  0.000
    33C     0.11045  0.22799   1.211  2.678  0.000
    34N    -0.27614 -0.40075   1.544  3.732  0.000
    35C    -0.01281 -0.06489   1.091  2.922  0.000
    36C    -0.01608 -0.06938   1.077  2.939  0.000
    37C     0.05446  0.11963   1.105  2.840  0.000
    38C    -0.04001 -0.08578   1.079  2.961  0.000
    39C    -0.04378 -0.08995   1.085  2.959  0.000
    40C     0.05649  0.11795   1.117  2.827  0.000
    41N    -0.21749 -0.46779   1.326  3.891  0.000
    42H     0.01592  0.07485   0.984  0.000  0.000
    43H     0.02299  0.07954   0.977  0.000  0.000
    44H     0.01670  0.07551   0.983  0.000  0.000
    45H     0.02665  0.08459   0.973  0.000  0.000
    46H     0.03587  0.09313   0.964  0.000  0.000
    47H     0.03765  0.09491   0.962  0.000  0.000
    48H     0.02836  0.08625   0.972  0.000  0.000
    49H     0.01749  0.07636   0.983  0.000  0.000
    50H     0.01726  0.07564   0.983  0.000  0.000
    51H     0.01722  0.07556   0.983  0.000  0.000
    52H     0.01743  0.07631   0.983  0.000  0.000
    53H     0.02647  0.08442   0.974  0.000  0.000
    54H     0.03577  0.09303   0.964  0.000  0.000
    55H     0.03775  0.09500   0.962  0.000  0.000
    56H     0.02850  0.08641   0.972  0.000  0.000
    57H     0.01677  0.07559   0.983  0.000  0.000
    58H     0.02302  0.07957   0.977  0.000  0.000
    59Cu    0.25631  0.61053   0.534  0.888  9.322
    60C    -0.03310 -0.07436   1.079  2.954  0.000
    61C     0.05647  0.11792   1.117  2.827  0.000
    62C    -0.04385 -0.09001   1.085  2.959  0.000
    63C    -0.04010 -0.08587   1.079  2.961  0.000
    64C     0.05441  0.11957   1.105  2.840  0.000
    65N    -0.21737 -0.46771   1.326  3.891  0.000
    66C     0.00576  0.01105   1.086  2.908  0.000
    67C     0.01718  0.00841   1.094  2.889  0.000
    68C    -0.01707 -0.07036   1.077  2.940  0.000
    69C    -0.01367 -0.06575   1.091  2.922  0.000
    70C     0.01262  0.00887   1.075  2.912  0.000
    71C     0.11047  0.22801   1.211  2.678  0.000
    72N    -0.27607 -0.40067   1.544  3.732  0.000
    73C    -0.01282 -0.06490   1.091  2.922  0.000
    74C    -0.01615 -0.06945   1.077  2.939  0.000
    75C     0.05337  0.11778   1.103  2.844  0.000
    76C    -0.04032 -0.08609   1.075  2.966  0.000
    77C    -0.03897 -0.08447   1.079  2.960  0.000
    78N    -0.21384 -0.46331   1.329  3.885  0.000
    79C     0.06121  0.12716   1.121  2.818  0.000
    80C     0.00784  0.01459   1.077  2.915  0.000
    81C     0.06112  0.12709   1.121  2.818  0.000
    82C    -0.03905 -0.08457   1.079  2.960  0.000
    83C    -0.04040 -0.08619   1.075  2.966  0.000
    84C     0.05328  0.11768   1.103  2.844  0.000
    85N    -0.21371 -0.46326   1.329  3.885  0.000
    86C     0.00573  0.01102   1.086  2.908  0.000
    87C     0.01712  0.00835   1.094  2.889  0.000
    88C    -0.01719 -0.07048   1.077  2.940  0.000
    89C    -0.01375 -0.06583   1.091  2.922  0.000
    90C     0.01257  0.00883   1.075  2.913  0.000
    91C     0.11045  0.22799   1.211  2.678  0.000
    92N    -0.27614 -0.40075   1.544  3.732  0.000
    93C    -0.01280 -0.06488   1.091  2.922  0.000
    94C    -0.01607 -0.06938   1.077  2.939  0.000
    95C     0.05447  0.11963   1.105  2.840  0.000
    96C    -0.04002 -0.08579   1.079  2.961  0.000
    97C    -0.04378 -0.08994   1.085  2.959  0.000
    98C     0.05649  0.11794   1.117  2.827  0.000
    99N    -0.21746 -0.46776   1.326  3.891  0.000
   100H     0.01592  0.07485   0.984  0.000  0.000
   101H     0.02299  0.07953   0.977  0.000  0.000
   102H     0.01670  0.07551   0.983  0.000  0.000
   103H     0.02665  0.08459   0.973  0.000  0.000
   104H     0.03587  0.09312   0.964  0.000  0.000
   105H     0.03765  0.09491   0.962  0.000  0.000
   106H     0.02836  0.08626   0.972  0.000  0.000
   107H     0.01749  0.07636   0.983  0.000  0.000
   108H     0.01726  0.07564   0.983  0.000  0.000
   109H     0.01722  0.07556   0.983  0.000  0.000
   110H     0.01743  0.07631   0.983  0.000  0.000
   111H     0.02647  0.08441   0.974  0.000  0.000
   112H     0.03577  0.09302   0.964  0.000  0.000
   113H     0.03775  0.09500   0.962  0.000  0.000
   114H     0.02850  0.08641   0.972  0.000  0.000
   115H     0.01677  0.07559   0.983  0.000  0.000
   116H     0.02302  0.07957   0.977  0.000  0.000
   117C    -0.03480 -0.03714   1.068  2.967  0.000
   118C    -0.03478 -0.03711   1.068  2.967  0.000

Wiberg/Mayer (AO) data.
largest (>0.10) Wiberg bond orders for each atom

 ---------------------------------------------------------------------------
     #   Z sym  total        # sym  WBO       # sym  WBO       # sym  WBO
 ---------------------------------------------------------------------------
     1  29 Cu   2.609 --     7 N    0.594    41 N    0.594    27 N    0.591
                            20 N    0.591
     2   6 C    3.776 --    40 C    1.381     3 C    1.380    42 H    0.998
     3   6 C    3.945 --     2 C    1.380     7 N    1.277     4 C    1.198
     4   6 C    3.829 --     5 C    1.638     3 C    1.198    43 H    0.995
     5   6 C    3.821 --     4 C    1.638     6 C    1.206    44 H    1.000
     6   6 C    3.910 --     8 C    1.364     7 N    1.263     5 C    1.206
     7   7 N    2.937 --     3 C    1.277     6 C    1.263     1 Cu   0.594
     8   6 C    3.825 --     6 C    1.364    17 C    1.355     9 C    1.054
     9   6 C    3.871 --    16 C    1.416    10 C    1.415     8 C    1.054
    10   6 C    3.865 --    11 C    1.464     9 C    1.415    45 H    0.988
    11   6 C    3.906 --    10 C    1.464    12 C    1.380    46 H    0.987
    12   6 C    3.902 --    15 C    1.380    11 C    1.380    13 C    1.126
    13   6 C    4.102 --    14 N    2.957    12 C    1.126
    14   7 N    2.983 --    13 C    2.957
    15   6 C    3.905 --    16 C    1.464    12 C    1.380    47 H    0.986
    16   6 C    3.865 --    15 C    1.464     9 C    1.416    48 H    0.987
    17   6 C    3.894 --     8 C    1.355    20 N    1.255    18 C    1.221
    18   6 C    3.804 --    19 C    1.611    17 C    1.221    49 H    0.999
    19   6 C    3.803 --    18 C    1.611    21 C    1.231    50 H    1.000
    20   7 N    2.953 --    21 C    1.305    17 C    1.255     1 Cu   0.591
    21   6 C    3.918 --    20 N    1.305    22 C    1.282    19 C    1.231
    22   6 C    3.791 --    21 C    1.282    23 C    1.280   117 C    1.226
    23   6 C    3.918 --    27 N    1.306    22 C    1.280    24 C    1.232
    24   6 C    3.802 --    25 C    1.610    23 C    1.232    51 H    1.000
    25   6 C    3.804 --    24 C    1.610    26 C    1.222    52 H    0.999
    26   6 C    3.895 --    28 C    1.354    27 N    1.255    25 C    1.222
    27   7 N    2.954 --    23 C    1.306    26 C    1.255     1 Cu   0.591
    28   6 C    3.825 --    37 C    1.365    26 C    1.354    29 C    1.055
    29   6 C    3.871 --    36 C    1.416    30 C    1.415    28 C    1.055
    30   6 C    3.865 --    31 C    1.465    29 C    1.415    53 H    0.988
    31   6 C    3.906 --    30 C    1.465    32 C    1.380    54 H    0.987
    32   6 C    3.902 --    35 C    1.380    31 C    1.380    33 C    1.126
    33   6 C    4.102 --    34 N    2.957    32 C    1.126
    34   7 N    2.982 --    33 C    2.957
    35   6 C    3.905 --    36 C    1.465    32 C    1.380    55 H    0.986
    36   6 C    3.865 --    35 C    1.465    29 C    1.416    56 H    0.987
    37   6 C    3.910 --    28 C    1.365    41 N    1.263    38 C    1.206
    38   6 C    3.821 --    39 C    1.638    37 C    1.206    57 H    1.000
    39   6 C    3.830 --    38 C    1.638    40 C    1.198    58 H    0.995
    40   6 C    3.945 --     2 C    1.381    41 N    1.277    39 C    1.198
    41   7 N    2.937 --    40 C    1.277    37 C    1.263     1 Cu   0.594
    42   1 H    1.037 --     2 C    0.998
    43   1 H    1.026 --     4 C    0.995
    44   1 H    1.039 --     5 C    1.000
    45   1 H    1.055 --    10 C    0.988
    46   1 H    1.040 --    11 C    0.987
    47   1 H    1.039 --    15 C    0.986
    48   1 H    1.055 --    16 C    0.987
    49   1 H    1.038 --    18 C    0.999
    50   1 H    1.044 --    19 C    1.000
    51   1 H    1.043 --    24 C    1.000
    52   1 H    1.038 --    25 C    0.999
    53   1 H    1.055 --    30 C    0.988
    54   1 H    1.040 --    31 C    0.987
    55   1 H    1.039 --    35 C    0.986
    56   1 H    1.055 --    36 C    0.987
    57   1 H    1.039 --    38 C    1.000
    58   1 H    1.026 --    39 C    0.995
    59  29 Cu   2.609 --    65 N    0.594    99 N    0.594    85 N    0.591
                            78 N    0.591
    60   6 C    3.776 --    98 C    1.381    61 C    1.380   100 H    0.998
    61   6 C    3.945 --    60 C    1.380    65 N    1.277    62 C    1.198
    62   6 C    3.829 --    63 C    1.638    61 C    1.198   101 H    0.995
    63   6 C    3.821 --    62 C    1.638    64 C    1.206   102 H    1.000
    64   6 C    3.910 --    66 C    1.364    65 N    1.263    63 C    1.206
    65   7 N    2.937 --    61 C    1.277    64 C    1.263    59 Cu   0.594
    66   6 C    3.825 --    64 C    1.364    75 C    1.355    67 C    1.054
    67   6 C    3.871 --    74 C    1.416    68 C    1.415    66 C    1.054
    68   6 C    3.865 --    69 C    1.464    67 C    1.415   103 H    0.988
    69   6 C    3.906 --    68 C    1.464    70 C    1.380   104 H    0.987
    70   6 C    3.902 --    73 C    1.380    69 C    1.380    71 C    1.126
    71   6 C    4.102 --    72 N    2.957    70 C    1.126
    72   7 N    2.983 --    71 C    2.957
    73   6 C    3.905 --    74 C    1.464    70 C    1.380   105 H    0.986
    74   6 C    3.865 --    73 C    1.464    67 C    1.416   106 H    0.987
    75   6 C    3.894 --    66 C    1.355    78 N    1.255    76 C    1.221
    76   6 C    3.804 --    77 C    1.611    75 C    1.221   107 H    0.999
    77   6 C    3.803 --    76 C    1.611    79 C    1.231   108 H    1.000
    78   7 N    2.953 --    79 C    1.305    75 C    1.255    59 Cu   0.591
    79   6 C    3.918 --    78 N    1.305    80 C    1.282    77 C    1.231
    80   6 C    3.791 --    79 C    1.282    81 C    1.280   118 C    1.226
    81   6 C    3.918 --    85 N    1.306    80 C    1.280    82 C    1.232
    82   6 C    3.802 --    83 C    1.610    81 C    1.232   109 H    1.000
    83   6 C    3.804 --    82 C    1.610    84 C    1.222   110 H    0.999
    84   6 C    3.895 --    86 C    1.354    85 N    1.255    83 C    1.222
    85   7 N    2.954 --    81 C    1.306    84 C    1.255    59 Cu   0.591
    86   6 C    3.825 --    95 C    1.365    84 C    1.354    87 C    1.055
    87   6 C    3.871 --    94 C    1.416    88 C    1.415    86 C    1.055
    88   6 C    3.865 --    89 C    1.465    87 C    1.415   111 H    0.988
    89   6 C    3.906 --    88 C    1.465    90 C    1.380   112 H    0.987
    90   6 C    3.902 --    89 C    1.380    93 C    1.380    91 C    1.126
    91   6 C    4.102 --    92 N    2.957    90 C    1.126
    92   7 N    2.982 --    91 C    2.957
    93   6 C    3.905 --    94 C    1.465    90 C    1.380   113 H    0.986
    94   6 C    3.865 --    93 C    1.465    87 C    1.416   114 H    0.987
    95   6 C    3.910 --    86 C    1.365    99 N    1.263    96 C    1.206
    96   6 C    3.821 --    97 C    1.638    95 C    1.206   115 H    1.000
    97   6 C    3.830 --    96 C    1.638    98 C    1.198   116 H    0.995
    98   6 C    3.945 --    60 C    1.381    99 N    1.277    97 C    1.198
    99   7 N    2.937 --    98 C    1.277    95 C    1.263    59 Cu   0.594
   100   1 H    1.037 --    60 C    0.998
   101   1 H    1.026 --    62 C    0.995
   102   1 H    1.039 --    63 C    1.000
   103   1 H    1.055 --    68 C    0.988
   104   1 H    1.040 --    69 C    0.987
   105   1 H    1.039 --    73 C    0.986
   106   1 H    1.055 --    74 C    0.987
   107   1 H    1.038 --    76 C    0.999
   108   1 H    1.044 --    77 C    1.000
   109   1 H    1.043 --    82 C    1.000
   110   1 H    1.038 --    83 C    0.999
   111   1 H    1.055 --    88 C    0.988
   112   1 H    1.040 --    89 C    0.987
   113   1 H    1.039 --    93 C    0.986
   114   1 H    1.055 --    94 C    0.987
   115   1 H    1.039 --    96 C    1.000
   116   1 H    1.026 --    97 C    0.995
   117   6 C    3.755 --   118 C    2.594    22 C    1.226
   118   6 C    3.755 --   117 C    2.594    80 C    1.226
 ---------------------------------------------------------------------------

Topologies differ in total number of bonds
Writing topology from bond orders to xtbtopo.mol

 dipole moment from electron density (au)
     X       Y       Z   
 -44.6170   0.0009   0.0485  total (Debye):  113.405


           -------------------------------------------------
          | TOTAL ENERGY             -242.943035054571 Eh   |
          | GRADIENT NORM               0.090387248704 Eh/α |
          | HOMO-LUMO GAP               0.015114431348 eV   |
           -------------------------------------------------
########################################################################
[WARNING] Runtime exception occurred
-1- restart_readRestart: Dimension missmatch in restart file.
########################################################################

------------------------------------------------------------------------
 * finished run on 2022/07/30 at 14:12:29.895     
------------------------------------------------------------------------
 total:
 * wall-time:     0 d,  0 h,  0 min,  5.639 sec
 *  cpu-time:     0 d,  0 h,  0 min,  5.612 sec
 * ratio c/w:     0.995 speedup
 SCF:
 * wall-time:     0 d,  0 h,  0 min,  5.372 sec
 *  cpu-time:     0 d,  0 h,  0 min,  5.347 sec
 * ratio c/w:     0.995 speedup

