      -----------------------------------------------------------      
     |                   =====================                   |     
     |                           x T B                           |     
     |                   =====================                   |     
     |                         S. Grimme                         |     
     |          Mulliken Center for Theoretical Chemistry        |     
     |                    University of Bonn                     |     
      -----------------------------------------------------------      

   * xtb version 6.5.1 (b24c23e) compiled by 'conda@728c89f4b128' on 2022-07-12

   xtb is free software: you can redistribute it and/or modify it under
   the terms of the GNU Lesser General Public License as published by
   the Free Software Foundation, either version 3 of the License, or
   (at your option) any later version.
   
   xtb is distributed in the hope that it will be useful,
   but WITHOUT ANY WARRANTY; without even the implied warranty of
   MERCHANTABILITY or FITNESS FOR A PARTICULAR PURPOSE.  See the
   GNU Lesser General Public License for more details.
   
   Cite this work as:
   * C. Bannwarth, E. Caldeweyher, S. Ehlert, A. Hansen, P. Pracht,
     J. Seibert, S. Spicher, S. Grimme, WIREs Comput. Mol. Sci., 2020, 11,
     e01493. DOI: 10.1002/wcms.1493
   
   for GFN2-xTB:
   * C. Bannwarth, S. Ehlert and S. Grimme., J. Chem. Theory Comput., 2019,
     15, 1652-1671. DOI: 10.1021/acs.jctc.8b01176
   for GFN1-xTB:
   * S. Grimme, C. Bannwarth, P. Shushkov, J. Chem. Theory Comput., 2017,
     13, 1989-2009. DOI: 10.1021/acs.jctc.7b00118
   for GFN0-xTB:
   * P. Pracht, E. Caldeweyher, S. Ehlert, S. Grimme, ChemRxiv, 2019, preprint.
     DOI: 10.26434/chemrxiv.8326202.v1
   for GFN-FF:
   * S. Spicher and S. Grimme, Angew. Chem. Int. Ed., 2020, 59, 15665-15673.
     DOI: 10.1002/anie.202004239
   
   for ALPB and GBSA implicit solvation:
   * S. Ehlert, M. Stahn, S. Spicher, S. Grimme, J. Chem. Theory Comput.,
     2021, 17, 4250-4261. DOI: 10.1021/acs.jctc.1c00471
   
   for DFT-D4:
   * E. Caldeweyher, C. Bannwarth and S. Grimme, J. Chem. Phys., 2017,
     147, 034112. DOI: 10.1063/1.4993215
   * E. Caldeweyher, S. Ehlert, A. Hansen, H. Neugebauer, S. Spicher,
     C. Bannwarth and S. Grimme, J. Chem. Phys., 2019, 150, 154122.
     DOI: 10.1063/1.5090222
   * E. Caldeweyher, J.-M. Mewes, S. Ehlert and S. Grimme, Phys. Chem. Chem. Phys.
     2020, 22, 8499-8512. DOI: 10.1039/D0CP00502A
   
   for sTDA-xTB:
   * S. Grimme and C. Bannwarth, J. Chem. Phys., 2016, 145, 054103.
     DOI: 10.1063/1.4959605
   
   in the mass-spec context:
   * V. Asgeirsson, C. Bauer and S. Grimme, Chem. Sci., 2017, 8, 4879.
     DOI: 10.1039/c7sc00601b
   * J. Koopman and S. Grimme, ACS Omega 2019, 4, 12, 15120-15133.
     DOI: 10.1021/acsomega.9b02011
   
   for metadynamics refer to:
   * S. Grimme, J. Chem. Theory Comput., 2019, 155, 2847-2862
     DOI: 10.1021/acs.jctc.9b00143
   
   for SPH calculations refer to:
   * S. Spicher and S. Grimme, J. Chem. Theory Comput., 2021, 17, 1701-1714
     DOI: 10.1021/acs.jctc.0c01306
   
   with help from (in alphabetical order)
   P. Atkinson, C. Bannwarth, F. Bohle, G. Brandenburg, E. Caldeweyher
   M. Checinski, S. Dohm, S. Ehlert, S. Ehrlich, I. Gerasimov, C. Hölzer
   A. Katbashev, J. Koopman, C. Lavigne, S. Lehtola, F. März, M. Müller,
   F. Musil, H. Neugebauer, J. Pisarek, C. Plett, P. Pracht, F. Pultar,
   J. Seibert, P. Shushkov, S. Spicher, M. Stahn, M. Steiner, T. Strunk,
   J. Stückrath, T. Rose, and J. Unsleber
   
 * started run on 2022/07/30 at 02:21:43.149     

           -------------------------------------------------
          |                Calculation Setup                |
           -------------------------------------------------

          program call               : xtb Co_PhNO2_C8_4.xyz --gfn 1 --opt -T 48
          hostname                   : cx3-15-11.cx3.hpc.ic.ac.uk
          coordinate file            : Co_PhNO2_C8_4.xyz
          omp threads                :                     1

   ID    Z sym.   atoms
    1   27 Co     1, 61, 145, 204
    2    6 C      2-6, 8-12, 16-20, 22-27, 29-33, 37-42, 62-66, 68-72, 76-80,
                  82-87, 89-93, 97-102, 121-144, 146-150, 152-156, 160-164,
                  166-171, 173-177, 181-186, 205-209, 211-215, 219-223,
                  225-230, 232-236, 240-245
    3    7 N      7, 13, 21, 28, 34, 43, 67, 73, 81, 88, 94, 103, 151, 157,
                  165, 172, 178, 187, 210, 216, 224, 231, 237, 246
    4    8 O      14, 15, 35, 36, 74, 75, 95, 96, 158, 159, 179, 180, 217,
                  218, 238, 239
    5    1 H      44-60, 104-120, 188-203, 247-262

molecular fragmentation (1/2 indicates fragments):
111111111111111111111111111111111111111111111111111111111111222222222222
222222222222222222222222222222222222222222222222222222222222222222222222
222222222222222222222222222222222222222222222222222222222222222222222222
2222222222222222222222222222222222222222222222
# atoms in fragment 1/2:    60   202
 fragment masses (1/2) :      608.45     2111.59
CMA distance (Bohr)    :  67.915
constraining FC (au)   :  0.0500
########################################################################
[WARNING] Please study the warnings concerning your input carefully
-1- prog_main_parseArguments: Unknown option '-T' provided
########################################################################

           -------------------------------------------------
          |                 G F N 1 - x T B                 |
           -------------------------------------------------

        Reference                      10.1021/acs.jctc.7b00118
      * Hamiltonian:
        H0-scaling (s, p, d)           1.850000    2.250000    2.000000
        zeta-weighting                 0.000000
      * Dispersion:
        s8                             2.400000
        a1                             0.630000
        a2                             5.000000
        s9                             0.000000
      * Repulsion:
        kExp                           1.500000
        rExp                           1.000000
      * Coulomb:
        alpha                          2.000000
        third order                    atomic
        anisotropic                    false
      * Halogen bond correction:
        rad-scale                      1.300000
        damping                        0.440000


          ...................................................
          :                      SETUP                      :
          :.................................................:
          :  # basis functions                 940          :
          :  # atomic orbitals                 936          :
          :  # shells                          528          :
          :  # electrons                       926          :
          :  # halogen bonds                     0          :
          :  max. iterations                   250          :
          :  Hamiltonian                  GFN1-xTB          :
          :  restarted?                      false          :
          :  GBSA solvation                  false          :
          :  PC potential                    false          :
          :  electronic temp.          300.0000000     K    :
          :  accuracy                    1.0000000          :
          :  -> integral cutoff          0.2500000E+02      :
          :  -> integral neglect         0.1000000E-07      :
          :  -> SCF convergence          0.1000000E-05 Eh   :
          :  -> wf. convergence          0.2000000E-04 e    :
          :  Broyden damping             0.4000000          :
          ...................................................

 iter      E             dE          RMSdq      gap      omega  full diag
   1   -523.7087749 -0.523709E+03  0.112E+01    0.13       0.0  T
   2   -448.7701686  0.749386E+02  0.119E+01    0.18       1.0  T
   3   -423.1480661  0.256221E+02  0.978E+00    0.11       1.0  T
   4   1694.4513987  0.211760E+04  0.167E+01    0.01       1.0  T
   5   3782.0935091  0.208764E+04  0.211E+01    0.04       1.0  T
   6    968.5436025 -0.281355E+04  0.149E+01    0.07       1.0  T
   7   1095.8095467  0.127266E+03  0.151E+01    0.02       1.0  T
   8   -400.6427562 -0.149645E+04  0.781E+00    0.03       1.0  T
   9   -417.8554247 -0.172127E+02  0.640E+00    0.04       1.0  T
  10   -341.0767546  0.767787E+02  0.735E+00    0.04       1.0  T
  11   -402.6969510 -0.616202E+02  0.593E+00    0.00       1.0  T
  12   -432.3432995 -0.296463E+02  0.571E+00    0.04       1.0  T
  13   -415.3468938  0.169964E+02  0.580E+00    0.11       1.0  T
  14   -404.0135640  0.113333E+02  0.584E+00    0.04       1.0  T
  15   -438.7011677 -0.346876E+02  0.496E+00    0.05       1.0  T
  16   -438.8913332 -0.190165E+00  0.453E+00    0.00       1.0  T
  17   -438.1704505  0.720883E+00  0.459E+00    0.02       1.0  T
  18   -443.5969519 -0.542650E+01  0.438E+00    0.02       1.0  T
  19   -471.2632031 -0.276663E+02  0.375E+00    0.06       1.0  T
  20   -503.2100137 -0.319468E+02  0.289E+00    0.03       1.0  T
  21   -509.3801834 -0.617017E+01  0.294E+00    0.08       1.0  T
  22   -522.1910765 -0.128109E+02  0.221E+00    0.08       1.0  T
  23   -524.0732656 -0.188219E+01  0.209E+00    0.01       1.0  T
  24   -525.4399409 -0.136668E+01  0.205E+00    0.04       1.0  T
  25   -525.2455787  0.194362E+00  0.225E+00    0.08       1.0  T
  26   -525.2297283  0.158504E-01  0.226E+00    0.08       1.0  T
  27   -525.1227267  0.107002E+00  0.242E+00    0.05       1.0  T
  28   -525.1656473 -0.429207E-01  0.241E+00    0.04       1.0  T
  29   -525.2225450 -0.568976E-01  0.242E+00    0.06       1.0  T
  30   -525.4844347 -0.261890E+00  0.236E+00    0.06       1.0  T
  31   -525.8455700 -0.361135E+00  0.223E+00    0.03       1.0  T
  32   -525.2272972  0.618273E+00  0.235E+00    0.05       1.0  T
  33   -524.3742660  0.853031E+00  0.251E+00    0.05       1.0  T
  34   -524.3738146  0.451346E-03  0.251E+00    0.05       1.0  T
  35   -524.7249903 -0.351176E+00  0.234E+00    0.01       1.0  T
  36   -525.0543041 -0.329314E+00  0.229E+00    0.01       1.0  T
  37   -524.1192913  0.935013E+00  0.241E+00    0.02       1.0  T
  38   -524.0881037  0.311877E-01  0.226E+00    0.04       1.0  T
  39   -519.5434540  0.454465E+01  0.244E+00    0.01       1.0  T
  40   -519.7250345 -0.181580E+00  0.242E+00    0.01       1.0  T
  41   -519.8076262 -0.825916E-01  0.241E+00    0.02       1.0  T
  42   -518.3192183  0.148841E+01  0.217E+00    0.03       1.0  T
  43   -518.4988626 -0.179644E+00  0.218E+00    0.14       1.0  T
  44   -515.9991794  0.249968E+01  0.265E+00    0.01       1.0  T
  45   -516.0975057 -0.983262E-01  0.263E+00    0.05       1.0  T
  46   -515.6398279  0.457678E+00  0.254E+00    0.02       1.0  T
  47   -515.9815557 -0.341728E+00  0.253E+00    0.06       1.0  T
  48   -517.0718723 -0.109032E+01  0.229E+00    0.08       1.0  T
  49   -518.3834591 -0.131159E+01  0.231E+00    0.04       1.0  T
  50   -521.0822815 -0.269882E+01  0.194E+00    0.00       1.0  T
  51   -518.9937148  0.208857E+01  0.213E+00    0.02       1.0  T
  52   -519.7730740 -0.779359E+00  0.205E+00    0.02       1.0  T
  53   -520.1209264 -0.347852E+00  0.201E+00    0.03       1.0  T
  54   -521.2801186 -0.115919E+01  0.187E+00    0.02       1.0  T
  55   -522.8625877 -0.158247E+01  0.174E+00    0.00       1.0  T
  56   -523.0303325 -0.167745E+00  0.172E+00    0.01       1.0  T
  57   -521.8165491  0.121378E+01  0.172E+00    0.03       1.0  T
  58   -522.3652183 -0.548669E+00  0.175E+00    0.08       1.0  T
  59   -524.0803767 -0.171516E+01  0.178E+00    0.02       1.0  T
  60   -525.7723045 -0.169193E+01  0.128E+00    0.01       1.0  T
  61   -526.0977945 -0.325490E+00  0.139E+00    0.01       1.0  T
  62   -527.0912145 -0.993420E+00  0.117E+00    0.02       1.0  T
  63   -527.2060663 -0.114852E+00  0.117E+00    0.04       1.0  T
  64   -526.7534831  0.452583E+00  0.130E+00    0.03       1.0  T
  65   -526.6221424  0.131341E+00  0.111E+00    0.06       1.0  T
  66   -526.6650296 -0.428872E-01  0.105E+00    0.05       1.0  T
  67   -526.6515489  0.134807E-01  0.137E+00    0.03       1.0  T
  68   -526.4912554  0.160294E+00  0.151E+00    0.04       1.0  T
  69   -526.9397120 -0.448457E+00  0.127E+00    0.08       1.0  T
  70   -526.1378554  0.801857E+00  0.159E+00    0.05       1.0  T
  71   -526.5477834 -0.409928E+00  0.138E+00    0.03       1.0  T
  72   -527.0111839 -0.463400E+00  0.110E+00    0.03       1.0  T
  73   -527.5381556 -0.526972E+00  0.823E-01    0.02       1.0  T
  74   -526.2963088  0.124185E+01  0.148E+00    0.07       1.0  T
  75   -527.5717521 -0.127544E+01  0.819E-01    0.02       1.0  T
  76   -527.4916274  0.801247E-01  0.954E-01    0.02       1.0  T
  77   -527.7635995 -0.271972E+00  0.654E-01    0.02       1.0  T
  78   -527.7644107 -0.811256E-03  0.657E-01    0.02       1.0  T
  79   -527.7505603  0.138504E-01  0.717E-01    0.01       1.0  T
  80   -527.7921876 -0.416273E-01  0.704E-01    0.01       1.0  T
  81   -527.7721375  0.200501E-01  0.732E-01    0.02       1.0  T
  82   -527.6366009  0.135537E+00  0.892E-01    0.04       1.0  T
  83   -527.7621007 -0.125500E+00  0.755E-01    0.01       1.0  T
  84   -527.9705086 -0.208408E+00  0.440E-01    0.02       1.0  T
  85   -527.8985091  0.719996E-01  0.542E-01    0.01       1.0  T
  86   -527.9044014 -0.589231E-02  0.503E-01    0.02       1.0  T
  87   -528.0298378 -0.125436E+00  0.290E-01    0.02       1.0  T
  88   -528.0606002 -0.307623E-01  0.197E-01    0.00       1.0  T
  89   -528.0340787  0.265214E-01  0.298E-01    0.01       1.0  T
  90   -528.0419385 -0.785982E-02  0.274E-01    0.02       1.0  T
  91   -528.0083647  0.335739E-01  0.360E-01    0.01       1.0  T
  92   -527.9680379  0.403267E-01  0.420E-01    0.02       1.0  T
  93   -527.9849553 -0.169174E-01  0.393E-01    0.01       1.0  T
  94   -528.0219290 -0.369736E-01  0.311E-01    0.00       1.0  T
  95   -528.0516338 -0.297049E-01  0.229E-01    0.00       1.0  T
  96   -528.0493201  0.231375E-02  0.236E-01    0.00       1.0  T
  97   -528.0411425  0.817761E-02  0.255E-01    0.02       1.0  T
  98   -528.0566784 -0.155359E-01  0.204E-01    0.01       1.0  T
  99   -528.0819178 -0.252394E-01  0.919E-02    0.00       1.0  T
 100   -528.0803052  0.161259E-02  0.103E-01    0.01       1.0  T
 101   -528.0746055  0.569970E-02  0.132E-01    0.01       1.0  T
 102   -528.0761557 -0.155016E-02  0.123E-01    0.01       1.0  T
 103   -528.0826606 -0.650495E-02  0.856E-02    0.00       1.0  T
 104   -528.0840005 -0.133989E-02  0.620E-02    0.00       1.0  T
 105   -528.0843419 -0.341431E-03  0.635E-02    0.00       1.0  T
 106   -528.0851778 -0.835875E-03  0.481E-02    0.00       1.0  T
 107   -528.0847432  0.434637E-03  0.554E-02    0.00       1.0  T
 108   -528.0851396 -0.396445E-03  0.475E-02    0.00       1.0  T
 109   -528.0847916  0.347973E-03  0.519E-02    0.00       1.0  T
 110   -528.0855280 -0.736330E-03  0.398E-02    0.00       1.0  T
 111   -528.0857761 -0.248084E-03  0.336E-02    0.00       1.0  T
 112   -528.0861038 -0.327758E-03  0.253E-02    0.00       1.0  T
 113   -528.0862090 -0.105181E-03  0.232E-02    0.00       1.0  T
 114   -528.0862293 -0.202814E-04  0.231E-02    0.00       1.0  T
 115   -528.0861847  0.445318E-04  0.244E-02    0.00       1.0  T
 116   -528.0860951  0.896117E-04  0.270E-02    0.00       1.0  T
 117   -528.0858398  0.255369E-03  0.334E-02    0.00       1.0  T
 118   -528.0860681 -0.228332E-03  0.278E-02    0.00       1.0  T
 119   -528.0863698 -0.301666E-03  0.173E-02    0.00       1.0  T
 120   -528.0863583  0.115066E-04  0.177E-02    0.00       1.0  T
 121   -528.0864455 -0.872509E-04  0.132E-02    0.00       1.0  T
 122   -528.0864972 -0.516955E-04  0.960E-03    0.00       1.0  T
 123   -528.0865240 -0.267575E-04  0.674E-03    0.00       1.0  T
 124   -528.0865270 -0.308507E-05  0.518E-03    0.00       1.2  T
 125   -528.0865378 -0.107904E-04  0.408E-03    0.00       1.5  T
 126   -528.0865410 -0.318219E-05  0.343E-03    0.00       1.8  T
 127   -528.0865409  0.135896E-06  0.413E-03    0.00       1.5  T
 128   -528.0865405  0.333143E-06  0.422E-03    0.00       1.5  T
 129   -528.0865437 -0.315637E-05  0.316E-03    0.00       2.0  T
 130   -528.0865435  0.178810E-06  0.323E-03    0.00       1.9  T
 131   -528.0865444 -0.869828E-06  0.289E-03    0.00       2.1  T
 132   -528.0865438  0.577605E-06  0.300E-03    0.00       2.1  T
 133   -528.0865418  0.203289E-05  0.346E-03    0.00       1.8  T
 134   -528.0865434 -0.162005E-05  0.300E-03    0.00       2.1  T
 135   -528.0865454 -0.198576E-05  0.231E-03    0.00       2.7  T
 136   -528.0865452  0.222445E-06  0.230E-03    0.00       2.7  T
 137   -528.0865478 -0.264276E-05  0.996E-04    0.00       6.2  T
 138   -528.0865479 -0.119040E-06  0.882E-04    0.00       7.0  T
 139   -528.0865478  0.106261E-06  0.955E-04    0.00       6.5  T
 140   -528.0865480 -0.158972E-06  0.835E-04    0.00       7.4  T
 141   -528.0865480 -0.134860E-07  0.825E-04    0.00       7.5  T
 142   -528.0865480 -0.345565E-07  0.782E-04    0.00       7.9  T
 143   -528.0865480 -0.179090E-07  0.764E-04    0.00       8.1  T
 144   -528.0865481 -0.520855E-07  0.687E-04    0.00       9.0  T
 145   -528.0865483 -0.237455E-06  0.254E-04    0.00      24.3  T
 146   -528.0865483  0.164314E-07  0.265E-04    0.00      23.3  T
 147   -528.0865483 -0.297158E-07  0.190E-04    0.00      32.6  T
 148   -528.0865484 -0.136815E-07  0.112E-04    0.00      55.3  T

   *** convergence criteria satisfied after 148 iterations ***

         #    Occupation            Energy/Eh            Energy/eV
      -------------------------------------------------------------
         1        2.0000           -0.9027737             -24.5657
       ...           ...                  ...                  ...
       457        1.9955           -0.4051139             -11.0237
       458        1.8986           -0.4021019             -10.9417
       459        1.8382           -0.4016276             -10.9288
       460        1.8052           -0.4014339             -10.9236
       461        1.7054           -0.4009871             -10.9114
       462        1.5553           -0.4005084             -10.8984
       463        1.4200           -0.4001695             -10.8892 (HOMO)
       464        1.4054           -0.4001360             -10.8883 (LUMO)
       465        0.3675           -0.3979023             -10.8275
       466        0.0093           -0.3942229             -10.7274
       467        0.0000           -0.3872872             -10.5386
       468        0.0000           -0.3867337             -10.5236
       ...           ...                  ...                  ...
       936                          5.8701650             159.7353
      -------------------------------------------------------------
                  HL-Gap            0.0000335 Eh            0.0009 eV
             Fermi-level           -0.3993189 Eh          -10.8660 eV

 SCC (total)                   0 d,  0 h,  0 min, 53.363 sec
 SCC setup                      ...        0 min,  0.021 sec (  0.040%)
 Dispersion                     ...        0 min,  0.012 sec (  0.023%)
 classical contributions        ...        0 min,  0.003 sec (  0.006%)
 integral evaluation            ...        0 min,  0.359 sec (  0.673%)
 iterations                     ...        0 min, 52.165 sec ( 97.755%)
 molecular gradient             ...        0 min,  0.730 sec (  1.367%)
 printout                       ...        0 min,  0.072 sec (  0.135%)

         :::::::::::::::::::::::::::::::::::::::::::::::::::::
         ::                     SUMMARY                     ::
         :::::::::::::::::::::::::::::::::::::::::::::::::::::
         :: total energy            -518.453286675038 Eh    ::
         :: gradient norm              4.346990624857 Eh/a0 ::
         :: HOMO-LUMO gap              0.000911780888 eV    ::
         ::.................................................::
         :: SCC energy              -528.086548362119 Eh    ::
         :: -> electrostatic           0.985535295641 Eh    ::
         :: repulsion energy           9.863998033707 Eh    ::
         :: dispersion energy         -0.230736346627 Eh    ::
         :: halogen bond corr.         0.000000000000 Eh    ::
         :: add. restraining           0.000000000000 Eh    ::
         :: total charge               0.000000000000 e     ::
         :::::::::::::::::::::::::::::::::::::::::::::::::::::

      ----------------------------------------------------------- 
     |                   =====================                   |
     |                        A N C O P T                        |
     |                   =====================                   |
     |               Approximate Normal Coordinate               |
     |                Rational Function Optimizer                |
      ----------------------------------------------------------- 

          ...................................................
          :                      SETUP                      :
          :.................................................:
          :   optimization level            normal          :
          :   max. optcycles                   786          :
          :   ANC micro-cycles                  20          :
          :   degrees of freedom               780          :
          :.................................................:
          :   RF solver                   davidson          :
          :   write xtbopt.log                true          :
          :   linear?                        false          :
          :   energy convergence         0.5000000E-05 Eh   :
          :   grad. convergence          0.1000000E-02 Eh/α :
          :   maximium RF displ.         1.0000000          :
          :   Hlow (freq-cutoff)         0.1000000E-01      :
          :   Hmax (freq-cutoff)         5.0000000          :
          :   S6 in model hess.         20.0000000          :
          ...................................................

generating ANC from model Hessian ...
Using Lindh-Hessian (1995)
 Shifting diagonal of input Hessian by    1.0087899865682540E-002
 Lowest  eigenvalues of input Hessian
    0.010000    0.010044    0.010068    0.010071    0.010072    0.010074
    0.010077    0.010079    0.010081    0.010083    0.010084    0.000000
    0.000000    0.000000    0.000000    0.000000    0.000000    0.010090
 Highest eigenvalues
    3.488712    3.488717    4.198817    4.198827    4.269035    4.269038


........................................................................
.............................. CYCLE    1 ..............................
........................................................................
   1   -528.0865484 -0.528087E+03  0.141E-04    0.00       0.0  T
   2   -528.0864827  0.656351E-04  0.966E-03    0.00       1.0  T
   3   -528.0865474 -0.646737E-04  0.118E-03    0.00       5.2  T
   4   -528.0865456  0.176100E-05  0.199E-03    0.00       3.1  T
   5   -528.0865479 -0.222944E-05  0.856E-04    0.00       7.2  T
   6   -528.0865471  0.718040E-06  0.136E-03    0.00       4.5  T
   7   -528.0865473 -0.153872E-06  0.116E-03    0.00       5.3  T
   8   -528.0865482 -0.874677E-06  0.514E-04    0.00      12.0  T
   9   -528.0865484 -0.180090E-06  0.159E-04    0.00      38.8  T
  10   -528.0865483  0.731769E-07  0.340E-04    0.00      18.2  T
  11   -528.0865484 -0.809482E-07  0.111E-04    0.00      55.6  T
     SCC iter.                  ...        0 min,  4.059 sec
     gradient                   ...        0 min,  0.727 sec
 * total energy  :  -518.4532867 Eh     change        0.1320132E-08 Eh
   gradient norm :     4.3469900 Eh/α   predicted     0.0000000E+00 (-100.00%)
   displ. norm   :     0.6773254 α      lambda       -0.2886519E+01
   maximum displ.:     0.3788568 α      in ANC's #779, #780, #768, ...

........................................................................
.............................. CYCLE    2 ..............................
........................................................................
   1   -527.9763439 -0.527976E+03  0.609E-01    0.01       0.0  T
   2   -508.6044037  0.193719E+02  0.456E+00    0.05       1.0  T
   3   -527.1780371 -0.185736E+02  0.135E+00    0.07       1.0  T
   4   -527.2456095 -0.675723E-01  0.113E+00    0.06       1.0  T
   5   -525.8142307  0.143138E+01  0.179E+00    0.15       1.0  T
   6   -525.9730994 -0.158869E+00  0.162E+00    0.20       1.0  T
   7   -527.2774763 -0.130438E+01  0.115E+00    0.12       1.0  T
   8   -527.5626139 -0.285138E+00  0.945E-01    0.07       1.0  T
   9   -527.7746861 -0.212072E+00  0.765E-01    0.01       1.0  T
  10   -527.8175325 -0.428464E-01  0.713E-01    0.03       1.0  T
  11   -527.8658463 -0.483138E-01  0.677E-01    0.06       1.0  T
  12   -527.4969192  0.368927E+00  0.938E-01    0.02       1.0  T
  13   -527.7600165 -0.263097E+00  0.763E-01    0.06       1.0  T
  14   -527.8606776 -0.100661E+00  0.686E-01    0.02       1.0  T
  15   -527.9686610 -0.107983E+00  0.542E-01    0.01       1.0  T
  16   -528.0385116 -0.698506E-01  0.436E-01    0.04       1.0  T
  17   -528.1363484 -0.978369E-01  0.248E-01    0.01       1.0  T
  18   -528.1657019 -0.293535E-01  0.151E-01    0.02       1.0  T
  19   -528.1743400 -0.863812E-02  0.927E-02    0.01       1.0  T
  20   -528.1736020  0.738060E-03  0.968E-02    0.00       1.0  T
  21   -528.1760893 -0.248736E-02  0.757E-02    0.00       1.0  T
  22   -528.1794570 -0.336770E-02  0.248E-02    0.00       1.0  T
  23   -528.1792381  0.218965E-03  0.299E-02    0.00       1.0  T
  24   -528.1796691 -0.430998E-03  0.159E-02    0.00       1.0  T
  25   -528.1798104 -0.141347E-03  0.742E-03    0.00       1.0  T
  26   -528.1798472 -0.368198E-04  0.163E-03    0.00       3.8  T
  27   -528.1798484 -0.111540E-05  0.794E-04    0.00       7.8  T
  28   -528.1798479  0.463834E-06  0.122E-03    0.00       5.1  T
  29   -528.1798485 -0.609004E-06  0.748E-04    0.00       8.3  T
  30   -528.1798488 -0.341918E-06  0.239E-04    0.00      25.8  T
  31   -528.1798489 -0.185595E-07  0.166E-04    0.00      37.3  T
  32   -528.1798489 -0.175493E-07  0.548E-05    0.00     112.8  T
     SCC iter.                  ...        0 min, 11.774 sec
     gradient                   ...        0 min,  0.727 sec
 * total energy  :  -520.0201292 Eh     change       -0.1566843E+01 Eh
   gradient norm :     1.2546326 Eh/α   predicted    -0.2105587E+01 (  34.38%)
   displ. norm   :     0.5695732 α      lambda       -0.6190445E+00
   maximum displ.:     0.1322825 α      in ANC's #214, #768, #767, ...

........................................................................
.............................. CYCLE    3 ..............................
........................................................................
   1   -528.3140460 -0.528314E+03  0.348E-01    0.01       0.0  T
   2   -527.2807994  0.103325E+01  0.124E+00    0.11       1.0  T
   3   -526.8653523  0.415447E+00  0.143E+00    0.15       1.0  T
   4   -527.4500005 -0.584648E+00  0.114E+00    0.03       1.0  T
   5   -526.1577092  0.129229E+01  0.172E+00    0.12       1.0  T
   6   -528.0142961 -0.185659E+01  0.699E-01    0.02       1.0  T
   7   -527.5243857  0.489910E+00  0.106E+00    0.04       1.0  T
   8   -527.4928663  0.315194E-01  0.108E+00    0.02       1.0  T
   9   -527.5054237 -0.125574E-01  0.112E+00    0.07       1.0  T
  10   -527.7251333 -0.219710E+00  0.943E-01    0.08       1.0  T
  11   -527.8018516 -0.767183E-01  0.873E-01    0.02       1.0  T
  12   -527.9679565 -0.166105E+00  0.762E-01    0.03       1.0  T
  13   -527.8566557  0.111301E+00  0.846E-01    0.04       1.0  T
  14   -528.1576713 -0.301016E+00  0.539E-01    0.03       1.0  T
  15   -528.1628424 -0.517106E-02  0.549E-01    0.06       1.0  T
  16   -528.2774386 -0.114596E+00  0.383E-01    0.04       1.0  T
  17   -528.2886030 -0.111643E-01  0.349E-01    0.00       1.0  T
  18   -528.3499553 -0.613524E-01  0.178E-01    0.01       1.0  T
  19   -528.3647520 -0.147967E-01  0.106E-01    0.01       1.0  T
  20   -528.3707867 -0.603472E-02  0.474E-02    0.01       1.0  T
  21   -528.3713247 -0.537988E-03  0.389E-02    0.00       1.0  T
  22   -528.3719375 -0.612784E-03  0.257E-02    0.00       1.0  T
  23   -528.3721775 -0.240034E-03  0.171E-02    0.00       1.0  T
  24   -528.3723461 -0.168541E-03  0.777E-03    0.00       1.0  T
  25   -528.3723606 -0.145235E-04  0.603E-03    0.00       1.0  T
  26   -528.3723834 -0.227784E-04  0.908E-04    0.00       6.8  T
  27   -528.3723810  0.237169E-05  0.213E-03    0.00       2.9  T
  28   -528.3723820 -0.100957E-05  0.169E-03    0.00       3.6  T
  29   -528.3723836 -0.154929E-05  0.708E-04    0.00       8.7  T
  30   -528.3723835  0.107659E-06  0.808E-04    0.00       7.6  T
  31   -528.3723838 -0.340951E-06  0.344E-04    0.00      18.0  T
  32   -528.3723839 -0.695632E-07  0.767E-05    0.00      80.6  T
  33   -528.3723839  0.193609E-09  0.777E-05    0.00      79.5  T
     SCC iter.                  ...        0 min, 13.074 sec
     gradient                   ...        0 min,  0.722 sec
 * total energy  :  -520.4819153 Eh     change       -0.4617861E+00 Eh
   gradient norm :     0.6392036 Eh/α   predicted    -0.4099358E+00 ( -11.23%)
   displ. norm   :     0.6338533 α      lambda       -0.3306049E+00
   maximum displ.:     0.2536741 α      in ANC's #214, #544, #535, ...

........................................................................
.............................. CYCLE    4 ..............................
........................................................................
   1   -528.5397195 -0.528540E+03  0.351E-01    0.01       0.0  T
   2   -527.8447473  0.694972E+00  0.114E+00    0.08       1.0  T
   3   -527.7326156  0.112132E+00  0.109E+00    0.05       1.0  T
   4   -527.8221012 -0.894856E-01  0.108E+00    0.02       1.0  T
   5   -526.8904471  0.931654E+00  0.163E+00    0.03       1.0  T
   6   -526.6544190  0.236028E+00  0.161E+00    0.08       1.0  T
   7   -528.0709978 -0.141658E+01  0.840E-01    0.08       1.0  T
   8   -528.3187886 -0.247791E+00  0.622E-01    0.01       1.0  T
   9   -528.3614196 -0.426310E-01  0.574E-01    0.02       1.0  T
  10   -528.5378069 -0.176387E+00  0.287E-01    0.00       1.0  T
  11   -528.4928296  0.449773E-01  0.381E-01    0.02       1.0  T
  12   -528.5241934 -0.313638E-01  0.316E-01    0.01       1.0  T
  13   -528.5725699 -0.483765E-01  0.192E-01    0.01       1.0  T
  14   -528.5848024 -0.122325E-01  0.130E-01    0.00       1.0  T
  15   -528.5813746  0.342782E-02  0.147E-01    0.00       1.0  T
  16   -528.5952716 -0.138970E-01  0.409E-02    0.00       1.0  T
  17   -528.5958143 -0.542655E-03  0.307E-02    0.00       1.0  T
  18   -528.5958672 -0.529376E-04  0.287E-02    0.00       1.0  T
  19   -528.5963022 -0.434992E-03  0.145E-02    0.00       1.0  T
  20   -528.5964131 -0.110852E-03  0.675E-03    0.00       1.0  T
  21   -528.5963951  0.180107E-04  0.837E-03    0.00       1.0  T
  22   -528.5964117 -0.166104E-04  0.710E-03    0.00       1.0  T
  23   -528.5964283 -0.166008E-04  0.493E-03    0.00       1.3  T
  24   -528.5964396 -0.113684E-04  0.265E-03    0.00       2.3  T
  25   -528.5964424 -0.275656E-05  0.177E-03    0.00       3.5  T
  26   -528.5964442 -0.176990E-05  0.686E-04    0.00       9.0  T
  27   -528.5964443 -0.172911E-06  0.455E-04    0.00      13.6  T
  28   -528.5964444 -0.106629E-06  0.228E-04    0.00      27.0  T
  29   -528.5964445 -0.286246E-07  0.880E-05    0.00      70.2  T
  30   -528.5964445 -0.356374E-08  0.479E-05    0.00     129.1  T
     SCC iter.                  ...        0 min, 11.707 sec
     gradient                   ...        0 min,  0.734 sec
 * total energy  :  -520.7103180 Eh     change       -0.2284027E+00 Eh
   gradient norm :     0.2836056 Eh/α   predicted    -0.2317161E+00 (   1.45%)
   displ. norm   :     0.7597240 α      lambda       -0.1480831E+00
   maximum displ.:     0.4431448 α      in ANC's #214, #152, #156, ...

........................................................................
.............................. CYCLE    5 ..............................
........................................................................
   1   -528.6302144 -0.528630E+03  0.211E-01    0.00       0.0  T
   2   -528.3670297  0.263185E+00  0.786E-01    0.01       1.0  T
   3   -528.0987432  0.268287E+00  0.876E-01    0.04       1.0  T
   4   -528.1771387 -0.783955E-01  0.803E-01    0.03       1.0  T
   5   -528.2187909 -0.416522E-01  0.790E-01    0.01       1.0  T
   6   -528.2883656 -0.695747E-01  0.737E-01    0.03       1.0  T
   7   -528.4669540 -0.178588E+00  0.494E-01    0.01       1.0  T
   8   -528.1790617  0.287892E+00  0.835E-01    0.02       1.0  T
   9   -528.1902127 -0.111511E-01  0.801E-01    0.02       1.0  T
  10   -528.4947844 -0.304572E+00  0.492E-01    0.00       1.0  T
  11   -528.6111383 -0.116354E+00  0.239E-01    0.00       1.0  T
  12   -528.6450399 -0.339016E-01  0.841E-02    0.00       1.0  T
  13   -528.6425687  0.247124E-02  0.107E-01    0.00       1.0  T
  14   -528.6491207 -0.655205E-02  0.330E-02    0.00       1.0  T
  15   -528.6495927 -0.472026E-03  0.192E-02    0.00       1.0  T
  16   -528.6497423 -0.149511E-03  0.108E-02    0.00       1.0  T
  17   -528.6497926 -0.503234E-04  0.641E-03    0.00       1.0  T
  18   -528.6498152 -0.226397E-04  0.210E-03    0.00       2.9  T
  19   -528.6498164 -0.119695E-05  0.167E-03    0.00       3.7  T
  20   -528.6498172 -0.744328E-06  0.133E-03    0.00       4.6  T
  21   -528.6498182 -0.100733E-05  0.482E-04    0.00      12.8  T
  22   -528.6498182 -0.301252E-07  0.411E-04    0.00      15.0  T
  23   -528.6498183 -0.112538E-06  0.834E-05    0.00      74.1  T
  24   -528.6498183  0.272803E-08  0.104E-04    0.00      59.2  T
     SCC iter.                  ...        0 min,  9.336 sec
     gradient                   ...        0 min,  0.733 sec
 * total energy  :  -520.8329461 Eh     change       -0.1226280E+00 Eh
   gradient norm :     0.1869791 Eh/α   predicted    -0.1167770E+00 (  -4.77%)
   displ. norm   :     0.8534407 α      lambda       -0.1206100E+00
   maximum displ.:     0.4482532 α      in ANC's #214, #152, #156, ...

........................................................................
.............................. CYCLE    6 ..............................
........................................................................
   1   -528.6376124 -0.528638E+03  0.224E-01    0.00       0.0  T
   2   -527.7240391  0.913573E+00  0.119E+00    0.14       1.0  T
   3   -528.0513848 -0.327346E+00  0.954E-01    0.03       1.0  T
   4   -527.9921470  0.592378E-01  0.976E-01    0.01       1.0  T
   5   -528.3439661 -0.351819E+00  0.697E-01    0.01       1.0  T
   6   -528.3522541 -0.828800E-02  0.676E-01    0.01       1.0  T
   7   -528.0050011  0.347253E+00  0.103E+00    0.10       1.0  T
   8   -528.5248985 -0.519897E+00  0.460E-01    0.02       1.0  T
   9   -528.6502414 -0.125343E+00  0.111E-01    0.01       1.0  T
  10   -528.4768903  0.173351E+00  0.518E-01    0.01       1.0  T
  11   -528.5718849 -0.949945E-01  0.356E-01    0.01       1.0  T
  12   -528.6121887 -0.403039E-01  0.268E-01    0.00       1.0  T
  13   -528.6479344 -0.357457E-01  0.134E-01    0.00       1.0  T
  14   -528.6556682 -0.773378E-02  0.768E-02    0.00       1.0  T
  15   -528.6550233  0.644936E-03  0.838E-02    0.00       1.0  T
  16   -528.6592851 -0.426178E-02  0.260E-02    0.00       1.0  T
  17   -528.6595831 -0.298089E-03  0.158E-02    0.00       1.0  T
  18   -528.6597467 -0.163542E-03  0.103E-03    0.00       6.0  T
  19   -528.6597441  0.263659E-05  0.225E-03    0.00       2.7  T
  20   -528.6597471 -0.300865E-05  0.695E-04    0.00       8.9  T
  21   -528.6597473 -0.262621E-06  0.265E-04    0.00      23.4  T
  22   -528.6597474 -0.437278E-07  0.555E-05    0.00     111.3  T
  23   -528.6597474  0.103469E-07  0.139E-04    0.00      44.6  T
     SCC iter.                  ...        0 min,  8.957 sec
     gradient                   ...        0 min,  0.738 sec
 * total energy  :  -520.9389596 Eh     change       -0.1060135E+00 Eh
   gradient norm :     0.1471820 Eh/α   predicted    -0.1042290E+00 (  -1.68%)
   displ. norm   :     0.8808840 α      lambda       -0.9888487E-01
   maximum displ.:     0.3905905 α      in ANC's #214, #152, #59, ...

........................................................................
.............................. CYCLE    7 ..............................
........................................................................
   1   -528.6471605 -0.528647E+03  0.216E-01    0.00       0.0  T
   2   -527.6546845  0.992476E+00  0.124E+00    0.07       1.0  T
   3   -528.2988951 -0.644211E+00  0.807E-01    0.03       1.0  T
   4   -528.3866599 -0.877648E-01  0.652E-01    0.03       1.0  T
   5   -528.6389400 -0.252280E+00  0.209E-01    0.01       1.0  T
   6   -528.0499786  0.588961E+00  0.924E-01    0.05       1.0  T
   7   -528.4716906 -0.421712E+00  0.527E-01    0.02       1.0  T
   8   -527.8996743  0.572016E+00  0.110E+00    0.12       1.0  T
   9   -527.9919150 -0.922407E-01  0.100E+00    0.06       1.0  T
  10   -528.5582909 -0.566376E+00  0.400E-01    0.02       1.0  T
  11   -528.6261784 -0.678876E-01  0.240E-01    0.02       1.0  T
  12   -528.6501739 -0.239954E-01  0.155E-01    0.01       1.0  T
  13   -528.6596485 -0.947459E-02  0.100E-01    0.01       1.0  T
  14   -528.6652677 -0.561925E-02  0.477E-02    0.00       1.0  T
  15   -528.6663396 -0.107186E-02  0.240E-02    0.00       1.0  T
  16   -528.6665732 -0.233595E-03  0.163E-02    0.00       1.0  T
  17   -528.6666917 -0.118505E-03  0.100E-02    0.00       1.0  T
  18   -528.6667569 -0.652446E-04  0.153E-03    0.00       4.0  T
  19   -528.6667578 -0.906506E-06  0.877E-04    0.00       7.0  T
  20   -528.6667566  0.124521E-05  0.161E-03    0.00       3.8  T
  21   -528.6667581 -0.153609E-05  0.553E-04    0.00      11.2  T
  22   -528.6667583 -0.167788E-06  0.226E-04    0.00      27.3  T
  23   -528.6667583 -0.197351E-07  0.150E-04    0.00      41.3  T
  24   -528.6667583 -0.115094E-07  0.798E-05    0.00      77.4  T
     SCC iter.                  ...        0 min,  9.335 sec
     gradient                   ...        0 min,  0.736 sec
 * total energy  :  -521.0200786 Eh     change       -0.8111901E-01 Eh
   gradient norm :     0.1067630 Eh/α   predicted    -0.8780775E-01 (   8.25%)
   displ. norm   :     0.8203187 α      lambda       -0.6381638E-01
   maximum displ.:     0.2896104 α      in ANC's #214, #152, #59, ...

........................................................................
.............................. CYCLE    8 ..............................
........................................................................
   1   -528.6693954 -0.528669E+03  0.147E-01    0.00       0.0  T
   2   -527.6470057  0.102239E+01  0.123E+00    0.05       1.0  T
   3   -528.2914870 -0.644481E+00  0.823E-01    0.06       1.0  T
   4   -528.4189693 -0.127482E+00  0.625E-01    0.02       1.0  T
   5   -528.3314894  0.874800E-01  0.700E-01    0.02       1.0  T
   6   -528.6416421 -0.310153E+00  0.231E-01    0.00       1.0  T
   7   -528.5330684  0.108574E+00  0.464E-01    0.02       1.0  T
   8   -528.2344620  0.298606E+00  0.813E-01    0.06       1.0  T
   9   -528.6431786 -0.408717E+00  0.228E-01    0.00       1.0  T
  10   -528.6478488 -0.467025E-02  0.208E-01    0.01       1.0  T
  11   -528.6592416 -0.113928E-01  0.165E-01    0.01       1.0  T
  12   -528.6746458 -0.154043E-01  0.781E-02    0.01       1.0  T
  13   -528.6787415 -0.409571E-02  0.198E-02    0.00       1.0  T
  14   -528.6788637 -0.122173E-03  0.151E-02    0.00       1.0  T
  15   -528.6789753 -0.111568E-03  0.763E-03    0.00       1.0  T
  16   -528.6790097 -0.344114E-04  0.246E-03    0.00       2.5  T
  17   -528.6790134 -0.374218E-05  0.736E-04    0.00       8.4  T
  18   -528.6790134  0.431716E-07  0.793E-04    0.00       7.8  T
  19   -528.6790138 -0.363170E-06  0.280E-04    0.00      22.0  T
  20   -528.6790138 -0.134831E-07  0.250E-04    0.00      24.7  T
  21   -528.6790138 -0.296008E-07  0.127E-04    0.00      48.5  T
  22   -528.6790138 -0.104970E-07  0.171E-05    0.00     360.5  T
     SCC iter.                  ...        0 min,  8.691 sec
     gradient                   ...        0 min,  0.736 sec
 * total energy  :  -521.0695066 Eh     change       -0.4942797E-01 Eh
   gradient norm :     0.1004066 Eh/α   predicted    -0.5337994E-01 (   8.00%)
   displ. norm   :     0.7652365 α      lambda       -0.4534933E-01
   maximum displ.:     0.2474675 α      in ANC's #60, #59, #152, ...

........................................................................
.............................. CYCLE    9 ..............................
........................................................................
   1   -528.7294342 -0.528729E+03  0.127E-01    0.00       0.0  T
   2   -528.4482124  0.281222E+00  0.778E-01    0.03       1.0  T
   3   -528.3800135  0.681989E-01  0.716E-01    0.02       1.0  T
   4   -528.2243741  0.155639E+00  0.853E-01    0.01       1.0  T
   5   -528.6835833 -0.459209E+00  0.276E-01    0.00       1.0  T
   6   -528.5204745  0.163109E+00  0.556E-01    0.01       1.0  T
   7   -528.6710239 -0.150549E+00  0.313E-01    0.01       1.0  T
   8   -528.6833949 -0.123710E-01  0.267E-01    0.01       1.0  T
   9   -528.6695740  0.138209E-01  0.303E-01    0.02       1.0  T
  10   -528.6561088  0.134652E-01  0.344E-01    0.00       1.0  T
  11   -528.7302944 -0.741856E-01  0.865E-02    0.01       1.0  T
  12   -528.7274925  0.280196E-02  0.110E-01    0.00       1.0  T
  13   -528.7351070 -0.761455E-02  0.253E-02    0.00       1.0  T
  14   -528.7354632 -0.356132E-03  0.124E-02    0.00       1.0  T
  15   -528.7355419 -0.787890E-04  0.685E-03    0.00       1.0  T
  16   -528.7355715 -0.295123E-04  0.214E-03    0.00       2.9  T
  17   -528.7355739 -0.242601E-05  0.986E-04    0.00       6.3  T
  18   -528.7355745 -0.576363E-06  0.322E-04    0.00      19.2  T
  19   -528.7355744  0.252294E-07  0.364E-04    0.00      17.0  T
  20   -528.7355745 -0.940203E-07  0.418E-05    0.00     147.9  T
  21   -528.7355745  0.175477E-07  0.161E-04    0.00      38.4  T
     SCC iter.                  ...        0 min,  8.113 sec
     gradient                   ...        0 min,  0.734 sec
 * total energy  :  -521.1060462 Eh     change       -0.3653968E-01 Eh
   gradient norm :     0.0742486 Eh/α   predicted    -0.3595267E-01 (  -1.61%)
   displ. norm   :     0.8179063 α      lambda       -0.3366858E-01
   maximum displ.:     0.3244846 α      in ANC's #60, #59, #84, ...

........................................................................
.............................. CYCLE   10 ..............................
........................................................................
   1   -528.7819014 -0.528782E+03  0.847E-02    0.00       0.0  T
   2   -527.8896668  0.892235E+00  0.109E+00    0.17       1.0  T
   3   -528.2375118 -0.347845E+00  0.874E-01    0.07       1.0  T
   4   -528.3951964 -0.157685E+00  0.785E-01    0.03       1.0  T
   5   -528.6398759 -0.244679E+00  0.468E-01    0.03       1.0  T
   6   -528.5554496  0.844264E-01  0.578E-01    0.02       1.0  T
   7   -528.7728597 -0.217410E+00  0.136E-01    0.01       1.0  T
   8   -528.7316519  0.412078E-01  0.274E-01    0.00       1.0  T
   9   -528.7470416 -0.153898E-01  0.232E-01    0.01       1.0  T
  10   -528.7459474  0.109418E-02  0.242E-01    0.00       1.0  T
  11   -528.7603883 -0.144409E-01  0.193E-01    0.00       1.0  T
  12   -528.7759180 -0.155297E-01  0.122E-01    0.01       1.0  T
  13   -528.7834408 -0.752278E-02  0.604E-02    0.00       1.0  T
  14   -528.7858127 -0.237194E-02  0.203E-02    0.00       1.0  T
  15   -528.7860075 -0.194800E-03  0.101E-02    0.00       1.0  T
  16   -528.7860718 -0.642548E-04  0.376E-03    0.00       1.6  T
  17   -528.7860773 -0.552219E-05  0.235E-03    0.00       2.6  T
  18   -528.7860810 -0.371023E-05  0.591E-04    0.00      10.4  T
  19   -528.7860812 -0.139183E-06  0.337E-04    0.00      18.3  T
  20   -528.7860812 -0.608744E-07  0.166E-04    0.00      37.1  T
  21   -528.7860812 -0.150537E-07  0.459E-05    0.00     134.6  T
     SCC iter.                  ...        0 min,  7.879 sec
     gradient                   ...        0 min,  0.719 sec
 * total energy  :  -521.1335650 Eh     change       -0.2751876E-01 Eh
   gradient norm :     0.0520791 Eh/α   predicted    -0.2809598E-01 (   2.10%)
   displ. norm   :     0.8221896 α      lambda       -0.2427189E-01
   maximum displ.:     0.3656541 α      in ANC's #59, #60, #84, ...

........................................................................
.............................. CYCLE   11 ..............................
........................................................................
   1   -528.8267021 -0.528827E+03  0.875E-02    0.01       0.0  T
   2   -528.0465185  0.780184E+00  0.107E+00    0.05       1.0  T
   3   -528.3289559 -0.282437E+00  0.840E-01    0.08       1.0  T
   4   -528.2416972  0.872587E-01  0.897E-01    0.06       1.0  T
   5   -528.7586172 -0.516920E+00  0.323E-01    0.02       1.0  T
   6   -528.8132052 -0.545879E-01  0.173E-01    0.00       1.0  T
   7   -528.5619793  0.251226E+00  0.614E-01    0.06       1.0  T
   8   -528.7988815 -0.236902E+00  0.214E-01    0.02       1.0  T
   9   -528.7719754  0.269061E-01  0.290E-01    0.00       1.0  T
  10   -528.7998979 -0.279225E-01  0.209E-01    0.01       1.0  T
  11   -528.8058378 -0.593990E-02  0.196E-01    0.01       1.0  T
  12   -528.8164841 -0.106463E-01  0.149E-01    0.01       1.0  T
  13   -528.8315059 -0.150218E-01  0.331E-02    0.00       1.0  T
  14   -528.8316712 -0.165244E-03  0.296E-02    0.00       1.0  T
  15   -528.8321885 -0.517295E-03  0.109E-02    0.00       1.0  T
  16   -528.8322593 -0.708621E-04  0.454E-03    0.00       1.4  T
  17   -528.8322727 -0.133459E-04  0.116E-03    0.00       5.3  T
  18   -528.8322736 -0.877018E-06  0.365E-04    0.00      16.9  T
  19   -528.8322736 -0.560207E-07  0.240E-04    0.00      25.7  T
  20   -528.8322736 -0.281125E-07  0.127E-04    0.00      48.5  T
  21   -528.8322737 -0.424836E-08  0.908E-05    0.00      68.0  T
     SCC iter.                  ...        0 min,  7.301 sec
     gradient                   ...        0 min,  0.724 sec
 * total energy  :  -521.1537507 Eh     change       -0.2018571E-01 Eh
   gradient norm :     0.0391969 Eh/α   predicted    -0.2033980E-01 (   0.76%)
   displ. norm   :     0.8472460 α      lambda       -0.1927840E-01
   maximum displ.:     0.4326482 α      in ANC's #60, #59, #85, ...

........................................................................
.............................. CYCLE   12 ..............................
........................................................................
   1   -528.8647783 -0.528865E+03  0.968E-02    0.01       0.0  T
   2   -528.0002116  0.864567E+00  0.114E+00    0.06       1.0  T
   3   -528.5388361 -0.538625E+00  0.698E-01    0.05       1.0  T
   4   -528.3047056  0.234130E+00  0.880E-01    0.03       1.0  T
   5   -528.7288536 -0.424148E+00  0.454E-01    0.01       1.0  T
   6   -528.7915505 -0.626969E-01  0.344E-01    0.00       1.0  T
   7   -528.5346746  0.256876E+00  0.686E-01    0.06       1.0  T
   8   -528.8545014 -0.319827E+00  0.152E-01    0.01       1.0  T
   9   -528.7985120  0.559894E-01  0.321E-01    0.00       1.0  T
  10   -528.8597317 -0.612197E-01  0.128E-01    0.01       1.0  T
  11   -528.8545916  0.514008E-02  0.157E-01    0.00       1.0  T
  12   -528.8663107 -0.117191E-01  0.867E-02    0.00       1.0  T
  13   -528.8684566 -0.214587E-02  0.709E-02    0.00       1.0  T
  14   -528.8698267 -0.137008E-02  0.530E-02    0.00       1.0  T
  15   -528.8717908 -0.196412E-02  0.104E-02    0.00       1.0  T
  16   -528.8718456 -0.547866E-04  0.457E-03    0.00       1.4  T
  17   -528.8718583 -0.126873E-04  0.150E-03    0.00       4.1  T
  18   -528.8718585 -0.241319E-06  0.138E-03    0.00       4.5  T
  19   -528.8718599 -0.134928E-05  0.166E-04    0.00      37.2  T
  20   -528.8718598  0.552063E-08  0.194E-04    0.00      31.9  T
  21   -528.8718598  0.336911E-08  0.200E-04    0.00      30.9  T
     SCC iter.                  ...        0 min,  6.876 sec
     gradient                   ...        0 min,  0.704 sec
 * total energy  :  -521.1683508 Eh     change       -0.1460011E-01 Eh
   gradient norm :     0.0382996 Eh/α   predicted    -0.1655852E-01 (  13.41%)
   displ. norm   :     0.8278968 α      lambda       -0.1643732E-01
   maximum displ.:     0.4287633 α      in ANC's #59, #60, #84, ...

........................................................................
.............................. CYCLE   13 ..............................
........................................................................
   1   -528.8906952 -0.528891E+03  0.101E-01    0.01       0.0  T
   2   -527.8482621  0.104243E+01  0.129E+00    0.14       1.0  T
   3   -528.4604458 -0.612184E+00  0.769E-01    0.02       1.0  T
   4   -528.7124158 -0.251970E+00  0.512E-01    0.01       1.0  T
   5   -528.8547070 -0.142291E+00  0.254E-01    0.02       1.0  T
   6   -528.6475766  0.207130E+00  0.588E-01    0.00       1.0  T
   7   -528.5768015  0.707751E-01  0.674E-01    0.06       1.0  T
   8   -528.8904424 -0.313641E+00  0.101E-01    0.00       1.0  T
   9   -528.8577956  0.326468E-01  0.236E-01    0.01       1.0  T
  10   -528.8947549 -0.369593E-01  0.692E-02    0.01       1.0  T
  11   -528.8947443  0.105977E-04  0.703E-02    0.00       1.0  T
  12   -528.8977634 -0.301910E-02  0.263E-02    0.00       1.0  T
  13   -528.8981925 -0.429035E-03  0.980E-03    0.00       1.0  T
  14   -528.8982510 -0.585508E-04  0.334E-03    0.00       1.9  T
  15   -528.8982426  0.845530E-05  0.486E-03    0.00       1.3  T
  16   -528.8982417  0.857960E-06  0.493E-03    0.00       1.3  T
  17   -528.8982587 -0.169630E-04  0.760E-04    0.00       8.1  T
  18   -528.8982591 -0.387310E-06  0.177E-04    0.00      35.0  T
  19   -528.8982590  0.625600E-07  0.345E-04    0.00      17.9  T
  20   -528.8982591 -0.586832E-07  0.194E-04    0.00      31.9  T
     SCC iter.                  ...        0 min,  6.502 sec
     gradient                   ...        0 min,  0.698 sec
 * total energy  :  -521.1803187 Eh     change       -0.1196786E-01 Eh
   gradient norm :     0.0395225 Eh/α   predicted    -0.1385184E-01 (  15.74%)
   displ. norm   :     0.7791148 α      lambda       -0.1098822E-01
   maximum displ.:     0.4340732 α      in ANC's #60, #59, #61, ...

........................................................................
.............................. CYCLE   14 ..............................
........................................................................
   1   -528.9220372 -0.528922E+03  0.786E-02    0.01       0.0  T
   2   -527.9259745  0.996063E+00  0.125E+00    0.21       1.0  T
   3   -528.6059064 -0.679932E+00  0.664E-01    0.01       1.0  T
   4   -528.6722472 -0.663408E-01  0.593E-01    0.00       1.0  T
   5   -528.8752465 -0.202999E+00  0.270E-01    0.01       1.0  T
   6   -528.6522453  0.223001E+00  0.624E-01    0.02       1.0  T
   7   -528.6436516  0.859370E-02  0.632E-01    0.06       1.0  T
   8   -528.8998336 -0.256182E+00  0.192E-01    0.01       1.0  T
   9   -528.8963131  0.352048E-02  0.204E-01    0.00       1.0  T
  10   -528.9226827 -0.263697E-01  0.737E-02    0.01       1.0  T
  11   -528.9257478 -0.306511E-02  0.333E-02    0.00       1.0  T
  12   -528.9262654 -0.517532E-03  0.187E-02    0.00       1.0  T
  13   -528.9264976 -0.232186E-03  0.623E-03    0.00       1.0  T
  14   -528.9265175 -0.199729E-04  0.340E-03    0.00       1.8  T
  15   -528.9265254 -0.782159E-05  0.549E-04    0.00      11.3  T
  16   -528.9265253  0.451406E-07  0.605E-04    0.00      10.2  T
  17   -528.9265255 -0.148809E-06  0.392E-04    0.00      15.7  T
  18   -528.9265256 -0.930395E-07  0.138E-04    0.00      44.6  T
  19   -528.9265256 -0.856630E-08  0.877E-05    0.00      70.4  T
     SCC iter.                  ...        0 min,  6.580 sec
     gradient                   ...        0 min,  0.735 sec
 * total energy  :  -521.1889259 Eh     change       -0.8607242E-02 Eh
   gradient norm :     0.0340229 Eh/α   predicted    -0.8829153E-02 (   2.58%)
   displ. norm   :     0.8236688 α      lambda       -0.1103866E-01
   maximum displ.:     0.5146180 α      in ANC's #60, #59, #61, ...

........................................................................
.............................. CYCLE   15 ..............................
........................................................................
   1   -528.9511073 -0.528951E+03  0.611E-02    0.00       0.0  T
   2   -528.0467275  0.904380E+00  0.118E+00    0.16       1.0  T
   3   -528.6749600 -0.628232E+00  0.619E-01    0.03       1.0  T
   4   -528.8014403 -0.126480E+00  0.461E-01    0.02       1.0  T
   5   -528.7194192  0.820210E-01  0.564E-01    0.04       1.0  T
   6   -528.8417993 -0.122380E+00  0.390E-01    0.00       1.0  T
   7   -528.6336408  0.208158E+00  0.673E-01    0.05       1.0  T
   8   -528.8653746 -0.231734E+00  0.345E-01    0.00       1.0  T
   9   -528.8871687 -0.217940E-01  0.307E-01    0.00       1.0  T
  10   -528.9321103 -0.449416E-01  0.175E-01    0.01       1.0  T
  11   -528.9287116  0.339872E-02  0.186E-01    0.00       1.0  T
  12   -528.9497357 -0.210241E-01  0.748E-02    0.00       1.0  T
  13   -528.9516250 -0.188931E-02  0.564E-02    0.00       1.0  T
  14   -528.9533732 -0.174814E-02  0.259E-02    0.00       1.0  T
  15   -528.9537947 -0.421559E-03  0.993E-03    0.00       1.0  T
  16   -528.9538477 -0.529196E-04  0.457E-03    0.00       1.4  T
  17   -528.9538609 -0.132628E-04  0.188E-03    0.00       3.3  T
  18   -528.9538631 -0.222780E-05  0.614E-04    0.00      10.1  T
  19   -528.9538634 -0.237407E-06  0.234E-04    0.00      26.4  T
  20   -528.9538634 -0.108336E-07  0.192E-04    0.00      32.2  T
  21   -528.9538634 -0.198744E-07  0.939E-05    0.00      65.8  T
     SCC iter.                  ...        0 min,  7.533 sec
     gradient                   ...        0 min,  0.738 sec
 * total energy  :  -521.1951375 Eh     change       -0.6211576E-02 Eh
   gradient norm :     0.0493295 Eh/α   predicted    -0.9263819E-02 (  49.14%)
   displ. norm   :     0.6566547 α      lambda       -0.8138799E-02
   maximum displ.:     0.3693451 α      in ANC's #60, #59, #61, ...

........................................................................
.............................. CYCLE   16 ..............................
........................................................................
   1   -528.9705133 -0.528971E+03  0.184E-02    0.00       0.0  T
   2   -528.5721615  0.398352E+00  0.764E-01    0.05       1.0  T
   3   -528.8957773 -0.323616E+00  0.320E-01    0.01       1.0  T
   4   -528.9109617 -0.151844E-01  0.285E-01    0.01       1.0  T
   5   -528.8864163  0.245454E-01  0.345E-01    0.02       1.0  T
   6   -528.9198021 -0.333858E-01  0.264E-01    0.02       1.0  T
   7   -528.9198997 -0.976654E-04  0.258E-01    0.03       1.0  T
   8   -528.9004363  0.194635E-01  0.304E-01    0.02       1.0  T
   9   -528.9674019 -0.669656E-01  0.689E-02    0.00       1.0  T
  10   -528.9685756 -0.117376E-02  0.540E-02    0.00       1.0  T
  11   -528.9704887 -0.191309E-02  0.193E-02    0.00       1.0  T
  12   -528.9707012 -0.212494E-03  0.910E-03    0.00       1.0  T
  13   -528.9707257 -0.244998E-04  0.700E-03    0.00       1.0  T
  14   -528.9707560 -0.303326E-04  0.248E-03    0.00       2.5  T
  15   -528.9707601 -0.409683E-05  0.507E-04    0.00      12.2  T
  16   -528.9707602 -0.958199E-07  0.356E-04    0.00      17.4  T
  17   -528.9707603 -0.873166E-07  0.509E-05    0.00     121.4  T
  18   -528.9707603  0.156388E-08  0.700E-05    0.00      88.3  T
     SCC iter.                  ...        0 min,  6.680 sec
     gradient                   ...        0 min,  0.735 sec
 * total energy  :  -521.2010713 Eh     change       -0.5933766E-02 Eh
   gradient norm :     0.0283109 Eh/α   predicted    -0.5824117E-02 (  -1.85%)
   displ. norm   :     0.7181193 α      lambda       -0.5788316E-02
   maximum displ.:     0.4359181 α      in ANC's #60, #59, #24, ...

........................................................................
.............................. CYCLE   17 ..............................
........................................................................
   1   -528.9858194 -0.528986E+03  0.250E-02    0.00       0.0  T
   2   -528.7537917  0.232028E+00  0.576E-01    0.04       1.0  T
   3   -528.8984763 -0.144685E+00  0.360E-01    0.03       1.0  T
   4   -528.8572830  0.411934E-01  0.433E-01    0.02       1.0  T
   5   -528.9637880 -0.106505E+00  0.174E-01    0.01       1.0  T
   6   -528.8452157  0.118572E+00  0.455E-01    0.01       1.0  T
   7   -528.9539490 -0.108733E+00  0.205E-01    0.01       1.0  T
   8   -528.9094799  0.444691E-01  0.316E-01    0.02       1.0  T
   9   -528.9639441 -0.544642E-01  0.173E-01    0.00       1.0  T
  10   -528.9846575 -0.207134E-01  0.437E-02    0.00       1.0  T
  11   -528.9859093 -0.125184E-02  0.156E-02    0.00       1.0  T
  12   -528.9858938  0.154782E-04  0.161E-02    0.00       1.0  T
  13   -528.9860686 -0.174784E-03  0.332E-03    0.00       1.9  T
  14   -528.9860757 -0.708334E-05  0.116E-03    0.00       5.3  T
  15   -528.9860764 -0.753090E-06  0.477E-04    0.00      13.0  T
  16   -528.9860764  0.125412E-07  0.483E-04    0.00      12.8  T
  17   -528.9860765 -0.113676E-06  0.264E-04    0.00      23.4  T
  18   -528.9860766 -0.340416E-07  0.149E-04    0.00      41.4  T
  19   -528.9860766 -0.139398E-07  0.439E-05    0.00     140.8  T
     SCC iter.                  ...        0 min,  6.845 sec
     gradient                   ...        0 min,  0.742 sec
 * total energy  :  -521.2046892 Eh     change       -0.3617939E-02 Eh
   gradient norm :     0.0324218 Eh/α   predicted    -0.4386670E-02 (  21.25%)
   displ. norm   :     0.6782385 α      lambda       -0.4399618E-02
   maximum displ.:     0.4103238 α      in ANC's #60, #59, #61, ...

........................................................................
.............................. CYCLE   18 ..............................
........................................................................
   1   -528.9971472 -0.528997E+03  0.164E-02    0.00       0.0  T
   2   -528.6499013  0.347246E+00  0.707E-01    0.06       1.0  T
   3   -528.9510313 -0.301130E+00  0.262E-01    0.00       1.0  T
   4   -528.9847779 -0.337466E-01  0.134E-01    0.00       1.0  T
   5   -528.8455198  0.139258E+00  0.456E-01    0.01       1.0  T
   6   -528.9861296 -0.140610E+00  0.121E-01    0.01       1.0  T
   7   -528.9937423 -0.761268E-02  0.697E-02    0.01       1.0  T
   8   -528.9810968  0.126454E-01  0.145E-01    0.01       1.0  T
   9   -528.9946147 -0.135179E-01  0.589E-02    0.01       1.0  T
  10   -528.9964640 -0.184930E-02  0.333E-02    0.00       1.0  T
  11   -528.9971898 -0.725746E-03  0.119E-02    0.00       1.0  T
  12   -528.9972911 -0.101339E-03  0.150E-03    0.00       4.1  T
  13   -528.9972920 -0.927650E-06  0.916E-04    0.00       6.7  T
  14   -528.9972916  0.490819E-06  0.126E-03    0.00       4.9  T
  15   -528.9972926 -0.108051E-05  0.102E-04    0.00      60.7  T
  16   -528.9972926 -0.617081E-08  0.382E-05    0.00     161.7  T
  17   -528.9972926 -0.635509E-09  0.246E-05    0.00     250.6  T
     SCC iter.                  ...        0 min,  6.145 sec
     gradient                   ...        0 min,  0.741 sec
 * total energy  :  -521.2073862 Eh     change       -0.2696965E-02 Eh
   gradient norm :     0.0171810 Eh/α   predicted    -0.3211739E-02 (  19.09%)
   displ. norm   :     0.6302770 α      lambda       -0.3554145E-02
   maximum displ.:     0.3915069 α      in ANC's #60, #59, #24, ...

........................................................................
.............................. CYCLE   19 ..............................
........................................................................
   1   -529.0049845 -0.529005E+03  0.214E-02    0.00       0.0  T
   2   -528.4267420  0.578242E+00  0.910E-01    0.08       1.0  T
   3   -528.9389709 -0.512229E+00  0.316E-01    0.01       1.0  T
   4   -528.9881024 -0.491315E-01  0.161E-01    0.00       1.0  T
   5   -528.9957137 -0.761138E-02  0.118E-01    0.00       1.0  T
   6   -528.9183101  0.774036E-01  0.348E-01    0.01       1.0  T
   7   -528.9940907 -0.757806E-01  0.125E-01    0.00       1.0  T
   8   -528.9887737  0.531707E-02  0.152E-01    0.00       1.0  T
   9   -529.0031358 -0.143622E-01  0.541E-02    0.00       1.0  T
  10   -529.0021125  0.102335E-02  0.645E-02    0.01       1.0  T
  11   -529.0045459 -0.243344E-02  0.316E-02    0.00       1.0  T
  12   -529.0052080 -0.662032E-03  0.107E-02    0.00       1.0  T
  13   -529.0052947 -0.867364E-04  0.117E-03    0.00       5.3  T
  14   -529.0052951 -0.381023E-06  0.886E-04    0.00       7.0  T
  15   -529.0052949  0.175048E-06  0.103E-03    0.00       6.0  T
  16   -529.0052956 -0.702746E-06  0.256E-04    0.00      24.1  T
  17   -529.0052956 -0.416829E-07  0.896E-05    0.00      69.0  T
  18   -529.0052956 -0.312434E-08  0.622E-05    0.00      99.3  T
     SCC iter.                  ...        0 min,  6.503 sec
     gradient                   ...        0 min,  0.738 sec
 * total energy  :  -521.2083633 Eh     change       -0.9771519E-03 Eh
   gradient norm :     0.0355709 Eh/α   predicted    -0.2483016E-02 ( 154.11%)
   displ. norm   :     0.3656642 α      lambda       -0.2583750E-02
   maximum displ.:     0.1859590 α      in ANC's #60, #59, #24, ...

........................................................................
.............................. CYCLE   20 ..............................
........................................................................
   1   -529.0105073 -0.529011E+03  0.165E-02    0.00       0.0  T
   2   -528.7843145  0.226193E+00  0.575E-01    0.02       1.0  T
   3   -528.9437436 -0.159429E+00  0.312E-01    0.02       1.0  T
   4   -528.9587460 -0.150024E-01  0.272E-01    0.00       1.0  T
   5   -528.9836833 -0.249373E-01  0.194E-01    0.01       1.0  T
   6   -528.9396036  0.440796E-01  0.315E-01    0.01       1.0  T
   7   -528.9804471 -0.408435E-01  0.201E-01    0.01       1.0  T
   8   -528.9825441 -0.209702E-02  0.193E-01    0.01       1.0  T
   9   -529.0033062 -0.207620E-01  0.987E-02    0.01       1.0  T
  10   -529.0081967 -0.489050E-02  0.564E-02    0.00       1.0  T
  11   -529.0103600 -0.216338E-02  0.191E-02    0.00       1.0  T
  12   -529.0105836 -0.223571E-03  0.739E-03    0.00       1.0  T
  13   -529.0106218 -0.382094E-04  0.610E-04    0.00      10.1  T
  14   -529.0106165  0.537360E-05  0.282E-03    0.00       2.2  T
  15   -529.0106220 -0.550208E-05  0.425E-04    0.00      14.5  T
  16   -529.0106220 -0.859698E-07  0.240E-04    0.00      25.8  T
  17   -529.0106221 -0.348149E-07  0.889E-05    0.00      69.5  T
  18   -529.0106221 -0.271700E-08  0.635E-05    0.00      97.2  T
     SCC iter.                  ...        0 min,  6.540 sec
     gradient                   ...        0 min,  0.739 sec
 * total energy  :  -521.2098217 Eh     change       -0.1458409E-02 Eh
   gradient norm :     0.0132210 Eh/α   predicted    -0.1464616E-02 (   0.43%)
   displ. norm   :     0.4367595 α      lambda       -0.1855916E-02
   maximum displ.:     0.2251444 α      in ANC's #60, #24, #67, ...
 * RMSD in coord.:     0.6283386 α      energy gain  -0.2756535E+01 Eh

generating ANC from model Hessian ...
Using Lindh-Hessian (1995)
 Shifting diagonal of input Hessian by    1.0018753085168242E-002
 Lowest  eigenvalues of input Hessian
    0.010000    0.010003    0.010004    0.010005    0.010009    0.010010
    0.010011    0.010013    0.010015    0.000000    0.000000    0.000000
    0.000000    0.000000    0.000000    0.010022    0.010027    0.010029
 Highest eigenvalues
    2.821845    2.824538    2.843663    3.043068    3.045253    3.054604


........................................................................
.............................. CYCLE   21 ..............................
........................................................................
   1   -529.0066922 -0.529007E+03  0.168E-02    0.00       0.0  T
   2   -528.7112314  0.295461E+00  0.645E-01    0.03       1.0  T
   3   -528.9409578 -0.229726E+00  0.312E-01    0.00       1.0  T
   4   -528.9572547 -0.162969E-01  0.263E-01    0.00       1.0  T
   5   -528.9757546 -0.184999E-01  0.206E-01    0.01       1.0  T
   6   -528.9635509  0.122037E-01  0.246E-01    0.00       1.0  T
   7   -528.9890166 -0.254657E-01  0.151E-01    0.01       1.0  T
   8   -528.9506474  0.383692E-01  0.270E-01    0.02       1.0  T
   9   -528.9954085 -0.447611E-01  0.125E-01    0.00       1.0  T
  10   -529.0060602 -0.106517E-01  0.333E-02    0.00       1.0  T
  11   -529.0067158 -0.655589E-03  0.147E-02    0.00       1.0  T
  12   -529.0067750 -0.591752E-04  0.114E-02    0.00       1.0  T
  13   -529.0068660 -0.910219E-04  0.105E-03    0.00       5.9  T
  14   -529.0068650  0.962941E-06  0.156E-03    0.00       4.0  T
  15   -529.0068667 -0.166210E-05  0.288E-04    0.00      21.4  T
  16   -529.0068668 -0.566012E-07  0.634E-05    0.00      97.5  T
  17   -529.0068668 -0.356977E-09  0.595E-05    0.00     103.8  T
     SCC iter.                  ...        0 min,  6.535 sec
     gradient                   ...        0 min,  0.744 sec
 * total energy  :  -521.2092640 Eh     change        0.5577109E-03 Eh
   gradient norm :     0.0338181 Eh/α   predicted     0.0000000E+00 (-100.00%)
   displ. norm   :     0.1812591 α      lambda       -0.1520072E-02
   maximum displ.:     0.0458560 α      in ANC's #22, #61, #50, ...

........................................................................
.............................. CYCLE   22 ..............................
........................................................................
   1   -529.0055703 -0.529006E+03  0.102E-02    0.00       0.0  T
   2   -528.8067439  0.198826E+00  0.533E-01    0.01       1.0  T
   3   -528.9955626 -0.188819E+00  0.125E-01    0.00       1.0  T
   4   -528.9997131 -0.415043E-02  0.923E-02    0.00       1.0  T
   5   -529.0011527 -0.143964E-02  0.800E-02    0.00       1.0  T
   6   -528.9580461  0.431066E-01  0.259E-01    0.00       1.0  T
   7   -529.0025553 -0.445092E-01  0.640E-02    0.00       1.0  T
   8   -528.9983373  0.421800E-02  0.977E-02    0.00       1.0  T
   9   -529.0038460 -0.550878E-02  0.484E-02    0.00       1.0  T
  10   -529.0051511 -0.130510E-02  0.253E-02    0.00       1.0  T
  11   -529.0055223 -0.371179E-03  0.124E-02    0.00       1.0  T
  12   -529.0056324 -0.110054E-03  0.194E-03    0.00       3.2  T
  13   -529.0056347 -0.236879E-05  0.653E-04    0.00       9.5  T
  14   -529.0056347  0.747993E-07  0.746E-04    0.00       8.3  T
  15   -529.0056350 -0.353032E-06  0.213E-04    0.00      29.0  T
  16   -529.0056351 -0.307874E-07  0.400E-05    0.00     154.5  T
  17   -529.0056351 -0.972818E-09  0.159E-05    0.00     389.3  T
     SCC iter.                  ...        0 min,  6.602 sec
     gradient                   ...        0 min,  0.740 sec
 * total energy  :  -521.2100312 Eh     change       -0.7672303E-03 Eh
   gradient norm :     0.0146998 Eh/α   predicted    -0.7853130E-03 (   2.36%)
   displ. norm   :     0.3167405 α      lambda       -0.1655105E-02
   maximum displ.:     0.1014269 α      in ANC's #42, #22, #43, ...

........................................................................
.............................. CYCLE   23 ..............................
........................................................................
   1   -529.0020542 -0.529002E+03  0.991E-03    0.00       0.0  T
   2   -528.9706762  0.313781E-01  0.224E-01    0.01       1.0  T
   3   -528.9823537 -0.116775E-01  0.174E-01    0.01       1.0  T
   4   -529.0017161 -0.193624E-01  0.249E-02    0.00       1.0  T
   5   -528.9698393  0.318768E-01  0.211E-01    0.01       1.0  T
   6   -529.0019717 -0.321325E-01  0.126E-02    0.00       1.0  T
   7   -528.9813618  0.206099E-01  0.173E-01    0.01       1.0  T
   8   -529.0005894 -0.192276E-01  0.455E-02    0.00       1.0  T
   9   -529.0012979 -0.708506E-03  0.321E-02    0.00       1.0  T
  10   -529.0012712  0.267253E-04  0.327E-02    0.00       1.0  T
  11   -529.0016879 -0.416696E-03  0.231E-02    0.00       1.0  T
  12   -529.0020508 -0.362845E-03  0.746E-03    0.00       1.0  T
  13   -529.0020919 -0.411034E-04  0.138E-03    0.00       4.5  T
  14   -529.0020931 -0.128622E-05  0.507E-04    0.00      12.2  T
  15   -529.0020933 -0.154762E-06  0.192E-04    0.00      32.1  T
  16   -529.0020933 -0.203381E-07  0.887E-05    0.00      69.6  T
     SCC iter.                  ...        0 min,  6.204 sec
     gradient                   ...        0 min,  0.745 sec
 * total energy  :  -521.2098977 Eh     change        0.1335018E-03 Eh
   gradient norm :     0.0288793 Eh/α   predicted    -0.9105767E-03 (-782.07%)
   displ. norm   :     0.2159852 α      lambda       -0.1967954E-02
   maximum displ.:     0.1102256 α      in ANC's #38, #43, #37, ...

........................................................................
.............................. CYCLE   24 ..............................
........................................................................
   1   -529.0021913 -0.529002E+03  0.524E-03    0.00       0.0  T
   2   -528.9010479  0.101143E+00  0.379E-01    0.02       1.0  T
   3   -529.0014852 -0.100437E+00  0.328E-02    0.00       1.0  T
   4   -528.9987794  0.270581E-02  0.705E-02    0.00       1.0  T
   5   -529.0010958 -0.231640E-02  0.388E-02    0.00       1.0  T
   6   -529.0019418 -0.845925E-03  0.186E-02    0.00       1.0  T
   7   -529.0017829  0.158865E-03  0.239E-02    0.00       1.0  T
   8   -529.0016517  0.131200E-03  0.268E-02    0.00       1.0  T
   9   -529.0018347 -0.182997E-03  0.221E-02    0.00       1.0  T
  10   -529.0021416 -0.306942E-03  0.952E-03    0.00       1.0  T
  11   -529.0021837 -0.420958E-04  0.588E-03    0.00       1.1  T
  12   -529.0022094 -0.257076E-04  0.519E-04    0.00      11.9  T
  13   -529.0022096 -0.147235E-06  0.214E-04    0.00      28.8  T
  14   -529.0022096 -0.129036E-07  0.171E-04    0.00      36.2  T
  15   -529.0022096 -0.198344E-07  0.371E-05    0.00     166.7  T
     SCC iter.                  ...        0 min,  5.871 sec
     gradient                   ...        0 min,  0.747 sec
 * total energy  :  -521.2105919 Eh     change       -0.6941772E-03 Eh
   gradient norm :     0.0198101 Eh/α   predicted    -0.1029883E-02 (  48.36%)
   displ. norm   :     0.2592671 α      lambda       -0.1965686E-02
   maximum displ.:     0.0995595 α      in ANC's #60, #58, #61, ...

........................................................................
.............................. CYCLE   25 ..............................
........................................................................
   1   -528.9977702 -0.528998E+03  0.685E-03    0.00       0.0  T
   2   -528.8763839  0.121386E+00  0.414E-01    0.00       1.0  T
   3   -528.9934238 -0.117040E+00  0.780E-02    0.00       1.0  T
   4   -528.9739514  0.194724E-01  0.189E-01    0.01       1.0  T
   5   -528.9958754 -0.219240E-01  0.542E-02    0.00       1.0  T
   6   -528.9953375  0.537892E-03  0.571E-02    0.00       1.0  T
   7   -528.9820197  0.133178E-01  0.149E-01    0.00       1.0  T
   8   -528.9881552 -0.613555E-02  0.112E-01    0.01       1.0  T
   9   -528.9948956 -0.674040E-02  0.618E-02    0.01       1.0  T
  10   -528.9972605 -0.236486E-02  0.265E-02    0.00       1.0  T
  11   -528.9977672 -0.506720E-03  0.690E-03    0.00       1.0  T
  12   -528.9978001 -0.329427E-04  0.123E-03    0.00       5.0  T
  13   -528.9978003 -0.165930E-06  0.114E-03    0.00       5.4  T
  14   -528.9978012 -0.917431E-06  0.303E-04    0.00      20.4  T
  15   -528.9978013 -0.591716E-07  0.611E-05    0.00     101.1  T
  16   -528.9978013 -0.188356E-08  0.339E-05    0.00     182.0  T
     SCC iter.                  ...        0 min,  6.423 sec
     gradient                   ...        0 min,  0.744 sec
 * total energy  :  -521.2104211 Eh     change        0.1708594E-03 Eh
   gradient norm :     0.0203653 Eh/α   predicted    -0.1048913E-02 (-713.90%)
   displ. norm   :     0.2142303 α      lambda       -0.1929467E-02
   maximum displ.:     0.0832943 α      in ANC's #60, #58, #76, ...

........................................................................
.............................. CYCLE   26 ..............................
........................................................................
   1   -529.0000471 -0.529000E+03  0.585E-03    0.00       0.0  T
   2   -528.9270954  0.729517E-01  0.325E-01    0.01       1.0  T
   3   -528.9990657 -0.719703E-01  0.402E-02    0.00       1.0  T
   4   -528.9915938  0.747193E-02  0.111E-01    0.00       1.0  T
   5   -528.9990464 -0.745256E-02  0.387E-02    0.00       1.0  T
   6   -528.9854607  0.135857E-01  0.144E-01    0.00       1.0  T
   7   -528.9997584 -0.142977E-01  0.208E-02    0.00       1.0  T
   8   -528.9998231 -0.647127E-04  0.184E-02    0.00       1.0  T
   9   -529.0000401 -0.216962E-03  0.571E-03    0.00       1.1  T
  10   -528.9999687  0.713878E-04  0.112E-02    0.00       1.0  T
  11   -528.9999936 -0.249504E-04  0.954E-03    0.00       1.0  T
  12   -529.0000416 -0.479704E-04  0.538E-03    0.00       1.1  T
  13   -529.0000627 -0.211151E-04  0.131E-03    0.00       4.7  T
  14   -529.0000640 -0.127436E-05  0.213E-04    0.00      29.0  T
  15   -529.0000640 -0.319891E-07  0.973E-06    0.00     635.0  T
  16   -529.0000640  0.608225E-10  0.135E-05    0.00     458.0  T
     SCC iter.                  ...        0 min,  6.344 sec
     gradient                   ...        0 min,  0.734 sec
 * total energy  :  -521.2113238 Eh     change       -0.9027040E-03 Eh
   gradient norm :     0.0113854 Eh/α   predicted    -0.1009011E-02 (  11.78%)
   displ. norm   :     0.3019030 α      lambda       -0.1290887E-02
   maximum displ.:     0.1088598 α      in ANC's #22, #23, #20, ...

........................................................................
.............................. CYCLE   27 ..............................
........................................................................
   1   -528.9964527 -0.528996E+03  0.926E-03    0.00       0.0  T
   2   -528.7927875  0.203665E+00  0.532E-01    0.03       1.0  T
   3   -528.9839885 -0.191201E+00  0.139E-01    0.00       1.0  T
   4   -528.9905617 -0.657318E-02  0.915E-02    0.00       1.0  T
   5   -528.9949620 -0.440035E-02  0.473E-02    0.00       1.0  T
   6   -528.9456606  0.493014E-01  0.275E-01    0.00       1.0  T
   7   -528.9931903 -0.475297E-01  0.663E-02    0.00       1.0  T
   8   -528.9885532  0.463714E-02  0.102E-01    0.01       1.0  T
   9   -528.9950764 -0.652319E-02  0.436E-02    0.00       1.0  T
  10   -528.9962390 -0.116262E-02  0.191E-02    0.00       1.0  T
  11   -528.9964717 -0.232726E-03  0.752E-03    0.00       1.0  T
  12   -528.9965117 -0.399849E-04  0.804E-04    0.00       7.7  T
  13   -528.9965119 -0.233258E-06  0.556E-04    0.00      11.1  T
  14   -528.9965120 -0.317108E-07  0.504E-04    0.00      12.3  T
  15   -528.9965121 -0.166306E-06  0.130E-04    0.00      47.6  T
  16   -528.9965121 -0.115450E-07  0.200E-05    0.00     309.5  T
     SCC iter.                  ...        0 min,  6.187 sec
     gradient                   ...        0 min,  0.730 sec
 * total energy  :  -521.2112222 Eh     change        0.1015770E-03 Eh
   gradient norm :     0.0224750 Eh/α   predicted    -0.7042731E-03 (-793.34%)
   displ. norm   :     0.1969456 α      lambda       -0.1331445E-02
   maximum displ.:     0.0810253 α      in ANC's #45, #42, #22, ...

........................................................................
.............................. CYCLE   28 ..............................
........................................................................
   1   -528.9970549 -0.528997E+03  0.284E-03    0.00       0.0  T
   2   -528.9812540  0.158009E-01  0.150E-01    0.00       1.0  T
   3   -528.9965926 -0.153385E-01  0.254E-02    0.00       1.0  T
   4   -528.9896242  0.696836E-02  0.103E-01    0.00       1.0  T
   5   -528.9966324 -0.700823E-02  0.244E-02    0.00       1.0  T
   6   -528.9956255  0.100695E-02  0.454E-02    0.00       1.0  T
   7   -528.9968453 -0.121981E-02  0.173E-02    0.00       1.0  T
   8   -528.9963438  0.501511E-03  0.308E-02    0.00       1.0  T
   9   -528.9966467 -0.302879E-03  0.232E-02    0.00       1.0  T
  10   -528.9969318 -0.285123E-03  0.128E-02    0.00       1.0  T
  11   -528.9970475 -0.115740E-03  0.375E-03    0.00       1.6  T
  12   -528.9970581 -0.105869E-04  0.581E-04    0.00      10.6  T
  13   -528.9970582 -0.968083E-07  0.435E-04    0.00      14.2  T
  14   -528.9970584 -0.134750E-06  0.407E-05    0.00     152.0  T
  15   -528.9970584 -0.159162E-09  0.369E-05    0.00     167.3  T
     SCC iter.                  ...        0 min,  5.850 sec
     gradient                   ...        0 min,  0.745 sec
 * total energy  :  -521.2119324 Eh     change       -0.7101974E-03 Eh
   gradient norm :     0.0112126 Eh/α   predicted    -0.6915416E-03 (  -2.63%)
   displ. norm   :     0.3003220 α      lambda       -0.1138479E-02
   maximum displ.:     0.1101510 α      in ANC's #22, #42, #20, ...

........................................................................
.............................. CYCLE   29 ..............................
........................................................................
   1   -528.9928942 -0.528993E+03  0.100E-02    0.00       0.0  T
   2   -528.6681433  0.324751E+00  0.672E-01    0.01       1.0  T
   3   -528.9891026 -0.320959E+00  0.756E-02    0.00       1.0  T
   4   -528.9705660  0.185366E-01  0.178E-01    0.00       1.0  T
   5   -528.9812232 -0.106572E-01  0.130E-01    0.01       1.0  T
   6   -528.9758825  0.534075E-02  0.155E-01    0.01       1.0  T
   7   -528.9886648 -0.127823E-01  0.756E-02    0.00       1.0  T
   8   -528.9831143  0.555046E-02  0.114E-01    0.01       1.0  T
   9   -528.9906949 -0.758051E-02  0.549E-02    0.00       1.0  T
  10   -528.9924384 -0.174354E-02  0.267E-02    0.00       1.0  T
  11   -528.9928255 -0.387092E-03  0.142E-02    0.00       1.0  T
  12   -528.9929706 -0.145125E-03  0.156E-03    0.00       4.0  T
  13   -528.9929716 -0.101230E-05  0.980E-04    0.00       6.3  T
  14   -528.9929707  0.907319E-06  0.150E-03    0.00       4.1  T
  15   -528.9929723 -0.153815E-05  0.212E-04    0.00      29.1  T
  16   -528.9929723 -0.314853E-07  0.388E-05    0.00     159.3  T
  17   -528.9929723 -0.591399E-09  0.266E-05    0.00     232.0  T
     SCC iter.                  ...        0 min,  6.896 sec
     gradient                   ...        0 min,  0.739 sec
 * total energy  :  -521.2117377 Eh     change        0.1946421E-03 Eh
   gradient norm :     0.0198661 Eh/α   predicted    -0.6205802E-03 (-418.83%)
   displ. norm   :     0.2078443 α      lambda       -0.1349542E-02
   maximum displ.:     0.0746539 α      in ANC's #22, #42, #20, ...

........................................................................
.............................. CYCLE   30 ..............................
........................................................................
   1   -528.9934196 -0.528993E+03  0.563E-03    0.00       0.0  T
   2   -528.8766897  0.116730E+00  0.405E-01    0.02       1.0  T
[...]
    11   6 C       12   6 C                                       1.3920207
    13   7 N       14   8 O                                       1.2043084
    13   7 N       15   8 O                                       1.2043272
    12   6 C       16   6 C                                       1.3920012
     9   6 C       17   6 C                                       1.3983700
    16   6 C       17   6 C                                       1.3828444
     8   6 C       18   6 C                                       1.3877814
    18   6 C       19   6 C                                       1.4320645
    19   6 C       20   6 C                                       1.3548394
    18   6 C       21   7 N                                       1.3752796
    20   6 C       22   6 C                                       1.4285580
    21   7 N       22   6 C                                       1.3674082
    22   6 C       23   6 C                                       1.3969211
    23   6 C       24   6 C                                       1.3970302
    24   6 C       25   6 C                                       1.4284258
    25   6 C       26   6 C                                       1.3548781
    26   6 C       27   6 C                                       1.4322264
    24   6 C       28   7 N                                       1.3669859
    27   6 C       28   7 N                                       1.3758749
    27   6 C       29   6 C                                       1.3874740
    30   6 C       31   6 C                                       1.3984228
    31   6 C       32   6 C                                       1.3828249
    32   6 C       33   6 C                                       1.3920263
    34   7 N       35   8 O                                       1.2043320
    34   7 N       36   8 O                                       1.2043296
    33   6 C       37   6 C                                       1.3920094
    30   6 C       38   6 C                                       1.3983079
    37   6 C       38   6 C                                       1.3828910
    29   6 C       39   6 C                                       1.3892116
    39   6 C       40   6 C                                       1.4341365
    40   6 C       41   6 C                                       1.3535676
     2   6 C       42   6 C                                       1.3780502
    41   6 C       42   6 C                                       1.4314665
    39   6 C       43   7 N                                       1.3705882
    42   6 C       43   7 N                                       1.3730100
     2   6 C       44   1 H                                       1.0834211
     4   6 C       45   1 H                                       1.0782173
     5   6 C       46   1 H                                       1.0779025
    10   6 C       47   1 H                                       1.0837579
    11   6 C       48   1 H                                       1.0833619
    16   6 C       49   1 H                                       1.0833641
    17   6 C       50   1 H                                       1.0837475
    19   6 C       51   1 H                                       1.0777765
    20   6 C       52   1 H                                       1.0779777
    25   6 C       53   1 H                                       1.0780043
    26   6 C       54   1 H                                       1.0777679
    31   6 C       55   1 H                                       1.0837559
    32   6 C       56   1 H                                       1.0833658
    37   6 C       57   1 H                                       1.0833638
    38   6 C       58   1 H                                       1.0837485
    40   6 C       59   1 H                                       1.0779128
    41   6 C       60   1 H                                       1.0782100
    62   6 C       63   6 C                                       1.3783646
    63   6 C       64   6 C                                       1.4313739
    64   6 C       65   6 C                                       1.3536529
    65   6 C       66   6 C                                       1.4341991
    63   6 C       67   7 N                                       1.3726333
    66   6 C       67   7 N                                       1.3708194
    66   6 C       68   6 C                                       1.3892021
    69   6 C       70   6 C                                       1.3983255
    70   6 C       71   6 C                                       1.3828745
    71   6 C       72   6 C                                       1.3920031
    73   7 N       74   8 O                                       1.2042678
    73   7 N       75   8 O                                       1.2043057
    72   6 C       76   6 C                                       1.3919925
    69   6 C       77   6 C                                       1.3983781
    76   6 C       77   6 C                                       1.3828536
    68   6 C       78   6 C                                       1.3876109
    78   6 C       79   6 C                                       1.4321595
    79   6 C       80   6 C                                       1.3548800
    78   6 C       81   7 N                                       1.3755107
    80   6 C       82   6 C                                       1.4285989
    81   7 N       82   6 C                                       1.3668700
    82   6 C       83   6 C                                       1.3975898
    83   6 C       84   6 C                                       1.3975345
    84   6 C       85   6 C                                       1.4284884
    85   6 C       86   6 C                                       1.3549509
    86   6 C       87   6 C                                       1.4322609
    84   6 C       88   7 N                                       1.3667186
    87   6 C       88   7 N                                       1.3758360
    87   6 C       89   6 C                                       1.3874514
    90   6 C       91   6 C                                       1.3984096
    91   6 C       92   6 C                                       1.3828413
    92   6 C       93   6 C                                       1.3920047
    94   7 N       95   8 O                                       1.2042739
    94   7 N       96   8 O                                       1.2043058
    93   6 C       97   6 C                                       1.3919869
    90   6 C       98   6 C                                       1.3982897
    97   6 C       98   6 C                                       1.3829047
    89   6 C       99   6 C                                       1.3894373
    99   6 C      100   6 C                                       1.4341710
   100   6 C      101   6 C                                       1.3536334
    62   6 C      102   6 C                                       1.3782095
   101   6 C      102   6 C                                       1.4314362
    99   6 C      103   7 N                                       1.3705017
   102   6 C      103   7 N                                       1.3728799
    62   6 C      104   1 H                                       1.0834360
    64   6 C      105   1 H                                       1.0782113
    65   6 C      106   1 H                                       1.0778980
    70   6 C      107   1 H                                       1.0837567
    71   6 C      108   1 H                                       1.0833588
    76   6 C      109   1 H                                       1.0833667
    77   6 C      110   1 H                                       1.0837447
    79   6 C      111   1 H                                       1.0777733
    80   6 C      112   1 H                                       1.0779723
    85   6 C      113   1 H                                       1.0780063
    86   6 C      114   1 H                                       1.0777806
    91   6 C      115   1 H                                       1.0837505
    92   6 C      116   1 H                                       1.0833671
    97   6 C      117   1 H                                       1.0833644
    98   6 C      118   1 H                                       1.0837503
   100   6 C      119   1 H                                       1.0779034
   101   6 C      120   1 H                                       1.0782072
   121   6 C      122   6 C                                       1.2248322
   123   6 C      124   6 C                                       1.2313359
   125   6 C      126   6 C                                       1.2315195
   127   6 C      128   6 C                                       1.2253420
   129   6 C      130   6 C                                       1.2258197
   131   6 C      132   6 C                                       1.2321989
   133   6 C      134   6 C                                       1.2322191
   135   6 C      136   6 C                                       1.2258792
   137   6 C      138   6 C                                       1.2257493
   139   6 C      140   6 C                                       1.2319767
   141   6 C      142   6 C                                       1.2317973
   143   6 C      144   6 C                                       1.2252596
   146   6 C      147   6 C                                       1.3981668
   147   6 C      148   6 C                                       1.4281953
   148   6 C      149   6 C                                       1.3555935
   149   6 C      150   6 C                                       1.4316063
   147   6 C      151   7 N                                       1.3666291
   150   6 C      151   7 N                                       1.3742326
   150   6 C      152   6 C                                       1.3892765
   153   6 C      154   6 C                                       1.3982579
   154   6 C      155   6 C                                       1.3829743
   155   6 C      156   6 C                                       1.3918732
   157   7 N      158   8 O                                       1.2040302
   157   7 N      159   8 O                                       1.2040820
   156   6 C      160   6 C                                       1.3919016
   153   6 C      161   6 C                                       1.3984347
   160   6 C      161   6 C                                       1.3828326
   152   6 C      162   6 C                                       1.3880728
   162   6 C      163   6 C                                       1.4319275
   163   6 C      164   6 C                                       1.3554010
   162   6 C      165   7 N                                       1.3755895
   164   6 C      166   6 C                                       1.4283608
   165   7 N      166   6 C                                       1.3656663
   166   6 C      167   6 C                                       1.3988864
   167   6 C      168   6 C                                       1.3986676
   168   6 C      169   6 C                                       1.4284193
   169   6 C      170   6 C                                       1.3554953
   170   6 C      171   6 C                                       1.4317254
   168   6 C      172   7 N                                       1.3660498
   171   6 C      172   7 N                                       1.3749003
   171   6 C      173   6 C                                       1.3884194
   174   6 C      175   6 C                                       1.3982518
   175   6 C      176   6 C                                       1.3829361
   176   6 C      177   6 C                                       1.3918916
   178   7 N      179   8 O                                       1.2040968
   178   7 N      180   8 O                                       1.2040609
   177   6 C      181   6 C                                       1.3918954
   174   6 C      182   6 C                                       1.3983218
   181   6 C      182   6 C                                       1.3828929
   173   6 C      183   6 C                                       1.3887378
   183   6 C      184   6 C                                       1.4317512
   184   6 C      185   6 C                                       1.3554960
   146   6 C      186   6 C                                       1.3984550
   185   6 C      186   6 C                                       1.4281720
   183   6 C      187   7 N                                       1.3749067
   186   6 C      187   7 N                                       1.3661708
   148   6 C      188   1 H                                       1.0779670
   149   6 C      189   1 H                                       1.0777632
   154   6 C      190   1 H                                       1.0837367
   155   6 C      191   1 H                                       1.0833659
   160   6 C      192   1 H                                       1.0833663
   161   6 C      193   1 H                                       1.0837478
   163   6 C      194   1 H                                       1.0777452
   164   6 C      195   1 H                                       1.0779759
   169   6 C      196   1 H                                       1.0779782
   170   6 C      197   1 H                                       1.0777797
   175   6 C      198   1 H                                       1.0837407
   176   6 C      199   1 H                                       1.0833655
   181   6 C      200   1 H                                       1.0833661
   182   6 C      201   1 H                                       1.0837354
   184   6 C      202   1 H                                       1.0777337 (min)
   185   6 C      203   1 H                                       1.0779576
   205   6 C      206   6 C                                       1.3987760
   206   6 C      207   6 C                                       1.4283585
   207   6 C      208   6 C                                       1.3555806
   208   6 C      209   6 C                                       1.4316843
   206   6 C      210   7 N                                       1.3660739
   209   6 C      210   7 N                                       1.3746889
   209   6 C      211   6 C                                       1.3888050
   212   6 C      213   6 C                                       1.3983980
   213   6 C      214   6 C                                       1.3828465
   214   6 C      215   6 C                                       1.3918749
   216   7 N      217   8 O                                       1.2040577
   216   7 N      218   8 O                                       1.2040397
   215   6 C      219   6 C                                       1.3918907
   212   6 C      220   6 C                                       1.3982886
   219   6 C      220   6 C                                       1.3829645
   211   6 C      221   6 C                                       1.3886927
   221   6 C      222   6 C                                       1.4317823
   222   6 C      223   6 C                                       1.3555924
   221   6 C      224   7 N                                       1.3751295
   223   6 C      225   6 C                                       1.4281653
   224   7 N      225   6 C                                       1.3657792
   225   6 C      226   6 C                                       1.3990481
   226   6 C      227   6 C                                       1.3986613
   227   6 C      228   6 C                                       1.4282339
   228   6 C      229   6 C                                       1.3557157
   229   6 C      230   6 C                                       1.4315429
   227   6 C      231   7 N                                       1.3663898
   230   6 C      231   7 N                                       1.3742036
   230   6 C      232   6 C                                       1.3892309
   233   6 C      234   6 C                                       1.3983849
   234   6 C      235   6 C                                       1.3828456
   235   6 C      236   6 C                                       1.3918921
   237   7 N      238   8 O                                       1.2040612
   237   7 N      239   8 O                                       1.2040496
   236   6 C      240   6 C                                       1.3918735
   233   6 C      241   6 C                                       1.3982237
   240   6 C      241   6 C                                       1.3829921
   232   6 C      242   6 C                                       1.3881892
   242   6 C      243   6 C                                       1.4319348
   243   6 C      244   6 C                                       1.3554729
   205   6 C      245   6 C                                       1.3990826
   244   6 C      245   6 C                                       1.4283157
   242   6 C      246   7 N                                       1.3755783
   245   6 C      246   7 N                                       1.3655032
   207   6 C      247   1 H                                       1.0779668
   208   6 C      248   1 H                                       1.0777677
   213   6 C      249   1 H                                       1.0837380
   214   6 C      250   1 H                                       1.0833641
   219   6 C      251   1 H                                       1.0833663
   220   6 C      252   1 H                                       1.0837441
   222   6 C      253   1 H                                       1.0777404
   223   6 C      254   1 H                                       1.0779602
   228   6 C      255   1 H                                       1.0779725
   229   6 C      256   1 H                                       1.0777832
   234   6 C      257   1 H                                       1.0837474
   235   6 C      258   1 H                                       1.0833639
   240   6 C      259   1 H                                       1.0833713
   241   6 C      260   1 H                                       1.0837272
   243   6 C      261   1 H                                       1.0777371
   244   6 C      262   1 H                                       1.0779766

 * 4 distinct bonds (by element types)

   Z      Z             #   av. dist./Å        max./Å        min./Å
   1 H    6 C          66     1.0808175     1.0837579     1.0777337
   6 C    6 C         140     1.3820461     1.4342151     1.2248322
   6 C    7 N          32     1.3710050     1.3758749     1.3655032
   7 N    8 O          16     1.2041830     1.2043320     1.2040302


optimized geometry written to: xtbopt.xyz


           -------------------------------------------------
          | TOTAL ENERGY             -521.217273481632 Eh   |
          | GRADIENT NORM               0.000377869070 Eh/α |
          | HOMO-LUMO GAP               0.001347946281 eV   |
           -------------------------------------------------

------------------------------------------------------------------------
 * finished run on 2022/07/30 at 02:32:26.401     
------------------------------------------------------------------------
 total:
 * wall-time:     0 d,  0 h, 10 min, 43.252 sec
 *  cpu-time:     0 d,  0 h, 10 min, 39.336 sec
 * ratio c/w:     0.994 speedup
 SCF:
 * wall-time:     0 d,  0 h,  0 min, 53.366 sec
 *  cpu-time:     0 d,  0 h,  0 min, 53.046 sec
 * ratio c/w:     0.994 speedup
 ANC optimizer:
 * wall-time:     0 d,  0 h,  9 min, 49.527 sec
 *  cpu-time:     0 d,  0 h,  9 min, 45.945 sec
 * ratio c/w:     0.994 speedup

