189
 energy: -361.660845095076 gnorm: 2.042970176052 xtb: 6.5.1 (b24c23e)
Cu          38.59987099999999        0.01692300000000       -0.00316400000000
C           35.18184700000000       -0.09009200000000        0.08605700000000
C           35.84713800000000       -0.19168600000000        1.24018900000000
C           35.19927600000000       -0.33421500000000        2.53877400000000
C           36.14140100000000       -0.35523000000000        3.46321800000000
C           37.44444000000000       -0.22498000000000        2.79739500000000
N           37.26496099999999       -0.12631700000000        1.38432700000000
C           38.63359600000000       -0.15404900000000        3.42852000000000
C           39.92508099999999        0.00562100000000        2.71093700000000
C           41.21180700000000        0.22244300000000        3.38344300000000
C           42.14629300000000        0.28005600000000        2.45666900000000
N           40.06761800000000       -0.07290600000000        1.42313900000000
C           41.46474100000000        0.09294700000000        1.18154100000000
C           42.06106800000000        0.01247700000000       -0.01937400000000
C           41.30332899999999       -0.19757400000000       -1.27408800000000
C           41.84643600000000       -0.61018100000000       -2.41254900000000
C           40.80263900000000       -0.59846700000000       -3.41813000000000
C           39.69046600000000       -0.17534300000000       -2.82872800000000
C           38.40247000000000        0.04765000000000       -3.53489600000000
C           38.42025599999999        0.18359200000000       -5.01188500000000
C           37.77711300000000       -0.76342300000000       -5.82288400000000
C           37.81257400000000       -0.64100300000000       -7.21469500000000
C           38.49889099999999        0.42761300000000       -7.81919600000000
C           38.53994200000000        0.56165700000000       -9.29203300000000
O           39.22394000000000        1.62177800000000       -9.88162300000000
O           37.95681800000000       -0.28110600000000      -10.02661800000000
C           39.15003600000000        1.36844100000000       -7.00266000000000
C           39.11305400000000        1.24517600000000       -5.61085300000000
C           37.23595099999999        0.13090000000000       -2.86676100000000
C           35.92031699999999        0.38312700000000       -3.45239400000000
C           35.05887400000000        0.33392600000000       -2.45500100000000
C           35.81505199999999        0.06406200000000       -1.23339300000000
N           37.08503300000000       -0.05563200000000       -1.46096700000000
N           39.91611799999999        0.09661100000000       -1.44413200000000
C           38.67334500000000       -0.22572800000000        4.90435600000000
C           38.60912199999999       -1.46670100000000        5.55140800000000
C           38.64843800000000       -1.53517300000000        6.94692600000000
C           38.75380500000000       -0.36147900000000        7.71568600000000
C           38.79634600000000       -0.42824900000000        9.19302900000000
O           38.89952999999999        0.73881800000000        9.94573300000000
O           38.73976900000000       -1.54059100000000        9.78405900000000
C           38.81864899999999        0.88029500000000        7.05928800000000
C           38.77861300000000        0.94693600000000        5.66366800000000
H           34.09860000000000       -0.10871800000000        0.11423400000000
H           34.13583700000000       -0.40244400000000        2.72899100000000
H           35.95729200000000       -0.44202800000000        4.52629500000000
H           41.38680300000000        0.31529200000000        4.44711800000000
H           43.20263300000000        0.42527200000000        2.63960600000000
H           42.87984500000000       -0.88527700000000       -2.57541600000000
H           40.91949099999999       -0.86433900000000       -4.46077000000000
H           37.25134200000000       -1.59842200000000       -5.37606700000000
H           37.30527100000000       -1.38449100000000       -7.81667500000000
H           39.25818300000000        1.72293700000000      -10.88902200000000
H           39.68946199999999        2.20019400000000       -7.43790500000000
H           39.62214699999999        1.97947700000000       -4.99844500000000
H           35.67332900000000        0.57713100000000       -4.48783400000000
H           33.98959400000000        0.47703800000000       -2.53929400000000
H           38.52843500000000       -2.37975500000000        4.97425500000000
H           38.59672000000000       -2.50627600000000        7.42312800000000
H           38.92945400000000        0.70435900000000       10.95775300000000
H           38.90045099999999        1.80110900000000        7.62286300000000
H           38.82992999999999        1.91160200000000        5.17367900000000
Cu          60.26160699999999        0.01876200000000       -0.03496200000000
C           63.67963200000000       -0.07725100000000       -0.13592800000000
C           63.01434000000000       -0.04508200000000       -1.29407700000000
C           63.66220200000000       -0.03691800000000       -2.60043400000000
C           62.72007700000000        0.04880600000000       -3.52113500000000
C           61.41703900000000        0.10141000000000       -2.84473400000000
N           61.59651800000000        0.03647200000000       -1.42971600000000
C           60.22788200000000        0.24464300000000       -3.46347100000000
C           58.93639699999999        0.32050300000000       -2.73226200000000
C           57.64967100000000        0.61342600000000       -3.37528000000000
C           56.71518500000000        0.56378800000000       -2.44804500000000
N           58.79386100000000        0.09400100000000       -1.46211000000000
C           57.39673700000000        0.23089000000000       -1.20299900000000
C           56.80041000000000        0.01247700000000       -0.01937400000000
C           57.55814899999999       -0.34085600000000        1.20274900000000
C           57.01504200000000       -0.88198800000000        2.28603800000000
C           58.05883900000000       -0.98630700000000        3.28626200000000
C           59.17101200000000       -0.49804100000000        2.74958200000000
C           60.45900800000000       -0.35796500000000        3.47675300000000
C           60.44122200000000       -0.39324400000000        4.95956600000000
C           61.08436500000000       -1.42745900000000        5.65595300000000
C           61.04890499999999       -1.46634700000000        7.05259600000000
C           60.36258699999999       -0.47456600000000        7.77628900000000
C           60.32153599999999       -0.51125100000000        9.25475800000000
O           59.63753800000000        0.47381200000000        9.96266000000000
O           60.90465999999999       -1.43309800000000        9.88726200000000
C           59.71144200000000        0.55414200000000        7.07368800000000
C           59.74842400000000        0.59219100000000        5.67695200000000
C           61.62552699999999       -0.19822700000000        2.82267600000000
C           62.94116099999999       -0.01521300000000        3.43348700000000
C           63.80260400000000        0.05092600000000        2.43707300000000
C           63.04642599999999       -0.07627300000000        1.19249600000000
N           61.77644500000000       -0.22141000000000        1.40474900000000
N           58.94536099999999       -0.06824200000000        1.40558300000000
C           60.18813300000000        0.34362400000000       -4.93772700000000
C           60.25235599999999       -0.81445900000000       -5.72356200000000
C           60.21304000000000       -0.72155400000000       -7.11766600000000
C           60.10767300000000        0.53295700000000       -7.74595700000000
C           60.06513300000000        0.63698700000000       -9.22114500000000
O           59.96194799999999        1.88306400000000       -9.83425200000000
O           60.12170900000000       -0.39978200000000       -9.93649800000000
C           60.04282899999999        1.69075700000000       -6.95074700000000
C           60.08286500000000        1.59602200000000       -5.55675300000000
H           64.76287900000000       -0.09250300000000       -0.16606500000000
H           64.72564199999999       -0.08275800000000       -2.79725100000000
H           62.90418600000000        0.08517200000000       -4.58712900000000
H           57.47467600000000        0.82831000000000       -4.42115300000000
H           55.65884500000000        0.72912900000000       -2.61301600000000
H           55.98163300000000       -1.17403000000000        2.41609700000000
H           57.94198799999999       -1.37063500000000        4.29128900000000
H           61.61013599999999       -2.20536500000000        5.11583200000000
H           61.55620800000000       -2.27429100000000        7.56482800000000
H           59.60329500000000        0.45813200000000       10.97500300000000
H           59.17201700000000        1.33015800000000        7.60194000000000
H           59.23933099999999        1.39221200000000        5.15330200000000
H           63.18815000000000        0.05810000000000        4.48439000000000
H           64.87188399999999        0.18336300000000        2.53730700000000
H           60.33304300000000       -1.78797500000000       -5.25554400000000
H           60.26475900000000       -1.63126800000000       -7.70267000000000
H           59.93202400000000        1.96553300000000      -10.84349400000000
H           59.96102699999999        2.67041600000000       -7.40438200000000
H           60.03154799999999        2.49775200000000       -4.95879400000000
C           43.73145100000000        0.01247700000000       -0.01937400000000
C           44.95336900000000        0.01247700000000       -0.01937400000000
C           53.90810900000000        0.01247700000000       -0.01937400000000
C           55.13002700000000        0.01247700000000       -0.01937400000000
Cu          49.41669200000000        0.00403400000000       -0.02943400000000
C           45.96423900000000       -0.02618200000000        0.04065300000000
C           46.61933500000000       -1.20187100000000        0.03206300000000
C           45.97870100000000       -2.51405100000000       -0.07520200000000
C           46.91587700000000       -3.43944600000000       -0.01821000000000
C           48.21284500000000       -2.77470000000000        0.13790300000000
N           48.03450800000000       -1.35620300000000        0.16116400000000
C           49.39790400000000       -3.41021000000000        0.25691200000000
C           50.69230800000000       -2.69250300000000        0.37656500000000
C           51.95654700000000       -3.34063300000000        0.75234100000000
C           52.90920600000000       -2.43026300000000        0.69887800000000
N           50.86261000000000       -1.43513200000000        0.10826500000000
C           52.25871399999999       -1.19150000000000        0.29064000000000
C           52.87639100000000       -0.02618200000000        0.04065300000000
C           52.12670500000000        1.18698600000000       -0.34559000000000
C           52.65986300000000        2.23910700000000       -0.95404400000000
C           51.62660799999999        3.25507900000000       -1.03657100000000
C           50.53478500000000        2.75346300000000       -0.46934600000000
C           49.28118100000000        3.51126200000000       -0.24305500000000
C           49.33861600000000        4.99295500000000       -0.25054400000000
C           50.11410000000000        5.67089700000000        0.69911800000000
C           50.18883800000000        7.06600700000000        0.68099300000000
C           49.49609400000000        7.80594400000000       -0.29494300000000
C           49.56792699999999        9.28288900000000       -0.31561200000000
O           48.93553299999999       10.00461400000000       -1.32829900000000
O           50.19423599999999        9.90232100000000        0.58690200000000
C           48.73110399999999        7.12126800000000       -1.25407300000000
C           48.65478699999999        5.72609700000000       -1.23262700000000
C           48.11200699999999        2.88262600000000       -0.01776900000000
C           46.83787100000000        3.52499600000000        0.28749300000000
C           45.94849400000000        2.55579500000000        0.36618100000000
C           46.64399800000000        1.28770000000000        0.11752800000000
N           47.90892400000000        1.47185600000000       -0.10391400000000
N           50.76052800000000        1.42307900000000       -0.00681400000000
C           49.43941600000000       -4.89062000000000        0.26290500000000
C           48.92695400000000       -5.61318800000000        1.35184400000000
C           48.98709700000000       -7.00992500000000        1.36160300000000
C           49.56575299999999       -7.70608500000000        0.28382300000000
C           49.63533200000000       -9.18429400000000        0.29019300000000
O           50.20585699999999       -9.86435200000000       -0.78272000000000
O           49.18037500000000       -9.84166600000000        1.26492600000000
C           50.08224300000000       -6.97621500000000       -0.80239000000000
C           50.02132499999999       -5.57982500000000       -0.81090800000000
H           44.92402300000000       -2.72235200000000       -0.19187000000000
H           46.73033100000000       -4.50359000000000       -0.08519400000000
H           52.10312400000000       -4.37727000000000        1.02630900000000
H           53.95592800000000       -2.59978600000000        0.91983500000000
H           53.68191200000000        2.34046400000000       -1.29418000000000
H           51.74075499999999        4.25093000000000       -1.44559200000000
H           50.65663200000000        5.11804200000000        1.45623400000000
H           50.79148500000000        7.56431800000000        1.42811200000000
H           48.97724999999999       11.01615300000000       -1.35059400000000
H           48.18916500000000        7.66246300000000       -2.02158700000000
H           48.06687800000000        5.21539200000000       -1.98581000000000
H           46.63615300000000        4.57833700000000        0.43339400000000
H           44.89838400000000        2.69706900000000        0.58545600000000
H           48.48274200000000       -5.09378600000000        2.19330300000000
H           48.58316700000000       -7.54417900000000        2.21352900000000
H           50.25783899999999      -10.87648300000000       -0.78826200000000
H           50.53565199999999       -7.48284200000000       -1.64611200000000
H           50.42610200000000       -5.03428800000000       -1.65560900000000
189
 energy: -362.230921556520 gnorm: 0.518746943189 xtb: 6.5.1 (b24c23e)
Cu          38.59880890540977        0.01519079404646       -0.00479829375127
C           35.18275882147799       -0.08877464250037        0.07442486972264
C           35.85285506861879       -0.19170436251424        1.24218751560694
C           35.19816773013581       -0.33393587882634        2.53452021322686
C           36.14728386410837       -0.35506009129891        3.46519480746942
C           37.44217286105475       -0.22512646941270        2.79196291928730
N           37.25294544757435       -0.12704212210661        1.39675680723205
C           38.64410428571576       -0.15301953007645        3.42533666332696
C           39.91988793769553        0.00514057434370        2.72314955492306
C           41.20318126085243        0.22159378127297        3.39020734670988
C           42.14665479240342        0.27935502879394        2.45147756775847
N           40.07621357649837       -0.07015119613149        1.42047254496914
C           41.46704917251556        0.09370342763978        1.18256467155107
C           42.06899052187191        0.00953160571194       -0.02921841416734
C           41.30037242379856       -0.19115802004926       -1.26370764492231
C           41.84741473895365       -0.61304924283612       -2.42846533494189
C           40.81777584607080       -0.60112383427388       -3.41941097836062
C           39.68094647918826       -0.16898900412326       -2.82079851092971
C           38.41133630414641        0.04708775184888       -3.53002356662232
C           38.42329123761133        0.18217216574896       -5.01139447291488
C           37.77800959490706       -0.76070520743180       -5.82536401383494
C           37.81415901807622       -0.63837988930772       -7.21405063768937
C           38.50112637832711        0.43109726913307       -7.82116441070162
C           38.53627793664229        0.55669524194854       -9.30611829578112
O           39.22068852739756        1.61670894082410       -9.87727895201749
O           37.96393315902418       -0.27065392479523      -10.01988037267997
C           39.14924857169521        1.36753984281964       -7.00070926987915
C           39.11265285705176        1.24355942160604       -5.61317138030956
C           37.23440471923311        0.13113358796034       -2.86535817834243
C           35.92575395533837        0.38238304124295       -3.45334536365350
C           35.05323204342198        0.33331961042265       -2.44738771815047
C           35.80286786611143        0.06334984231032       -1.22654296306439
N           37.08702982235749       -0.05314532023015       -1.46801685820077
N           39.92202258621697        0.09325178322107       -1.44779650717999
C           38.67509609861878       -0.22548125536898        4.90612064279721
C           38.60911488380754       -1.46447653234408        5.55493752429801
C           38.64853918092274       -1.53211027824606        6.94704946232006
C           38.75414860126482       -0.35764976634717        7.71816385451653
C           38.79625095176733       -0.43625786865656        9.20612826853992
O           38.89900557554685        0.73347707868297        9.94064649074175
O           38.74050683127786       -1.52717304017558        9.77909637029947
C           38.81850894432181        0.87941254565430        7.05760535040167
C           38.77901461062325        0.94506506307768        5.66633407965646
H           34.09900451784616       -0.10822720474376        0.11221619155120
H           34.13589135242582       -0.40228033201118        2.72566484882638
H           35.96125350862919       -0.44193300641498        4.52660761487145
H           41.38347342349633        0.31500930055899        4.44883641053772
H           43.20218716105192        0.42507189828829        2.63569896366559
H           42.87994661148707       -0.88603415783098       -2.57740115640927
H           40.92140356871257       -0.86512619394887       -4.46061039462990
H           37.25197099614616       -1.59755652765067       -5.37636833772863
H           37.30603955653336       -1.38337180205811       -7.81756917659524
H           39.25369356442132        1.71551335662093      -10.87574177011550
H           39.68905206146379        2.19967108468260       -7.43841513130725
H           39.62172079327301        1.97877733192701       -4.99858152998298
H           35.67713145603946        0.57669223513573       -4.48767517556754
H           33.98833499958197        0.47669216673908       -2.53644420426016
H           38.52858194725926       -2.37870158325436        4.97478530817656
H           38.59686859025674       -2.50508505708933        7.42431295041818
H           38.92854675432024        0.69758964532680       10.94344822373558
H           38.90037657252397        1.80041917772020        7.62341800980469
H           38.82986748354613        1.91073296461244        5.17380320744612
Cu          60.26267817878362        0.01699462257862       -0.03352388638713
C           63.67869670001739       -0.07728857122633       -0.12428354401508
C           63.00866628563048       -0.04484182014838       -1.29608870494779
C           63.66334255915022       -0.03712362093957       -2.59621137243466
C           62.71423217507245        0.04920322791840       -3.52309337740512
C           61.41939115711875        0.10065499255942       -2.83924262225253
N           61.60860997005429        0.03703672694100       -1.44233808685097
C           60.21723439468772        0.24530907647673       -3.46014574208556
C           58.94162661859416        0.32139224744097       -2.74447904352604
C           57.65820510181218        0.61338027853911       -3.38212466802043
C           56.71476985897517        0.56248968936050       -2.44307869576365
N           58.78501001600814        0.09635999053978       -1.45914094961471
C           57.39431951799302        0.23195857500754       -1.20389008446378
C           56.79155083148382        0.00845566913222       -0.00931620822114
C           57.56088282036020       -0.33346180723197        1.19335764113917
C           57.01400224555749       -0.88674645755974        2.30167413569884
C           58.04364771367727       -0.98912367301650        3.28724970480006
C           59.18046704331095       -0.49076291533588        2.74238258434045
C           60.45013925391054       -0.35795889027386        3.47182545259987
C           60.43817470585104       -0.39460113636354        4.95892772121899
C           61.08347029466184       -1.42504740108762        5.65872238988793
C           61.04731488658022       -1.46366259863905        7.05226378346622
C           60.36034988165166       -0.47132918586322        7.77862966702297
C           60.32518386210732       -0.51779354529582        9.26821969865054
O           59.64081328399742        0.46925324809283        9.95774271464953
O           60.89755176008562       -1.42193713198938        9.88175600090623
C           59.71223501438565        0.55346866444325        7.07165131373992
C           59.74881970246943        0.59032098937503        5.67905646484045
C           61.62710066129867       -0.19782876893375        2.82131005120768
C           62.93575750245729       -0.01607437822286        3.43437062754289
C           63.80826240099758        0.05122265681739        2.42948113637204
C           63.05856786229766       -0.07619449258163        1.18569635031988
N           61.77459313070170       -0.21979586032201        1.41213777092261
N           58.93922083163699       -0.07199130117504        1.40889631864294
C           60.18636819617163        0.34408309393086       -4.93944351106333
C           60.25236441482772       -0.81184069758185       -5.72680850055310
C           60.21294033222025       -0.71849760819404       -7.11743429539906
C           60.10732936720853        0.53704874864382       -7.74797830522030
C           60.06523725392044        0.63055192739556       -9.23507448551938
O           59.96246478539961        1.87716156102530       -9.82981584421436
O           60.12095979660114       -0.38703890753966       -9.93002654749223
C           60.04296942929214        1.68968766301905       -6.94917619976391
C           60.08246292241509        1.59447484544355       -5.55961528622612
H           64.76247076725342       -0.09225548605060       -0.16401021021617
H           64.72559774674954       -0.08297657825603       -2.79393834178937
H           62.90022837136712        0.08530486867899       -4.58743543843856
H           57.47797979693776        0.82823655034482       -4.42289710880219
H           55.65926357948884        0.72851409764985       -2.60919641307464
H           55.98149555056938       -1.17505741138926        2.41804940577226
H           57.94006420239965       -1.37141393035814        4.29103646022889
H           61.60950734990146       -2.20454445804550        5.11622873682129
H           61.55543887294047       -2.27328248549483        7.56584438293661
H           59.60777431167847        0.45229559743609       10.96095422491433
H           59.17242774780829        1.32957610681024        7.60238348420418
H           59.23975923541962        1.39150197902098        5.15335749922049
H           63.18435244327193        0.05768426051265        4.48418716792745
H           64.87314881714549        0.18334798861262        2.53444213446312
H           60.33289683022881       -1.78686973082727       -5.25594867557679
H           60.26461158052206       -1.62994976466235       -7.70370924830336
H           59.93293768458650        1.95716279545209      -10.83006400705147
H           59.96110197970577        2.66979311168977       -7.40501204074440
H           60.03161019070717        2.49690024406069       -4.95901904070646
C           43.64687705515816        0.01300544024955       -0.02090241938334
C           44.81805505920443        0.02211232077838       -0.02710823745330
C           54.02903538342076        0.02503645041588       -0.02467559198572
C           55.20801669270110        0.01313191853275       -0.01932455974731
Cu          49.41557807049253        0.00533213133765       -0.02764872048358
C           46.07856256987276       -0.01966637825600        0.04687673958271
C           46.65698555040751       -1.21989145321386        0.03274286308502
C           45.97879859377095       -2.50681516073361       -0.07518347955882
C           46.92270554686250       -3.44246415412730       -0.01742759674211
C           48.21082919562397       -2.77199382673374        0.13768454593278
N           48.02999385650556       -1.37380250496014        0.16026578328835
C           49.40838800257455       -3.40923730066763        0.25818866864405
C           50.68622732482491       -2.70879057580674        0.37712727388886
C           51.94708423057310       -3.34847133975601        0.75210619226665
C           52.90761224708665       -2.42396722281670        0.69696309170622
N           50.86436998297970       -1.43778926432340        0.11035167566816
C           52.22818675972339       -1.20774618781609        0.29653047302957
C           52.77107281313666       -0.02148333831897        0.04077663933205
C           52.09807889743244        1.18785568328610       -0.34167783976247
C           52.65893281280486        2.25410126626158       -0.95844341551854
C           51.64159034777828        3.25672597062703       -1.03995460540987
C           50.52545235730159        2.74933385761627       -0.46164436598067
C           49.28998113929596        3.50730010414434       -0.24361403680008
C           49.34137251843914        4.99250005566614       -0.25249226996442
C           50.11336861760747        5.67399658275733        0.69699220069144
C           50.18673116189868        7.06587817554781        0.67857122111243
C           49.49415459351052        7.80833817983597       -0.29839307787005
C           49.57246796553306        9.29645875562025       -0.30945818732749
O           48.93863821946985        9.99943049323701       -1.32322342953347
O           50.18678115075689        9.89711553764445        0.57558785560811
C           48.73137568801153        7.11918598012667       -1.25327680252021
C           48.65548109716210        5.72787868619614       -1.23072780409328
C           48.11092799369761        2.88369818967940       -0.01762324336054
C           46.84343576846909        3.52621795906691        0.28614437702455
C           45.94362228309237        2.54652441967459        0.36647663567467
C           46.65603304540304        1.29268450462008        0.12059050857191
N           47.91815159781537        1.48468185117286       -0.10389691184826
N           50.75968215050361        1.43070743350298       -0.01112775614866
C           49.44144459975580       -4.89202231194061        0.26397154874902
C           48.92753146343377       -5.61649938724187        1.34934982044004
C           48.98839054168134       -7.00972807968242        1.35871870850926
C           49.56764484972752       -7.70832819759995        0.28025262890155
C           49.63270507593085       -9.19777221664985        0.29683837075626
O           50.20313714052518       -9.85964983267416       -0.77777574527776
O           49.18593589247833       -9.83584766289457        1.25316394554211
C           50.08160162970516       -6.97447172463751       -0.80147769734340
C           50.02113675174004       -5.58236729470474       -0.80890424392039
H           44.92384514010752       -2.71703877877049       -0.19160096815512
H           46.73398477174246       -4.50402526206954       -0.08474740338369
H           52.10003886879686       -4.37909551019435        1.02619921520734
H           53.95476946245164       -2.59486471110433        0.91868721970697
H           53.68142127633931        2.34137409592666       -1.29502946854375
H           51.74285767802512        4.25066154337746       -1.44677117947226
H           50.65610271117445        5.11852574376380        1.45543859018337
H           50.79085429037553        7.56556078333397        1.42731559849769
H           48.98068031878054       11.00204634819778       -1.34418407981216
H           48.18984423135002        7.66270040629601       -2.02085939693358
H           48.06740511043404        5.21533160519540       -1.98509489368301
H           46.63963625111625        4.57793278610758        0.43275188552829
H           44.89708896832995        2.69279071563508        0.58523741472404
H           48.48340438492509       -5.09426797944888        2.19217375710440
H           48.58392741681891       -7.54513135193729        2.21225669023566
H           50.25387792852846      -10.86254229522921       -0.78169132022083
H           50.53520609859101       -7.48332272654164       -1.64532172448497
H           50.42564511744728       -5.03445864279154       -1.65463744448127
189
 energy: -362.386019301207 gnorm: 0.282060705084 xtb: 6.5.1 (b24c23e)
Cu          38.59465409931588        0.00802573368346       -0.00623292190535
C           35.18475839961919       -0.08695819593586        0.05853897680523
C           35.85678368330619       -0.19152145267218        1.24268503638810