336
 energy: -620.865805158601 gnorm: 1.903155446444 xtb: 6.5.1 (b24c23e)
C           54.77407100000000       -0.17140400000000       -0.34030000000000
C           55.48586300000000        1.17992700000000       -0.64821600000000
C           54.85048999999999        2.37173000000000       -0.91301000000000
C           55.86134800000000        3.34366800000000       -1.12142300000000
C           57.08300400000000        2.71138400000000       -0.97865900000000
N           56.84118300000000        1.39311500000000       -0.68119900000000
C           58.51114399999999        3.38978600000000       -1.10375500000000
C           58.54823000000000        4.80848400000000       -1.53501300000000
C           58.70560099999999        5.84259400000000       -0.60380100000000
C           58.69660600000000        7.17333800000000       -1.03360300000000
C           58.88524699999999        8.24700700000000       -0.03083400000000
O           58.47495700000000        9.45197500000000       -0.48068500000000
O           59.34750000000000        8.13903300000000        1.08870400000000
C           58.53008400000000        7.47116700000000       -2.39506600000000
C           58.37915499999999        6.44120800000000       -3.32436000000000
C           58.38854900000000        5.11485800000000       -2.89416600000000
C           59.64507500000000        2.68708500000000       -0.84025300000000
C           60.95380000000000        3.30689500000000       -0.89304900000000
C           61.85974899999999        2.40084700000000       -0.54486300000000
N           59.84497900000000        1.37703000000000       -0.48853500000000
C           61.18293100000000        1.14313700000000       -0.29350300000000
C           61.86498200000000        0.01786500000000        0.05099300000000
C           61.11648899999999       -1.37438100000000        0.22465500000000
C           61.72295800000000       -2.61619500000000        0.24640000000000
C           60.70781100000000       -3.58745200000000        0.41695300000000
C           59.50430300000000       -2.91725400000000        0.48149200000000
N           59.75991499999999       -1.57010000000000        0.34805800000000
C           58.07871099999999       -3.59129100000000        0.65361100000000
C           58.02996800000000       -5.01548700000000        1.05405700000000
C           58.04594199999999       -6.02230700000000        0.07933300000000
C           58.01123100000000       -7.36667300000000        0.44956200000000
C           57.95455700000000       -7.71086200000000        1.80084200000000
C           57.93627300000000       -6.70963000000000        2.78431400000000
C           57.86644000000000       -7.12533000000000        4.20443000000000
O           58.04685900000000       -6.10517400000000        5.06168400000000
O           57.68579400000000       -8.26255400000000        4.60664400000000
C           57.97702399999999       -5.36291000000000        2.40972800000000
C           56.94855100000000       -2.87160900000000        0.43469600000000
C           55.62040799999999       -3.44965000000000        0.55170200000000
C           54.72906400000000       -2.50608400000000        0.26866700000000
C           55.45054400000000       -1.29266700000000       -0.02939500000000
N           56.77955099999999       -1.56177000000000        0.08275600000000
H           53.69045100000000       -0.19148000000000       -0.37307700000000
H           53.78222400000000        2.52567300000000       -0.94743400000000
H           55.71376500000000        4.38874700000000       -1.34779100000000
H           57.55422000000000        0.68674700000000       -0.51675800000000
H           58.83100900000000        5.59272000000000        0.44808100000000
H           58.65011999999999       10.02810200000000        0.29105900000000
H           58.52670500000000        8.50148600000000       -2.73883400000000
H           58.25570799999999        6.66275800000000       -4.38010100000000
H           58.26983200000000        4.30101400000000       -3.60916600000000
H           61.17169199999999        4.32762400000000       -1.14998200000000
H           62.91701100000000        2.58644000000000       -0.49212000000000
H           62.78079200000000       -2.81083600000000        0.14893600000000
H           60.84300400000000       -4.65754100000000        0.47509900000000
H           59.04669699999999       -0.84596200000000        0.29448100000000
H           58.08502900000000       -5.73851300000000       -0.97067800000000
H           58.02790800000000       -8.13773200000000       -0.31589200000000
H           57.92473300000000       -8.75940500000000        2.08728700000000
H           57.97509900000000       -6.50388400000000        5.94976000000000
H           57.96026999999999       -4.56619600000000        3.15196500000000
H           55.39054700000000       -4.46634500000000        0.81690000000000
H           53.66043100000000       -2.61925600000000        0.26521300000000
C          127.85764200000000        0.03036900000000       -0.38349100000000
C          127.14584900000000       -1.32859700000000       -0.11124300000000
C          127.78122200000000       -2.52436100000000        0.13504500000000
C          126.77036499999998       -3.49644700000000        0.34276900000000
C          125.54870900000000       -2.86112600000000        0.21419000000000
N          125.79052899999999       -1.53660500000000       -0.05406500000000
C          124.12056900000000       -3.53129100000000        0.37776700000000
C          124.08348300000000       -5.00221200000000        0.56506000000000
C          123.92611200000000       -5.56450300000000        1.83799600000000
C          123.93510700000000       -6.95458100000000        1.99061200000000
C          123.74646599999998       -7.52367200000000        3.34502900000000
O          124.15675600000000       -8.80720400000000        3.42786600000000
O          123.28421299999999       -6.96686400000000        4.32226400000000
C          124.10162800000001       -7.78364300000000        0.87037100000000
C          124.25255799999998       -7.22435400000000       -0.39911700000000
C          124.24316399999999       -5.83812400000000       -0.54957700000000
C          122.98663700000000       -2.78229800000000        0.33052000000000
C          121.67791299999999       -3.36940900000000        0.53607700000000
C          120.77196400000000       -2.40022200000000        0.48285100000000
N          122.78673399999998       -1.44306100000000        0.11513200000000
C          121.44878199999999       -1.14982500000000        0.19732700000000
C          120.76673099999999        0.01786500000000        0.05099300000000
C          121.51522400000000        1.35920200000000       -0.36049500000000
C          120.90875500000000        2.50110100000000       -0.84900500000000
C          121.92390200000000        3.45706700000000       -1.09099300000000
C          123.12740900000000        2.87201700000000       -0.75775700000000
N          122.87179799999998        1.58828800000000       -0.32802500000000
C          124.55300200000001        3.55744800000000       -0.87664400000000
C          124.60174400000000        5.02077200000000       -1.09430000000000
C          124.58577099999998        5.54035300000000       -2.39576400000000
C          124.62048100000000        6.91847200000000       -2.60830900000000
C          124.67715599999998        7.78566300000000       -1.51633600000000
C          124.69543899999999        7.27476200000000       -0.20917700000000
C          124.76527200000000        8.23537600000000        0.91632600000000
O          124.58485399999999        7.65554000000000        2.11607300000000
O          124.94591900000000        9.43759800000000        0.81775800000000
C          124.65468799999998        5.89271100000000        0.00035600000000
C          125.68316200000000        2.81121400000000       -0.78176700000000
C          127.01130499999998        3.38650100000000       -0.91164100000000
C          127.90264899999998        2.40975400000000       -0.78361500000000
C          127.18116899999998        1.18065100000000       -0.55883200000000
N          125.85216199999999        1.47208300000000       -0.56666900000000
H          128.94126199999999        0.03526800000000       -0.42161500000000
H          128.84948900000001       -2.67890700000000        0.16665500000000
H          126.91794800000000       -4.54261400000000        0.56405100000000
H          125.07749199999999       -0.82481900000000       -0.19319300000000
H          123.80070400000000       -4.90592500000000        2.69541600000000
H          123.98159300000000       -9.01692300000000        4.36782800000000
H          124.10500800000000       -8.86440300000000        0.97849900000000
H          124.37600399999998       -7.85867000000000       -1.27165100000000
H          124.36188100000000       -5.38828900000000       -1.53507900000000
H          121.46001999999999       -4.40587200000000        0.71950600000000
H          119.71470199999999       -2.54796100000000        0.60694700000000
H          119.85092100000000        2.63878800000000       -1.01760800000000
H          121.78870900000000        4.45718900000000       -1.47599500000000
H          123.58501600000000        0.90567200000000       -0.08047300000000
H          124.54668400000000        4.85159200000000       -3.23759100000000
H          124.60380499999999        7.30861800000000       -3.62233000000000
H          124.70697899999999        8.85958400000000       -1.68422500000000
H          124.65661400000000        8.38285600000000        2.76311200000000
H          124.67144199999998        5.46965400000000        1.00369700000000
H          127.24116600000001        4.42266700000000       -1.08587800000000
H          128.97128100000000        2.51159500000000       -0.83309400000000
C           68.05010500000000        0.01896800000000        0.05948300000000
C           66.84116600000000        0.00551300000000        0.05103500000000
C           65.41963699999999        0.01433200000000        0.03905200000000
C           64.20796700000000        0.02177100000000        0.04991500000000
C           69.46670899999998        0.01229300000000        0.06001600000000
C           70.68740500000000        0.02177100000000        0.04991500000000
C           83.96316899999999        0.01896800000000        0.05948300000000
C           82.75422900000000        0.00551300000000        0.05103500000000
C           81.33270000000000        0.01433200000000        0.03905200000000
C           80.12103100000000        0.02177100000000        0.04991500000000
C           85.37977299999999        0.01229300000000        0.06001600000000
C           86.60046900000000        0.02177100000000        0.04991500000000
C           99.87623200000000        0.01896800000000        0.05948300000000
C           98.66729300000000        0.00551300000000        0.05103500000000
C           97.24576399999998        0.01433200000000        0.03905200000000
C           96.03409399999998        0.02177100000000        0.04991500000000
C          101.29283599999999        0.01229300000000        0.06001600000000
C          102.51353200000000        0.02177100000000        0.04991500000000
C          115.78929599999999        0.01896800000000        0.05948300000000
C          114.58035599999999        0.00551300000000        0.05103500000000
C          113.15882700000000        0.01433200000000        0.03905200000000
C          111.94715799999999        0.02177100000000        0.04991500000000
C          117.20590000000000        0.01229300000000        0.06001600000000
C          118.42659600000000        0.02177100000000        0.04991500000000
C           71.75217900000000       -0.01491100000000       -0.04098400000000
C           72.54792800000000        1.35161800000000       -0.13843000000000
C           72.04744799999999        2.57112600000000       -0.54715000000000
C           73.08626900000000        3.52603500000000       -0.39991300000000
C           74.18951500000000        2.85810100000000        0.08830800000000
N           73.87494000000000        1.52485100000000        0.16918800000000
C           75.57556599999998        3.50333800000000        0.49580600000000
C           75.55720899999999        4.89455500000000        1.00022600000000
C           75.93622300000000        5.96241200000000        0.17669500000000
C           75.90358200000000        7.27142000000000        0.66908500000000
C           76.30894700000000        8.37811100000000       -0.23061600000000
O           76.28075200000001        9.58301300000000        0.37544300000000
O           76.64269600000000        8.29464200000000       -1.39782900000000
C           75.48884400000000        7.51142200000000        1.98802400000000
C           75.10819100000001        6.44882400000000        2.80855200000000
C           75.14161400000000        5.14574200000000        2.31421200000000
C           76.71295499999999        2.76186400000000        0.45064000000000
C           77.99821900000001        3.28677700000000        0.86349500000000
C           78.90758800000000        2.32900100000000        0.71794800000000
N           76.92379500000000        1.46664400000000        0.06766100000000
C           78.24720100000000        1.14464400000000        0.20707500000000
C           78.91063400000000       -0.01491100000000       -0.04098400000000
C           78.11539700000000       -1.27293100000000       -0.58445300000000
C           78.61842700000000       -2.29088900000000       -1.36880500000000
C           77.58055199999998       -3.24166300000000       -1.54506300000000
C           76.47461600000000       -2.77106400000000       -0.86848300000000
N           76.78806800000000       -1.53842300000000       -0.35285300000000
C           75.08611300000000       -3.51343300000000       -0.70480300000000
C           75.09421600000000       -4.99325000000000       -0.75049100000000
C           74.65810500000001       -5.66557700000000       -1.90060100000000
C           74.67781800000000       -7.05877300000000       -1.95586500000000
C           75.13858500000001       -7.78830800000000       -0.85920800000000
C           75.58042299999998       -7.12541800000000        0.29554800000000
C           76.06185499999999       -7.94737000000000        1.43114000000000
O           76.45267799999999       -7.21440200000000        2.48723000000000
O           76.11821900000000       -9.16531600000000        1.45718800000000
C           75.55880700000000       -5.72757000000000        0.34750000000000
C           73.95040599999999       -2.79841900000000       -0.49229100000000
C           72.66329699999999       -3.42980700000000       -0.28456300000000
C           71.75448400000001       -2.47782300000000       -0.10224000000000
C           72.41649300000000       -1.19155500000000       -0.18443600000000
N           73.74180200000001       -1.44984900000000       -0.41148200000000
H           71.04219399999999        2.75958500000000       -0.89232300000000
H           73.02922199999999        4.58389200000000       -0.60733600000000
H           74.53248700000000        0.77952500000000        0.37928800000000
H           76.25726899999998        5.75416400000000       -0.84254200000000
H           76.57312300000000       10.17944100000000       -0.34396600000000
H           75.45778399999999        8.52189700000000        2.38458000000000
H           74.78566599999999        6.62793600000000        3.82955000000000
H           74.84741199999999        4.30852900000000        2.94494000000000
H           78.19374500000001        4.27796400000000        1.23119700000000
H           79.95213800000001        2.43343500000000        0.94831700000000
H           79.62495699999999       -2.35540000000000       -1.75348300000000
H           77.63983899999998       -4.17312000000000       -2.08756700000000
H           76.12951600000000       -0.90413200000000        0.08992700000000
H           74.29984500000000       -5.08344500000000       -2.74804100000000
H           74.33409999999999       -7.56721000000000       -2.85125000000000
H           75.15276399999999       -8.87416300000000       -0.90573500000000
H           76.74423500000000       -7.86789200000000        3.15124800000000
H           75.89730400000001       -5.18875900000000        1.23003600000000
H           72.46690800000000       -4.48682200000000       -0.26946300000000
H           70.70938800000000       -2.65236500000000        0.07756300000000
C           87.66524300000000       -0.01491100000000       -0.04098400000000
C           88.46099099999999        1.35161800000000       -0.13843000000000
C           87.96051100000000        2.57112600000000       -0.54715000000000
C           88.99933200000000        3.52603500000000       -0.39991300000000
C           90.10257799999999        2.85810100000000        0.08830800000000
N           89.78800399999999        1.52485100000000        0.16918800000000
C           91.48862900000000        3.50333800000000        0.49580600000000
C           91.47027199999999        4.89455500000000        1.00022600000000
C           91.84928700000000        5.96241200000000        0.17669500000000
C           91.81664499999999        7.27142000000000        0.66908500000000
C           92.22201099999999        8.37811100000000       -0.23061600000000
O           92.19381599999998        9.58301300000000        0.37544300000000
O           92.55575899999998        8.29464200000000       -1.39782900000000
C           91.40190800000001        7.51142200000000        1.98802400000000
C           91.02125400000000        6.44882400000000        2.80855200000000
C           91.05467699999998        5.14574200000000        2.31421200000000
C           92.62601800000000        2.76186400000000        0.45064000000000
C           93.91128300000000        3.28677700000000        0.86349500000000
C           94.82065200000000        2.32900100000000        0.71794800000000
N           92.83685800000001        1.46664400000000        0.06766100000000
C           94.16026399999998        1.14464400000000        0.20707500000000
C           94.82369700000000       -0.01491100000000       -0.04098400000000
C           94.02846000000000       -1.27293100000000       -0.58445300000000
C           94.53148999999999       -2.29088900000000       -1.36880500000000
C           93.49361599999999       -3.24166300000000       -1.54506300000000
C           92.38767900000001       -2.77106400000000       -0.86848300000000
N           92.70113200000000       -1.53842300000000       -0.35285300000000
C           90.99917600000001       -3.51343300000000       -0.70480300000000
C           91.00727999999999       -4.99325000000000       -0.75049100000000
C           90.57116900000000       -5.66557700000000       -1.90060100000000
C           90.59088099999998       -7.05877300000000       -1.95586500000000
C           91.05164799999999       -7.78830800000000       -0.85920800000000
C           91.49348699999999       -7.12541800000000        0.29554800000000
C           91.97491900000000       -7.94737000000000        1.43114000000000
O           92.36574199999998       -7.21440200000000        2.48723000000000
O           92.03128200000000       -9.16531600000000        1.45718800000000
C           91.47187099999999       -5.72757000000000        0.34750000000000
C           89.86346899999999       -2.79841900000000       -0.49229100000000
C           88.57636099999999       -3.42980700000000       -0.28456300000000
C           87.66754700000000       -2.47782300000000       -0.10224000000000
C           88.32955600000000       -1.19155500000000       -0.18443600000000
N           89.65486499999999       -1.44984900000000       -0.41148200000000
H           86.95525800000000        2.75958500000000       -0.89232300000000
H           88.94228599999998        4.58389200000000       -0.60733600000000
H           90.44555000000000        0.77952500000000        0.37928800000000
H           92.17033299999999        5.75416400000000       -0.84254200000000
H           92.48618700000000       10.17944100000000       -0.34396600000000
H           91.37084800000000        8.52189700000000        2.38458000000000
H           90.69872900000000        6.62793600000000        3.82955000000000
H           90.76047500000000        4.30852900000000        2.94494000000000
H           94.10680900000000        4.27796400000000        1.23119700000000
H           95.86520100000000        2.43343500000000        0.94831700000000
H           95.53802000000000       -2.35540000000000       -1.75348300000000
H           93.55290299999999       -4.17312000000000       -2.08756700000000
H           92.04257900000000       -0.90413200000000        0.08992700000000
H           90.21290800000000       -5.08344500000000       -2.74804100000000
H           90.24716300000000       -7.56721000000000       -2.85125000000000
H           91.06582800000000       -8.87416300000000       -0.90573500000000
H           92.65729899999999       -7.86789200000000        3.15124800000000
H           91.81036700000000       -5.18875900000000        1.23003600000000
H           88.37997099999998       -4.48682200000000       -0.26946300000000
H           86.62245200000000       -2.65236500000000        0.07756300000000
C          103.57830600000000       -0.01491100000000       -0.04098400000000
C          104.37405500000000        1.35161800000000       -0.13843000000000
C          103.87357500000000        2.57112600000000       -0.54715000000000
C          104.91239600000000        3.52603500000000       -0.39991300000000
C          106.01564200000000        2.85810100000000        0.08830800000000
N          105.70106699999998        1.52485100000000        0.16918800000000
C          107.40169299999999        3.50333800000000        0.49580600000000
C          107.38333600000000        4.89455500000000        1.00022600000000
C          107.76235000000000        5.96241200000000        0.17669500000000
C          107.72970899999999        7.27142000000000        0.66908500000000
C          108.13507399999999        8.37811100000000       -0.23061600000000
O          108.10687899999999        9.58301300000000        0.37544300000000
O          108.46882299999999        8.29464200000000       -1.39782900000000
C          107.31497100000000        7.51142200000000        1.98802400000000
C          106.93431799999999        6.44882400000000        2.80855200000000
C          106.96774100000000        5.14574200000000        2.31421200000000
C          108.53908199999999        2.76186400000000        0.45064000000000
C          109.82434599999999        3.28677700000000        0.86349500000000
C          110.73371500000000        2.32900100000000        0.71794800000000
N          108.74992199999998        1.46664400000000        0.06766100000000
C          110.07332799999999        1.14464400000000        0.20707500000000
C          110.73676100000000       -0.01491100000000       -0.04098400000000
C          109.94152399999999       -1.27293100000000       -0.58445300000000
C          110.44455399999998       -2.29088900000000       -1.36880500000000
C          109.40667900000000       -3.24166300000000       -1.54506300000000
C          108.30074300000000       -2.77106400000000       -0.86848300000000
N          108.61419499999998       -1.53842300000000       -0.35285300000000
C          106.91224000000000       -3.51343300000000       -0.70480300000000
C          106.92034300000000       -4.99325000000000       -0.75049100000000
C          106.48423200000001       -5.66557700000000       -1.90060100000000
C          106.50394499999999       -7.05877300000000       -1.95586500000000
C          106.96471199999999       -7.78830800000000       -0.85920800000000
C          107.40655000000000       -7.12541800000000        0.29554800000000
C          107.88798199999999       -7.94737000000000        1.43114000000000
O          108.27880500000001       -7.21440200000000        2.48723000000000
O          107.94434599999998       -9.16531600000000        1.45718800000000
C          107.38493400000000       -5.72757000000000        0.34750000000000
C          105.77653300000000       -2.79841900000000       -0.49229100000000
C          104.48942400000000       -3.42980700000000       -0.28456300000000
C          103.58061100000000       -2.47782300000000       -0.10224000000000
C          104.24262000000000       -1.19155500000000       -0.18443600000000
N          105.56792899999999       -1.44984900000000       -0.41148200000000
H          102.86832099999999        2.75958500000000       -0.89232300000000
H          104.85534900000000        4.58389200000000       -0.60733600000000
H          106.35861400000000        0.77952500000000        0.37928800000000
H          108.08339599999999        5.75416400000000       -0.84254200000000
H          108.39924999999999       10.17944100000000       -0.34396600000000
H          107.28391100000000        8.52189700000000        2.38458000000000
H          106.61179199999999        6.62793600000000        3.82955000000000
H          106.67353900000001        4.30852900000000        2.94494000000000
H          110.01987200000001        4.27796400000000        1.23119700000000
H          111.77826500000000        2.43343500000000        0.94831700000000
H          111.45108399999999       -2.35540000000000       -1.75348300000000
H          109.46596599999999       -4.17312000000000       -2.08756700000000
H          107.95564299999998       -0.90413200000000        0.08992700000000
H          106.12597200000000       -5.08344500000000       -2.74804100000000
H          106.16022700000001       -7.56721000000000       -2.85125000000000
H          106.97889100000000       -8.87416300000000       -0.90573500000000
H          108.57036199999999       -7.86789200000000        3.15124800000000
H          107.72343100000001       -5.18875900000000        1.23003600000000
H          104.29303499999999       -4.48682200000000       -0.26946300000000
H          102.53551499999999       -2.65236500000000        0.07756300000000
336
 energy: -621.506113693574 gnorm: 0.644112597878 xtb: 6.5.1 (b24c23e)
C           54.78663668541922       -0.15069843018646       -0.34502780889724
C           55.48153670496679        1.16618761406164       -0.64471017835033
C           54.85304341525419        2.37607292444649       -0.91409043602408
C           55.85862845461768        3.34203430533823       -1.12141606860735
C           57.09694248579979        2.71542620127320       -0.97945604789111
N           56.84141389253449        1.39328236458336       -0.68133281071203
C           58.49059161756847        3.37735809651488       -1.10141157620559
C           58.54423478494257        4.80539422160429       -1.53424676604463
C           58.70598453618639        5.84034762495523       -0.60583985029085
C           58.69752707172069        7.17149702323735       -1.03432764734241
C           58.88551461270151        8.24784865611870       -0.03009080993673
O           58.47660242196480        9.45129871583653       -0.47698551893487
O           59.34537724818851        8.13617468460773        1.08379650745434
C           58.52986899138203        7.46952236912952       -2.39493479711305
C           58.37974679814467        6.44048044975403       -3.32171498705777
C           58.38805819094267        5.11503841405421       -2.89272302690460
C           59.64836175318273        2.68263319358185       -0.83873665492442
C           60.95504576602689        3.31113124977227       -0.89370814580618
C           61.86531778532839        2.40200780125257       -0.54520527083130
N           59.84182183100143        1.37203321691604       -0.48631430206731
C           61.18766104946197        1.14277845010772       -0.29309596438023
C           61.86319971619707       -0.00271458492427        0.05053752511452
C           61.12608382040252       -1.36025874474061        0.22194440044770
C           61.72191153714070       -2.61911337400987        0.24794458133768
C           60.71091367203764       -3.58538461830742        0.41709520657329
C           59.49090027600916       -2.92039984421401        0.48273056824614
N           59.76145130527047       -1.56929209633484        0.34797084085140
C           58.09923450485901       -3.57910148277927        0.65114867879366
C           58.03369536770536       -5.01339843442796        1.05313638349078
C           58.04619786703396       -6.02191211597360        0.08052651074414
C           58.01106742675550       -7.36493189150929        0.45117893682499
C           57.95440035384649       -7.70981511965943        1.79909014932914
C           57.93576460108011       -6.71050384175179        2.78225256125090
C           57.86704159991601       -7.12700428350179        4.20530048870194
O           58.04579207331116       -6.10791670127749        5.06231674927718
O           57.68645206274066       -8.25767898372149        4.60328971766871
C           57.97726624187545       -5.36273795181189        2.40767653120477
C           56.94589094230411       -2.86769971711940        0.43449773476539
C           55.61940534037506       -3.45486554429925        0.55304598199472
C           54.72499008552118       -2.50851875202470        0.26916449122965
C           55.45432707426633       -1.29531280135950       -0.02875085081529
N           56.78504408164216       -1.55780212259976        0.08198075547915
H           53.69562745795940       -0.18690704532915       -0.37391678569524
H           53.78359682836030        2.52683933406475       -0.94775654511406
H           55.71305234750444        4.38789535887003       -1.34767618064493
H           57.55360317855315        0.68751336543526       -0.51686949306420