      -----------------------------------------------------------      
     |                   =====================                   |     
     |                           x T B                           |     
     |                   =====================                   |     
     |                         S. Grimme                         |     
     |          Mulliken Center for Theoretical Chemistry        |     
     |                    University of Bonn                     |     
      -----------------------------------------------------------      

   * xtb version 6.5.1 (b24c23e) compiled by 'conda@728c89f4b128' on 2022-07-12

   xtb is free software: you can redistribute it and/or modify it under
   the terms of the GNU Lesser General Public License as published by
   the Free Software Foundation, either version 3 of the License, or
   (at your option) any later version.
   
   xtb is distributed in the hope that it will be useful,
   but WITHOUT ANY WARRANTY; without even the implied warranty of
   MERCHANTABILITY or FITNESS FOR A PARTICULAR PURPOSE.  See the
   GNU Lesser General Public License for more details.
   
   Cite this work as:
   * C. Bannwarth, E. Caldeweyher, S. Ehlert, A. Hansen, P. Pracht,
     J. Seibert, S. Spicher, S. Grimme, WIREs Comput. Mol. Sci., 2020, 11,
     e01493. DOI: 10.1002/wcms.1493
   
   for GFN2-xTB:
   * C. Bannwarth, S. Ehlert and S. Grimme., J. Chem. Theory Comput., 2019,
     15, 1652-1671. DOI: 10.1021/acs.jctc.8b01176
   for GFN1-xTB:
   * S. Grimme, C. Bannwarth, P. Shushkov, J. Chem. Theory Comput., 2017,
     13, 1989-2009. DOI: 10.1021/acs.jctc.7b00118
   for GFN0-xTB:
   * P. Pracht, E. Caldeweyher, S. Ehlert, S. Grimme, ChemRxiv, 2019, preprint.
     DOI: 10.26434/chemrxiv.8326202.v1
   for GFN-FF:
   * S. Spicher and S. Grimme, Angew. Chem. Int. Ed., 2020, 59, 15665-15673.
     DOI: 10.1002/anie.202004239
   
   for ALPB and GBSA implicit solvation:
   * S. Ehlert, M. Stahn, S. Spicher, S. Grimme, J. Chem. Theory Comput.,
     2021, 17, 4250-4261. DOI: 10.1021/acs.jctc.1c00471
   
   for DFT-D4:
   * E. Caldeweyher, C. Bannwarth and S. Grimme, J. Chem. Phys., 2017,
     147, 034112. DOI: 10.1063/1.4993215
   * E. Caldeweyher, S. Ehlert, A. Hansen, H. Neugebauer, S. Spicher,
     C. Bannwarth and S. Grimme, J. Chem. Phys., 2019, 150, 154122.
     DOI: 10.1063/1.5090222
   * E. Caldeweyher, J.-M. Mewes, S. Ehlert and S. Grimme, Phys. Chem. Chem. Phys.
     2020, 22, 8499-8512. DOI: 10.1039/D0CP00502A
   
   for sTDA-xTB:
   * S. Grimme and C. Bannwarth, J. Chem. Phys., 2016, 145, 054103.
     DOI: 10.1063/1.4959605
   
   in the mass-spec context:
   * V. Asgeirsson, C. Bauer and S. Grimme, Chem. Sci., 2017, 8, 4879.
     DOI: 10.1039/c7sc00601b
   * J. Koopman and S. Grimme, ACS Omega 2019, 4, 12, 15120-15133.
     DOI: 10.1021/acsomega.9b02011
   
   for metadynamics refer to:
   * S. Grimme, J. Chem. Theory Comput., 2019, 155, 2847-2862
     DOI: 10.1021/acs.jctc.9b00143
   
   for SPH calculations refer to:
   * S. Spicher and S. Grimme, J. Chem. Theory Comput., 2021, 17, 1701-1714
     DOI: 10.1021/acs.jctc.0c01306
   
   with help from (in alphabetical order)
   P. Atkinson, C. Bannwarth, F. Bohle, G. Brandenburg, E. Caldeweyher
   M. Checinski, S. Dohm, S. Ehlert, S. Ehrlich, I. Gerasimov, C. Hölzer
   A. Katbashev, J. Koopman, C. Lavigne, S. Lehtola, F. März, M. Müller,
   F. Musil, H. Neugebauer, J. Pisarek, C. Plett, P. Pracht, F. Pultar,
   J. Seibert, P. Shushkov, S. Spicher, M. Stahn, M. Steiner, T. Strunk,
   J. Stückrath, T. Rose, and J. Unsleber
   
 * started run on 2022/07/30 at 06:35:20.469     

           -------------------------------------------------
          |                Calculation Setup                |
           -------------------------------------------------

          program call               : xtb xtbopt.xyz --gfn 1 --vipea
          hostname                   : cx3-2-25.cx3.hpc.ic.ac.uk
          coordinate file            : xtbopt.xyz
          omp threads                :                     1

   ID    Z sym.   atoms
    1    6 C      1-5, 7-10, 12-20, 22-26, 28-32, 35, 36, 38-42, 44, 74-78,
                  80-83, 85-93, 95-99, 101-105, 108, 109, 111-115, 117,
                  147-179, 181-184, 186-194, 196-200, 202-206, 209, 210,
                  212-216, 218, 247-251, 253-256, 258-266, 268-272, 274-278,
                  281, 282, 284-288, 290, 319-323, 325-328, 330-338, 340-344,
                  346-350, 353, 354, 356-360, 362, 391-395, 397-400, 402-410,
                  412-416, 418-422, 425, 426, 428-432, 434, 463-467, 469-472,
                  474-482, 484-488, 490-494, 497, 498, 500-504, 506, 535-539,
                  541-544, 546-554, 556-560, 562-566, 569, 570, 572-576, 578
    2    7 N      6, 11, 33, 34, 79, 84, 106, 107, 180, 185, 207, 208, 252,
                  257, 279, 280, 324, 329, 351, 352, 396, 401, 423, 424, 468,
                  473, 495, 496, 540, 545, 567, 568
    3    8 O      21, 27, 37, 43, 94, 100, 110, 116, 195, 201, 211, 217, 267,
                  273, 283, 289, 339, 345, 355, 361, 411, 417, 427, 433, 483,
                  489, 499, 505, 555, 561, 571, 577
    4    1 H      45-73, 118-146, 219-246, 291-318, 363-390, 435-462,
                  507-534, 579-606

           -------------------------------------------------
          |                 I P E A - x T B                 |
           -------------------------------------------------

        Reference                      10.1039/c7sc00601b
      * Hamiltonian:
        H0-scaling (s, p, d)           2.150000    2.300000    2.000000
        zeta-weighting                 0.000000
      * Dispersion:
        s8                             2.400000
        a1                             0.630000
        a2                             5.000000
        s9                             0.000000
      * Repulsion:
        kExp                           1.500000
        rExp                           1.000000
      * Coulomb:
        alpha                          1.000000
        third order                    atomic
        anisotropic                    false
      * Halogen bond correction:
        rad-scale                      1.300000
        damping                        0.440000


          ...................................................
          :                      SETUP                      :
          :.................................................:
          :  # basis functions                2352          :
          :  # atomic orbitals                2352          :
          :  # shells                         1592          :
          :  # electrons                      1842          :
          :  # halogen bonds                     0          :
          :  max. iterations                   250          :
          :  Hamiltonian                  GFN1-xTB          :
          :  restarted?                      false          :
          :  GBSA solvation                  false          :
          :  PC potential                    false          :
          :  electronic temp.          300.0000000     K    :
          :  accuracy                    1.0000000          :
          :  -> integral cutoff          0.2500000E+02      :
          :  -> integral neglect         0.1000000E-07      :
          :  -> SCF convergence          0.1000000E-05 Eh   :
          :  -> wf. convergence          0.2000000E-04 e    :
          :  Broyden damping             0.4000000          :
          ...................................................

 iter      E             dE          RMSdq      gap      omega  full diag
   1  -1177.9931242 -0.117799E+04  0.961E+00    0.52       0.0  T
   2  -1180.4555869 -0.246246E+01  0.598E+00    1.10       1.0  T
   3  -1164.2027555  0.162528E+02  0.438E+00    0.15       1.0  T
   4  -1182.5540950 -0.183513E+02  0.109E+00    1.05       1.0  T
   5  -1184.2394718 -0.168538E+01  0.283E-01    0.83       1.0  T
   6  -1184.3534197 -0.113948E+00  0.930E-02    0.88       1.0  T
   7  -1184.3613357 -0.791598E-02  0.441E-02    0.87       1.0  T
   8  -1184.3625692 -0.123358E-02  0.321E-02    0.87       1.0  T
   9  -1184.3631255 -0.556304E-03  0.205E-02    0.87       1.0  T
  10  -1184.3634928 -0.367306E-03  0.536E-03    0.87       1.0  T
  11  -1184.3635142 -0.213314E-04  0.202E-03    0.88       2.0  T
  12  -1184.3635187 -0.447846E-05  0.826E-04    0.88       4.9  T
  13  -1184.3635195 -0.804108E-06  0.389E-04    0.88      10.4  T
  14  -1184.3635196 -0.168108E-06  0.136E-04    0.88      29.9  T
  15  -1184.3635196 -0.131427E-07  0.612E-05    0.88      66.4  T

   *** convergence criteria satisfied after 15 iterations ***

         #    Occupation            Energy/Eh            Energy/eV
      -------------------------------------------------------------
         1        2.0000           -1.0547015             -28.6999
       ...           ...                  ...                  ...
       915        2.0000           -0.3805428             -10.3551
       916        2.0000           -0.3764951             -10.2450
       917        2.0000           -0.3740709             -10.1790
       918        2.0000           -0.3718498             -10.1185
       919        2.0000           -0.3673090              -9.9950
       920        2.0000           -0.3623016              -9.8587
       921        2.0000           -0.3584803              -9.7547 (HOMO)
       922                         -0.3263165              -8.8795 (LUMO)
       923                         -0.3222214              -8.7681
       924                         -0.3169764              -8.6254
       925                         -0.3122052              -8.4955
       926                         -0.3096492              -8.4260
       ...                                ...                  ...
      2352                        616.8566326           16785.5234
      -------------------------------------------------------------
                  HL-Gap            0.0321638 Eh            0.8752 eV
             Fermi-level           -0.3423963 Eh           -9.3171 eV

 SCC (total)                   0 d,  0 h,  1 min,  9.934 sec
 SCC setup                      ...        0 min,  0.042 sec (  0.060%)
 Dispersion                     ...        0 min,  0.046 sec (  0.065%)
 classical contributions        ...        0 min,  0.012 sec (  0.017%)
 integral evaluation            ...        0 min,  2.587 sec (  3.700%)
 iterations                     ...        1 min,  1.485 sec ( 87.919%)
 molecular gradient             ...        0 min,  5.028 sec (  7.190%)
 printout                       ...        0 min,  0.733 sec (  1.049%)

         :::::::::::::::::::::::::::::::::::::::::::::::::::::
         ::                     SUMMARY                     ::
         :::::::::::::::::::::::::::::::::::::::::::::::::::::
         :: total energy           -1162.998816054005 Eh    ::
         :: gradient norm              0.123808153250 Eh/a0 ::
         :: HOMO-LUMO gap              0.875221942140 eV    ::
         ::.................................................::
         :: SCC energy             -1184.363519642199 Eh    ::
         :: -> electrostatic           0.753149456147 Eh    ::
         :: repulsion energy          21.896155984790 Eh    ::
         :: dispersion energy         -0.531452396595 Eh    ::
         :: halogen bond corr.         0.000000000000 Eh    ::
         :: add. restraining           0.000000000000 Eh    ::
         :: total charge               0.000000000394 e     ::
         :::::::::::::::::::::::::::::::::::::::::::::::::::::

           ------------------------------------------------- 
          |        vertical delta SCC IP calculation        |
           ------------------------------------------------- 
   1  -1183.9826854 -0.118398E+04  0.442E-02    0.88       0.0  T
   2  -1183.9809213  0.176407E-02  0.514E-02    0.82       1.0  T
   3  -1183.9875152 -0.659392E-02  0.234E-02    0.87       1.0  T
   4  -1183.9864829  0.103235E-02  0.243E-02    0.86       1.0  T
   5  -1183.9878878 -0.140494E-02  0.162E-02    0.86       1.0  T
   6  -1183.9886686 -0.780751E-03  0.796E-03    0.87       1.0  T
   7  -1183.9888100 -0.141416E-03  0.495E-03    0.87       1.0  T
   8  -1183.9888497 -0.396954E-04  0.182E-03    0.87       2.2  T
   9  -1183.9888547 -0.504430E-05  0.867E-04    0.87       4.7  T
  10  -1183.9888555 -0.795181E-06  0.437E-04    0.87       9.3  T
  11  -1183.9888558 -0.272238E-06  0.212E-04    0.87      19.2  T
  12  -1183.9888558 -0.444043E-07  0.850E-05    0.87      47.8  T
  13  -1183.9888559 -0.546083E-08  0.493E-05    0.87      82.4  T
     SCC iter.                  ...        0 min, 54.000 sec
     gradient                   ...        0 min,  4.959 sec
------------------------------------------------------------------------
empirical IP shift (eV):    4.8455
delta SCC IP (eV):    5.3496
------------------------------------------------------------------------
           ------------------------------------------------- 
          |        vertical delta SCC EA calculation        |
           ------------------------------------------------- 
   1  -1184.6563938 -0.118466E+04  0.731E-02    0.14       0.0  T
   2  -1184.6627940 -0.640021E-02  0.687E-02    0.03       1.0  T
   3  -1184.6713781 -0.858405E-02  0.369E-02    0.09       1.0  T
   4  -1184.6715692 -0.191148E-03  0.304E-02    0.06       1.0  T
   5  -1184.6689402  0.262905E-02  0.300E-02    0.08       1.0  T
   6  -1184.6707254 -0.178525E-02  0.233E-02    0.08       1.0  T
   7  -1184.6733388 -0.261340E-02  0.692E-03    0.07       1.0  T
   8  -1184.6734134 -0.745561E-04  0.316E-03    0.06       1.3  T
   9  -1184.6734230 -0.963903E-05  0.206E-03    0.06       2.0  T
  10  -1184.6734277 -0.473721E-05  0.651E-04    0.06       6.2  T
  11  -1184.6734281 -0.353504E-06  0.367E-04    0.06      11.1  T
  12  -1184.6734283 -0.185073E-06  0.155E-04    0.06      26.2  T
  13  -1184.6734283 -0.323053E-07  0.661E-05    0.06      61.5  T
     SCC iter.                  ...        0 min, 52.809 sec
     gradient                   ...        0 min,  4.935 sec
------------------------------------------------------------------------
empirical EA shift (eV):    4.8455
delta SCC EA (eV):    3.5875
------------------------------------------------------------------------
           -------------------------------------------------
          |                Property Printout                |
           -------------------------------------------------

    * Orbital Energies and Occupations

         #    Occupation            Energy/Eh            Energy/eV
      -------------------------------------------------------------
         1        2.0000           -1.0339922             -28.1364
       ...           ...                  ...                  ...
       910        2.0000           -0.3571304              -9.7180
       911        2.0000           -0.3569823              -9.7140
       912        2.0000           -0.3565025              -9.7009
       913        2.0000           -0.3564459              -9.6994
       914        2.0000           -0.3532167              -9.6115
       915        2.0000           -0.3523735              -9.5886
       916        2.0000           -0.3504150              -9.5353
       917        2.0000           -0.3471544              -9.4466
       918        2.0000           -0.3421577              -9.3106
       919        2.0000           -0.3364144              -9.1543
       920        2.0000           -0.3307140              -8.9992
       921        2.0000           -0.3257761              -8.8648
       922        0.7657           -0.2938471              -7.9960 (HOMO)
       923        0.2224           -0.2915328              -7.9330 (LUMO)
       924        0.0107           -0.2884238              -7.8484
       925        0.0011           -0.2862606              -7.7895
       926        0.0000           -0.2830935              -7.7034
       927        0.0000           -0.2824908              -7.6870
       928        0.0000           -0.2813901              -7.6570
       929                         -0.2773086              -7.5459
       930                         -0.2743900              -7.4665
       931                         -0.2737810              -7.4500
       932                         -0.2720494              -7.4028
       933                         -0.2713833              -7.3847
       ...                                ...                  ...
      2352                        616.8860262           16786.3232
      -------------------------------------------------------------
                  HL-Gap            0.0023143 Eh            0.0630 eV
             Fermi-level           -0.3012862 Eh           -8.1984 eV

  Mulliken/CM5 charges         n(s)   n(p)   n(d)
     1C    -0.02214 -0.06290   1.090  2.932  0.000
     2C     0.06227  0.12270   1.108  2.830  0.000
     3C    -0.03371 -0.07898   1.084  2.950  0.000
     4C    -0.03026 -0.07488   1.077  2.953  0.000
     5C     0.06528  0.12885   1.102  2.833  0.000
     6N    -0.15661 -0.51029   1.305  3.852  0.000
     7C     0.01843  0.02510   1.086  2.895  0.000
     8C     0.06263  0.13023   1.115  2.823  0.000
     9C    -0.03542 -0.08138   1.084  2.951  0.000
    10C    -0.03662 -0.08209   1.093  2.943  0.000
    11N    -0.28122 -0.46851   1.281  4.000  0.000
    12C     0.06448  0.13509   1.131  2.804  0.000
    13C     0.01771  0.02500   1.087  2.895  0.000
    14C     0.06671  0.13155   1.112  2.821  0.000
    15C    -0.03142 -0.07584   1.083  2.949  0.000
    16C    -0.02976 -0.07434   1.076  2.954  0.000
    17C     0.06495  0.12814   1.100  2.835  0.000
    18C     0.01808  0.02479   1.087  2.895  0.000
    19C    -0.01094 -0.00980   1.048  2.963  0.000
    20C     0.09678  0.11629   1.107  2.796  0.000
    21O    -0.23505 -0.32481   1.605  4.630  0.000
    22C     0.03532 -0.08439   1.105  2.859  0.000
    23C    -0.04394 -0.09408   1.078  2.966  0.000
    24C    -0.03135 -0.08673   1.088  2.943  0.000
    25C    -0.04687 -0.09890   1.046  3.001  0.000
    26C     0.09427  0.11342   1.108  2.798  0.000
    27O    -0.23241 -0.32176   1.612  4.621  0.000
    28C     0.03413 -0.08664   1.108  2.858  0.000
    29C     0.06345  0.13197   1.118  2.819  0.000
    30C    -0.03567 -0.08171   1.086  2.949  0.000
    31C    -0.03870 -0.08509   1.094  2.945  0.000
    32C     0.05949  0.12524   1.127  2.814  0.000
    33N    -0.28332 -0.47119   1.280  4.003  0.000
    34N    -0.15453 -0.50743   1.307  3.848  0.000
    35C    -0.01073 -0.00959   1.049  2.962  0.000
    36C     0.09652  0.11601   1.107  2.797  0.000
    37O    -0.23574 -0.32540   1.605  4.630  0.000
    38C     0.03528 -0.08445   1.105  2.859  0.000
    39C    -0.04386 -0.09401   1.078  2.966  0.000
    40C    -0.03143 -0.08681   1.088  2.943  0.000
    41C    -0.04682 -0.09884   1.046  3.001  0.000
    42C     0.09430  0.11347   1.108  2.798  0.000
    43O    -0.23234 -0.32164   1.612  4.620  0.000
    44C     0.03410 -0.08665   1.108  2.858  0.000
    45H     0.03032  0.08924   0.970  0.000  0.000
    46H     0.04012  0.09677   0.960  0.000  0.000
    47H     0.03328  0.09205   0.967  0.000  0.000
    48H     0.16389  0.37227   0.836  0.000  0.000
    49H     0.02439  0.08319   0.976  0.000  0.000
    50H     0.02522  0.08320   0.975  0.000  0.000
    51H     0.03606  0.09409   0.964  0.000  0.000
    52H     0.03428  0.09320   0.966  0.000  0.000
    53H     0.02889  0.09106   0.971  0.000  0.000
    54H     0.04465  0.10493   0.955  0.000  0.000
    55H     0.02859  0.09103   0.971  0.000  0.000
    56H     0.03457  0.09468   0.965  0.000  0.000
    57H     0.03288  0.08890   0.967  0.000  0.000
    58H     0.03474  0.09434   0.965  0.000  0.000
    59H     0.04613  0.10642   0.954  0.000  0.000
    60H     0.03514  0.09404   0.965  0.000  0.000
    61H     0.03643  0.09530   0.964  0.000  0.000
    62H     0.02361  0.08231   0.976  0.000  0.000
    63H     0.02979  0.08618   0.970  0.000  0.000
    64H     0.16262  0.37098   0.837  0.000  0.000
    65H     0.02981  0.09194   0.970  0.000  0.000
    66H     0.04467  0.10493   0.955  0.000  0.000
    67H     0.02737  0.08966   0.973  0.000  0.000
    68H     0.03459  0.09467   0.965  0.000  0.000
    69H     0.03279  0.08880   0.967  0.000  0.000
    70H     0.03466  0.09425   0.965  0.000  0.000
    71H     0.03486  0.09369   0.965  0.000  0.000
    72H     0.04609  0.10639   0.954  0.000  0.000
    73H     0.03649  0.09542   0.964  0.000  0.000
    74C    -0.02264 -0.06341   1.090  2.933  0.000
    75C     0.06219  0.12263   1.108  2.830  0.000
    76C    -0.03397 -0.07923   1.084  2.950  0.000
    77C    -0.03037 -0.07499   1.077  2.953  0.000
    78C     0.06504  0.12857   1.102  2.833  0.000
    79N    -0.15685 -0.51056   1.305  3.852  0.000
    80C     0.01841  0.02509   1.086  2.895  0.000
    81C     0.06237  0.12998   1.114  2.823  0.000
    82C    -0.03556 -0.08150   1.084  2.951  0.000
    83C    -0.03688 -0.08234   1.093  2.944  0.000
    84N    -0.28126 -0.46859   1.281  4.000  0.000
    85C     0.06431  0.13496   1.131  2.804  0.000
    86C     0.01726  0.02455   1.087  2.896  0.000
    87C     0.06641  0.13127   1.112  2.821  0.000
    88C    -0.03197 -0.07638   1.082  2.950  0.000
    89C    -0.03035 -0.07493   1.076  2.955  0.000
    90C     0.06449  0.12768   1.100  2.836  0.000
    91C     0.01775  0.02446   1.086  2.896  0.000
    92C    -0.01084 -0.00969   1.049  2.962  0.000
    93C     0.09680  0.11631   1.107  2.796  0.000
    94O    -0.23503 -0.32480   1.605  4.630  0.000
    95C     0.03535 -0.08438   1.105  2.859  0.000
    96C    -0.04406 -0.09420   1.078  2.966  0.000
    97C    -0.03158 -0.08696   1.088  2.944  0.000
    98C    -0.04709 -0.09911   1.046  3.001  0.000
    99C     0.09419  0.11334   1.108  2.798  0.000
   100O    -0.23239 -0.32172   1.612  4.621  0.000
   101C     0.03413 -0.08663   1.108  2.858  0.000
   102C     0.06308  0.13160   1.117  2.820  0.000
   103C    -0.03595 -0.08200   1.086  2.950  0.000
   104C    -0.03894 -0.08533   1.094  2.945  0.000
   105C     0.05934  0.12511   1.127  2.814  0.000
   106N    -0.28370 -0.47154   1.280  4.003  0.000
   107N    -0.15462 -0.50751   1.307  3.847  0.000
   108C    -0.01044 -0.00929   1.049  2.961  0.000
   109C     0.09640  0.11588   1.107  2.797  0.000
   110O    -0.23644 -0.32602   1.605  4.631  0.000
   111C     0.03538 -0.08436   1.106  2.859  0.000
   112C    -0.04364 -0.09380   1.078  2.965  0.000
   113C    -0.03141 -0.08678   1.088  2.943  0.000
   114C    -0.04667 -0.09869   1.046  3.000  0.000
   115C     0.09430  0.11344   1.108  2.798  0.000
   116O    -0.23237 -0.32167   1.612  4.620  0.000
   117C     0.03411 -0.08664   1.108  2.858  0.000
   118H     0.02987  0.08878   0.970  0.000  0.000
   119H     0.03971  0.09637   0.960  0.000  0.000
   120H     0.03298  0.09174   0.967  0.000  0.000
   121H     0.16362  0.37201   0.836  0.000  0.000
   122H     0.02422  0.08305   0.976  0.000  0.000
   123H     0.02509  0.08306   0.975  0.000  0.000
   124H     0.03541  0.09343   0.965  0.000  0.000
   125H     0.03354  0.09244   0.966  0.000  0.000
   126H     0.02904  0.09120   0.971  0.000  0.000
   127H     0.04463  0.10491   0.955  0.000  0.000
   128H     0.02864  0.09106   0.971  0.000  0.000
   129H     0.03430  0.09440   0.966  0.000  0.000
   130H     0.03246  0.08848   0.968  0.000  0.000
   131H     0.03434  0.09393   0.966  0.000  0.000
   132H     0.04591  0.10620   0.954  0.000  0.000
   133H     0.03501  0.09391   0.965  0.000  0.000
   134H     0.03594  0.09480   0.964  0.000  0.000
   135H     0.02318  0.08186   0.977  0.000  0.000
   136H     0.02937  0.08577   0.971  0.000  0.000
   137H     0.16244  0.37081   0.838  0.000  0.000
   138H     0.03019  0.09228   0.970  0.000  0.000
   139H     0.04456  0.10481   0.955  0.000  0.000
   140H     0.02689  0.08921   0.973  0.000  0.000
   141H     0.03466  0.09472   0.965  0.000  0.000
   142H     0.03277  0.08879   0.967  0.000  0.000
   143H     0.03457  0.09415   0.965  0.000  0.000
   144H     0.03478  0.09361   0.965  0.000  0.000
   145H     0.04580  0.10609   0.954  0.000  0.000
   146H     0.03633  0.09526   0.964  0.000  0.000
   147C    -0.01824 -0.01906   1.062  2.956  0.000
   148C    -0.02058 -0.02215   1.089  2.931  0.000
   149C    -0.02243 -0.02323   1.058  2.964  0.000
   150C    -0.01577 -0.01733   1.095  2.921  0.000
   151C    -0.02114 -0.02195   1.061  2.961  0.000
   152C    -0.02061 -0.02216   1.090  2.931  0.000
   153C    -0.02282 -0.02362   1.059  2.964  0.000
   154C    -0.01890 -0.02044   1.092  2.927  0.000
   155C    -0.02187 -0.02268   1.060  2.962  0.000
   156C    -0.01987 -0.02142   1.091  2.929  0.000
   157C    -0.02214 -0.02294   1.060  2.963  0.000
   158C    -0.01953 -0.02108   1.091  2.929  0.000
   159C    -0.02194 -0.02275   1.060  2.962  0.000
   160C    -0.01961 -0.02116   1.091  2.929  0.000
   161C    -0.02194 -0.02275   1.060  2.962  0.000
   162C    -0.01960 -0.02115   1.091  2.929  0.000
   163C    -0.02212 -0.02293   1.060  2.962  0.000
   164C    -0.01955 -0.02111   1.091  2.929  0.000
   165C    -0.02191 -0.02272   1.060  2.962  0.000
   166C    -0.01982 -0.02137   1.090  2.929  0.000
   167C    -0.02280 -0.02361   1.059  2.964  0.000
   168C    -0.01905 -0.02060   1.092  2.927  0.000
   169C    -0.02136 -0.02217   1.060  2.961  0.000
   170C    -0.02058 -0.02213   1.090  2.931  0.000
   171C    -0.02281 -0.02362   1.058  2.964  0.000
   172C    -0.01641 -0.01797   1.094  2.922  0.000
   173C    -0.01894 -0.01976   1.062  2.957  0.000
   174C    -0.02096 -0.02253   1.089  2.932  0.000
   175C     0.01342  0.02074   1.082  2.904  0.000
   176C     0.06620  0.13112   1.111  2.823  0.000
   177C    -0.03481 -0.07920   1.080  2.955  0.000
   178C    -0.03084 -0.07501   1.077  2.953  0.000
   179C     0.06373  0.12816   1.103  2.833  0.000
   180N    -0.15558 -0.50805   1.312  3.843  0.000
   181C     0.01913  0.02809   1.097  2.884  0.000
   182C     0.06120  0.13005   1.121  2.818  0.000
   183C    -0.03604 -0.08124   1.087  2.949  0.000
   184C    -0.03859 -0.08397   1.091  2.947  0.000
   185N    -0.28332 -0.46962   1.293  3.991  0.000
   186C     0.06444  0.13539   1.131  2.804  0.000
   187C     0.01641  0.02370   1.086  2.898  0.000
   188C     0.06604  0.13100   1.112  2.822  0.000
   189C    -0.03339 -0.07780   1.080  2.953  0.000
   190C    -0.03108 -0.07564   1.075  2.956  0.000
   191C     0.06320  0.12648   1.098  2.839  0.000
   192C     0.01948  0.02609   1.087  2.894  0.000
   193C    -0.01025 -0.00917   1.049  2.961  0.000
   194C     0.09439  0.11347   1.108  2.798  0.000
   195O    -0.23215 -0.32167   1.612  4.621  0.000
   196C     0.03443 -0.08634   1.108  2.858  0.000
   197C    -0.04712 -0.09915   1.046  3.001  0.000
   198C    -0.03167 -0.08706   1.088  2.944  0.000
   199C    -0.04404 -0.09419   1.078  2.966  0.000
   200C     0.09716  0.11661   1.108  2.795  0.000
   201O    -0.23510 -0.32498   1.605  4.630  0.000
   202C     0.03573 -0.08404   1.105  2.859  0.000
   203C     0.06103  0.12829   1.113  2.826  0.000
   204C    -0.03615 -0.08217   1.085  2.951  0.000
   205C    -0.03897 -0.08446   1.092  2.947  0.000
   206C     0.06389  0.13456   1.131  2.806  0.000
   207N    -0.28179 -0.46895   1.280  4.002  0.000
   208N    -0.15343 -0.50646   1.307  3.847  0.000
   209C    -0.00811 -0.00567   1.068  2.940  0.000
   210C     0.09554  0.11461   1.105  2.800  0.000
   211O    -0.23087 -0.32069   1.610  4.621  0.000
   212C     0.03457 -0.08624   1.108  2.858  0.000
   213C    -0.04650 -0.09857   1.048  2.998  0.000
   214C    -0.03221 -0.08774   1.089  2.943  0.000
   215C    -0.04609 -0.09817   1.048  2.998  0.000
   216C     0.09651  0.11558   1.106  2.798  0.000
   217O    -0.22948 -0.31950   1.611  4.619  0.000
   218C     0.03487 -0.08594   1.108  2.857  0.000
   219H     0.03250  0.09055   0.967  0.000  0.000
   220H     0.03125  0.09123   0.969  0.000  0.000
   221H     0.16325  0.37137   0.837  0.000  0.000
   222H     0.02195  0.08203   0.978  0.000  0.000
   223H     0.02353  0.08152   0.976  0.000  0.000
   224H     0.03449  0.09250   0.966  0.000  0.000
   225H     0.03226  0.09141   0.968  0.000  0.000
   226H     0.04578  0.10608   0.954  0.000  0.000
   227H     0.03540  0.09426   0.965  0.000  0.000
   228H     0.03479  0.09369   0.965  0.000  0.000
   229H     0.03366  0.09327   0.966  0.000  0.000
   230H     0.03173  0.08775   0.968  0.000  0.000
   231H     0.03359  0.09369   0.966  0.000  0.000
   232H     0.04376  0.10401   0.956  0.000  0.000
   233H     0.02781  0.09038   0.972  0.000  0.000
   234H     0.02947  0.09160   0.971  0.000  0.000
   235H     0.02169  0.08065   0.978  0.000  0.000
   236H     0.02140  0.07934   0.979  0.000  0.000
   237H     0.16367  0.37171   0.836  0.000  0.000
   238H     0.03575  0.09464   0.964  0.000  0.000
   239H     0.03556  0.09443   0.964  0.000  0.000
   240H     0.04721  0.10750   0.953  0.000  0.000
   241H     0.03272  0.09225   0.967  0.000  0.000
   242H     0.03086  0.08687   0.969  0.000  0.000
   243H     0.03314  0.09268   0.967  0.000  0.000
   244H     0.03610  0.09504   0.964  0.000  0.000
   245H     0.04681  0.10712   0.953  0.000  0.000
   246H     0.03477  0.09359   0.965  0.000  0.000
   247C     0.01420  0.02149   1.084  2.902  0.000
   248C     0.06613  0.13112   1.112  2.822  0.000
   249C    -0.03487 -0.07924   1.079  2.956  0.000
   250C    -0.03137 -0.07553   1.077  2.954  0.000
   251C     0.06310  0.12746   1.102  2.835  0.000
   252N    -0.15514 -0.50762   1.313  3.842  0.000
   253C     0.01933  0.02828   1.097  2.884  0.000
   254C     0.06078  0.12957   1.120  2.819  0.000
   255C    -0.03625 -0.08146   1.087  2.950  0.000
   256C    -0.03904 -0.08442   1.091  2.948  0.000
   257N    -0.28364 -0.46987   1.293  3.991  0.000
   258C     0.06432  0.13529   1.131  2.804  0.000
   259C     0.01538  0.02266   1.085  2.900  0.000
   260C     0.06595  0.13093   1.112  2.822  0.000
   261C    -0.03400 -0.07841   1.080  2.954  0.000
   262C    -0.03125 -0.07580   1.075  2.956  0.000
   263C     0.06265  0.12593   1.097  2.840  0.000
   264C     0.02026  0.02685   1.088  2.892  0.000
   265C    -0.01013 -0.00905   1.049  2.961  0.000
   266C     0.09439  0.11348   1.108  2.798  0.000
   267O    -0.23211 -0.32160   1.612  4.621  0.000
   268C     0.03448 -0.08628   1.108  2.858  0.000
   269C    -0.04721 -0.09924   1.046  3.001  0.000
   270C    -0.03172 -0.08711   1.088  2.944  0.000
   271C    -0.04401 -0.09416   1.078  2.966  0.000
   272C     0.09736  0.11684   1.107  2.795  0.000
   273O    -0.23482 -0.32472   1.605  4.630  0.000
   274C     0.03587 -0.08390   1.105  2.859  0.000
   275C     0.06022  0.12724   1.112  2.828  0.000
   276C    -0.03642 -0.08247   1.085  2.952  0.000
   277C    -0.03903 -0.08451   1.091  2.948  0.000
   278C     0.06413  0.13506   1.131  2.805  0.000
   279N    -0.28109 -0.46825   1.281  4.000  0.000
   280N    -0.15356 -0.50662   1.307  3.847  0.000
   281C    -0.00791 -0.00547   1.068  2.940  0.000
   282C     0.09567  0.11474   1.105  2.800  0.000
   283O    -0.23057 -0.32041   1.610  4.620  0.000
   284C     0.03468 -0.08613   1.108  2.858  0.000
   285C    -0.04654 -0.09861   1.048  2.998  0.000
   286C    -0.03241 -0.08794   1.089  2.943  0.000
   287C    -0.04626 -0.09833   1.048  2.998  0.000
   288C     0.09646  0.11552   1.106  2.798  0.000
   289O    -0.22945 -0.31944   1.611  4.619  0.000
   290C     0.03491 -0.08590   1.108  2.857  0.000
   291H     0.03291  0.09093   0.967  0.000  0.000
   292H     0.03075  0.09074   0.969  0.000  0.000
   293H     0.16293  0.37101   0.837  0.000  0.000
   294H     0.02145  0.08151   0.979  0.000  0.000
   295H     0.02287  0.08084   0.977  0.000  0.000
   296H     0.03382  0.09182   0.966  0.000  0.000
   297H     0.03179  0.09092   0.968  0.000  0.000
   298H     0.04562  0.10591   0.954  0.000  0.000
   299H     0.03508  0.09394   0.965  0.000  0.000
   300H     0.03472  0.09362   0.965  0.000  0.000
   301H     0.03340  0.09300   0.967  0.000  0.000
   302H     0.03150  0.08752   0.968  0.000  0.000
   303H     0.03357  0.09368   0.966  0.000  0.000
   304H     0.04382  0.10408   0.956  0.000  0.000
   305H     0.02828  0.09084   0.972  0.000  0.000
   306H     0.02912  0.09128   0.971  0.000  0.000
   307H     0.02150  0.08044   0.978  0.000  0.000
   308H     0.02187  0.07983   0.978  0.000  0.000
   309H     0.16356  0.37158   0.836  0.000  0.000
   310H     0.03544  0.09434   0.965  0.000  0.000
   311H     0.03558  0.09445   0.964  0.000  0.000
   312H     0.04742  0.10771   0.953  0.000  0.000
   313H     0.03246  0.09200   0.968  0.000  0.000
   314H     0.03040  0.08641   0.970  0.000  0.000
   315H     0.03272  0.09225   0.967  0.000  0.000
   316H     0.03578  0.09472   0.964  0.000  0.000
   317H     0.04667  0.10698   0.953  0.000  0.000
   318H     0.03454  0.09336   0.965  0.000  0.000
   319C     0.01501  0.02229   1.084  2.901  0.000
   320C     0.06621  0.13122   1.112  2.822  0.000
   321C    -0.03449 -0.07885   1.079  2.955  0.000
   322C    -0.03128 -0.07544   1.077  2.954  0.000
   323C     0.06329  0.12765   1.102  2.834  0.000
   324N    -0.15499 -0.50748   1.313  3.842  0.000
   325C     0.01930  0.02825   1.097  2.884  0.000
   326C     0.06088  0.12967   1.120  2.819  0.000
   327C    -0.03621 -0.08142   1.087  2.950  0.000
   328C    -0.03904 -0.08441   1.091  2.948  0.000
   329N    -0.28366 -0.46992   1.293  3.991  0.000
   330C     0.06435  0.13534   1.131  2.804  0.000
   331C     0.01529  0.02258   1.085  2.900  0.000
   332C     0.06599  0.13099   1.112  2.822  0.000
   333C    -0.03396 -0.07837   1.080  2.954  0.000
   334C    -0.03114 -0.07568   1.075  2.956  0.000
   335C     0.06273  0.12601   1.097  2.840  0.000
   336C     0.02033  0.02693   1.088  2.892  0.000
   337C    -0.01014 -0.00906   1.049  2.961  0.000
   338C     0.09439  0.11348   1.108  2.798  0.000
   339O    -0.23214 -0.32164   1.612  4.621  0.000
   340C     0.03449 -0.08626   1.108  2.858  0.000
   341C    -0.04719 -0.09921   1.046  3.001  0.000
   342C    -0.03167 -0.08705   1.088  2.944  0.000
   343C    -0.04394 -0.09408   1.078  2.966  0.000
   344C     0.09741  0.11689   1.108  2.795  0.000
   345O    -0.23475 -0.32466   1.605  4.629  0.000
   346C     0.03589 -0.08388   1.105  2.859  0.000
   347C     0.06034  0.12733   1.112  2.827  0.000
   348C    -0.03631 -0.08237   1.085  2.952  0.000
   349C    -0.03873 -0.08421   1.091  2.947  0.000
   350C     0.06420  0.13513   1.131  2.805  0.000
   351N    -0.28084 -0.46801   1.281  4.000  0.000
   352N    -0.15358 -0.50664   1.307  3.847  0.000
   353C    -0.00792 -0.00548   1.068  2.940  0.000
   354C     0.09569  0.11477   1.105  2.800  0.000
   355O    -0.23054 -0.32040   1.610  4.620  0.000
   356C     0.03471 -0.08610   1.108  2.858  0.000
   357C    -0.04651 -0.09858   1.048  2.998  0.000
   358C    -0.03241 -0.08793   1.089  2.943  0.000
   359C    -0.04627 -0.09834   1.048  2.998  0.000
   360C     0.09645  0.11552   1.106  2.798  0.000
   361O    -0.22946 -0.31943   1.611  4.619  0.000
   362C     0.03491 -0.08589   1.108  2.857  0.000
   363H     0.03328  0.09131   0.967  0.000  0.000
   364H     0.03092  0.09091   0.969  0.000  0.000
   365H     0.16297  0.37105   0.837  0.000  0.000
   366H     0.02146  0.08150   0.979  0.000  0.000
   367H     0.02280  0.08077   0.977  0.000  0.000
   368H     0.03380  0.09182   0.966  0.000  0.000
   369H     0.03184  0.09097   0.968  0.000  0.000
   370H     0.04560  0.10590   0.954  0.000  0.000
   371H     0.03502  0.09388   0.965  0.000  0.000
   372H     0.03481  0.09371   0.965  0.000  0.000
   373H     0.03341  0.09301   0.967  0.000  0.000
   374H     0.03156  0.08758   0.968  0.000  0.000
   375H     0.03366  0.09378   0.966  0.000  0.000
   376H     0.04387  0.10413   0.956  0.000  0.000
   377H     0.02837  0.09096   0.972  0.000  0.000
   378H     0.02909  0.09124   0.971  0.000  0.000
   379H     0.02170  0.08065   0.978  0.000  0.000
   380H     0.02226  0.08022   0.978  0.000  0.000
   381H     0.16359  0.37162   0.836  0.000  0.000
   382H     0.03537  0.09427   0.965  0.000  0.000
   383H     0.03571  0.09458   0.964  0.000  0.000
   384H     0.04749  0.10778   0.953  0.000  0.000
   385H     0.03250  0.09203   0.968  0.000  0.000
   386H     0.03038  0.08639   0.970  0.000  0.000
   387H     0.03269  0.09222   0.967  0.000  0.000
   388H     0.03568  0.09462   0.964  0.000  0.000
   389H     0.04666  0.10697   0.953  0.000  0.000
   390H     0.03462  0.09344   0.965  0.000  0.000
   391C     0.01517  0.02246   1.085  2.900  0.000
   392C     0.06625  0.13127   1.111  2.822  0.000
   393C    -0.03440 -0.07877   1.080  2.955  0.000
   394C    -0.03123 -0.07539   1.077  2.954  0.000
   395C     0.06333  0.12769   1.102  2.834  0.000
   396N    -0.15495 -0.50746   1.313  3.842  0.000
   397C     0.01931  0.02827   1.097  2.884  0.000
   398C     0.06084  0.12960   1.120  2.819  0.000
   399C    -0.03622 -0.08143   1.087  2.950  0.000
   400C    -0.03911 -0.08448   1.091  2.948  0.000
   401N    -0.28368 -0.46994   1.293  3.991  0.000
   402C     0.06432  0.13533   1.131  2.804  0.000
   403C     0.01518  0.02246   1.085  2.900  0.000
   404C     0.06595  0.13093   1.112  2.822  0.000
   405C    -0.03404 -0.07844   1.080  2.954  0.000
   406C    -0.03115 -0.07569   1.075  2.956  0.000
   407C     0.06273  0.12603   1.097  2.840  0.000
   408C     0.02029  0.02690   1.088  2.892  0.000
   409C    -0.01012 -0.00903   1.049  2.961  0.000
   410C     0.09439  0.11347   1.108  2.798  0.000
   411O    -0.23215 -0.32169   1.612  4.621  0.000
   412C     0.03450 -0.08625   1.108  2.858  0.000
   413C    -0.04717 -0.09919   1.046  3.001  0.000
   414C    -0.03165 -0.08703   1.088  2.944  0.000
   415C    -0.04389 -0.09405   1.078  2.966  0.000
   416C     0.09740  0.11686   1.108  2.795  0.000
   417O    -0.23481 -0.32471   1.605  4.630  0.000
   418C     0.03588 -0.08389   1.105  2.859  0.000
   419C     0.06039  0.12738   1.112  2.827  0.000
   420C    -0.03623 -0.08228   1.085  2.952  0.000
   421C    -0.03863 -0.08411   1.091  2.947  0.000
   422C     0.06425  0.13518   1.131  2.805  0.000
   423N    -0.28083 -0.46802   1.281  4.000  0.000
   424N    -0.15359 -0.50663   1.307  3.847  0.000
   425C    -0.00792 -0.00548   1.068  2.940  0.000
   426C     0.09569  0.11477   1.105  2.800  0.000
   427O    -0.23054 -0.32038   1.610  4.620  0.000
   428C     0.03470 -0.08610   1.108  2.858  0.000
   429C    -0.04650 -0.09857   1.048  2.998  0.000
   430C    -0.03240 -0.08792   1.089  2.943  0.000
   431C    -0.04627 -0.09835   1.048  2.998  0.000
   432C     0.09646  0.11553   1.105  2.798  0.000
   433O    -0.22945 -0.31944   1.611  4.619  0.000
   434C     0.03491 -0.08589   1.108  2.857  0.000
   435H     0.03340  0.09144   0.967  0.000  0.000
   436H     0.03100  0.09098   0.969  0.000  0.000
   437H     0.16298  0.37107   0.837  0.000  0.000
   438H     0.02140  0.08144   0.979  0.000  0.000
   439H     0.02270  0.08068   0.977  0.000  0.000
   440H     0.03370  0.09171   0.966  0.000  0.000
   441H     0.03175  0.09092   0.968  0.000  0.000
   442H     0.04558  0.10588   0.954  0.000  0.000
   443H     0.03497  0.09383   0.965  0.000  0.000
   444H     0.03486  0.09375   0.965  0.000  0.000
   445H     0.03340  0.09300   0.967  0.000  0.000
   446H     0.03158  0.08759   0.968  0.000  0.000
   447H     0.03370  0.09381   0.966  0.000  0.000
   448H     0.04385  0.10410   0.956  0.000  0.000
   449H     0.02832  0.09095   0.972  0.000  0.000
   450H     0.02914  0.09125   0.971  0.000  0.000
   451H     0.02175  0.08072   0.978  0.000  0.000
   452H     0.02240  0.08036   0.978  0.000  0.000
   453H     0.16359  0.37161   0.836  0.000  0.000
   454H     0.03536  0.09425   0.965  0.000  0.000
   455H     0.03576  0.09463   0.964  0.000  0.000
   456H     0.04753  0.10782   0.952  0.000  0.000
   457H     0.03252  0.09206   0.967  0.000  0.000
   458H     0.03039  0.08640   0.970  0.000  0.000
   459H     0.03268  0.09220   0.967  0.000  0.000
   460H     0.03563  0.09456   0.964  0.000  0.000
   461H     0.04664  0.10695   0.953  0.000  0.000
   462H     0.03465  0.09347   0.965  0.000  0.000
   463C     0.01518  0.02247   1.085  2.900  0.000
   464C     0.06619  0.13120   1.111  2.822  0.000
   465C    -0.03445 -0.07882   1.079  2.955  0.000
   466C    -0.03131 -0.07546   1.077  2.955  0.000
   467C     0.06325  0.12763   1.102  2.834  0.000
   468N    -0.15494 -0.50744   1.313  3.842  0.000
   469C     0.01924  0.02819   1.097  2.884  0.000
   470C     0.06072  0.12949   1.120  2.819  0.000
   471C    -0.03628 -0.08148   1.087  2.950  0.000
   472C    -0.03936 -0.08473   1.091  2.948  0.000
   473N    -0.28390 -0.47014   1.293  3.991  0.000
   474C     0.06425  0.13524   1.131  2.804  0.000
   475C     0.01445  0.02173   1.084  2.901  0.000
   476C     0.06587  0.13084   1.112  2.822  0.000
   477C    -0.03445 -0.07886   1.079  2.955  0.000
   478C    -0.03131 -0.07584   1.075  2.957  0.000
   479C     0.06250  0.12580   1.097  2.840  0.000
   480C     0.02027  0.02688   1.088  2.892  0.000
   481C    -0.01009 -0.00901   1.049  2.961  0.000
   482C     0.09437  0.11345   1.108  2.798  0.000
   483O    -0.23215 -0.32170   1.612  4.621  0.000
   484C     0.03449 -0.08626   1.108  2.858  0.000
   485C    -0.04721 -0.09923   1.046  3.001  0.000
   486C    -0.03170 -0.08708   1.088  2.944  0.000
   487C    -0.04391 -0.09407   1.078  2.966  0.000
   488C     0.09740  0.11685   1.108  2.795  0.000
   489O    -0.23486 -0.32477   1.605  4.630  0.000
   490C     0.03589 -0.08389   1.105  2.859  0.000
   491C     0.06025  0.12725   1.112  2.828  0.000
   492C    -0.03629 -0.08233   1.085  2.952  0.000
   493C    -0.03867 -0.08416   1.091  2.947  0.000
   494C     0.06422  0.13514   1.131  2.805  0.000
   495N    -0.28085 -0.46806   1.281  4.000  0.000
   496N    -0.15371 -0.50674   1.307  3.847  0.000
   497C    -0.00791 -0.00547   1.068  2.940  0.000
   498C     0.09569  0.11476   1.105  2.800  0.000
   499O    -0.23052 -0.32038   1.610  4.620  0.000
   500C     0.03471 -0.08610   1.108  2.858  0.000
   501C    -0.04649 -0.09857   1.048  2.998  0.000
   502C    -0.03241 -0.08794   1.089  2.943  0.000
   503C    -0.04631 -0.09838   1.048  2.998  0.000
   504C     0.09642  0.11549   1.105  2.798  0.000
   505O    -0.22948 -0.31948   1.611  4.619  0.000
   506C     0.03490 -0.08589   1.108  2.857  0.000
   507H     0.03343  0.09146   0.967  0.000  0.000
   508H     0.03096  0.09097   0.969  0.000  0.000
   509H     0.16290  0.37098   0.837  0.000  0.000
   510H     0.02126  0.08131   0.979  0.000  0.000
   511H     0.02235  0.08032   0.978  0.000  0.000
   512H     0.03324  0.09126   0.967  0.000  0.000
   513H     0.03146  0.09065   0.969  0.000  0.000
   514H     0.04554  0.10584   0.954  0.000  0.000
   515H     0.03480  0.09367   0.965  0.000  0.000
   516H     0.03492  0.09381   0.965  0.000  0.000
   517H     0.03332  0.09292   0.967  0.000  0.000
   518H     0.03152  0.08753   0.968  0.000  0.000
   519H     0.03367  0.09377   0.966  0.000  0.000
   520H     0.04379  0.10404   0.956  0.000  0.000
   521H     0.02838  0.09101   0.972  0.000  0.000
   522H     0.02909  0.09121   0.971  0.000  0.000
   523H     0.02169  0.08067   0.978  0.000  0.000
   524H     0.02241  0.08037   0.978  0.000  0.000
   525H     0.16354  0.37156   0.836  0.000  0.000
   526H     0.03529  0.09418   0.965  0.000  0.000
   527H     0.03585  0.09472   0.964  0.000  0.000
   528H     0.04753  0.10782   0.952  0.000  0.000
   529H     0.03254  0.09207   0.967  0.000  0.000
   530H     0.03039  0.08639   0.970  0.000  0.000
   531H     0.03262  0.09215   0.967  0.000  0.000
   532H     0.03550  0.09442   0.965  0.000  0.000
   533H     0.04655  0.10686   0.953  0.000  0.000
   534H     0.03468  0.09351   0.965  0.000  0.000
   535C     0.01596  0.02325   1.085  2.899  0.000
   536C     0.06629  0.13129   1.111  2.822  0.000
   537C    -0.03395 -0.07832   1.080  2.954  0.000
   538C    -0.03114 -0.07531   1.077  2.954  0.000
   539C     0.06373  0.12811   1.103  2.833  0.000
   540N    -0.15481 -0.50731   1.313  3.842  0.000
   541C     0.01883  0.02779   1.096  2.885  0.000
   542C     0.06141  0.13037   1.121  2.818  0.000
   543C    -0.03591 -0.08112   1.087  2.949  0.000
   544C    -0.03927 -0.08466   1.091  2.948  0.000
   545N    -0.28446 -0.47071   1.292  3.992  0.000
   546C     0.06414  0.13494   1.131  2.805  0.000
   547C     0.01350  0.02081   1.083  2.904  0.000
   548C     0.06581  0.13072   1.112  2.823  0.000
   549C    -0.03477 -0.07918   1.080  2.955  0.000
   550C    -0.03135 -0.07590   1.075  2.956  0.000
   551C     0.06275  0.12604   1.097  2.840  0.000
   552C     0.02000  0.02661   1.088  2.892  0.000
   553C    -0.01024 -0.00915   1.049  2.961  0.000
   554C     0.09427  0.11337   1.108  2.798  0.000
   555O    -0.23225 -0.32169   1.612  4.621  0.000
   556C     0.03437 -0.08638   1.108  2.858  0.000
   557C    -0.04735 -0.09937   1.046  3.002  0.000
   558C    -0.03178 -0.08716   1.088  2.944  0.000
   559C    -0.04405 -0.09419   1.078  2.966  0.000
   560C     0.09737  0.11687   1.107  2.795  0.000
   561O    -0.23466 -0.32456   1.605  4.629  0.000
   562C     0.03581 -0.08396   1.105  2.859  0.000
   563C     0.06045  0.12754   1.112  2.827  0.000
   564C    -0.03642 -0.08250   1.084  2.952  0.000
   565C    -0.03841 -0.08390   1.092  2.947  0.000
   566C     0.06417  0.13505   1.131  2.805  0.000
   567N    -0.28058 -0.46782   1.281  4.000  0.000
   568N    -0.15432 -0.50734   1.306  3.848  0.000
   569C    -0.00805 -0.00561   1.068  2.940  0.000
   570C     0.09570  0.11478   1.105  2.800  0.000
   571O    -0.23059 -0.32040   1.610  4.620  0.000
   572C     0.03466 -0.08616   1.108  2.858  0.000
   573C    -0.04636 -0.09843   1.048  2.998  0.000
   574C    -0.03226 -0.08779   1.089  2.943  0.000
   575C    -0.04623 -0.09831   1.048  2.998  0.000
   576C     0.09629  0.11533   1.105  2.798  0.000
   577O    -0.22974 -0.31975   1.611  4.619  0.000
   578C     0.03480 -0.08602   1.108  2.857  0.000
   579H     0.03397  0.09201   0.966  0.000  0.000
   580H     0.03141  0.09137   0.969  0.000  0.000
   581H     0.16295  0.37107   0.837  0.000  0.000
   582H     0.02183  0.08193   0.978  0.000  0.000
   583H     0.02216  0.08015   0.978  0.000  0.000
   584H     0.03216  0.09016   0.968  0.000  0.000
   585H     0.03129  0.09035   0.969  0.000  0.000
   586H     0.04552  0.10581   0.954  0.000  0.000
   587H     0.03452  0.09337   0.965  0.000  0.000
   588H     0.03523  0.09413   0.965  0.000  0.000
   589H     0.03340  0.09299   0.967  0.000  0.000
   590H     0.03161  0.08763   0.968  0.000  0.000
   591H     0.03375  0.09387   0.966  0.000  0.000
   592H     0.04403  0.10431   0.956  0.000  0.000
   593H     0.02892  0.09151   0.971  0.000  0.000
   594H     0.02860  0.09075   0.971  0.000  0.000
   595H     0.02202  0.08092   0.978  0.000  0.000
   596H     0.02292  0.08086   0.977  0.000  0.000
   597H     0.16379  0.37185   0.836  0.000  0.000
   598H     0.03549  0.09438   0.965  0.000  0.000
   599H     0.03605  0.09493   0.964  0.000  0.000
   600H     0.04760  0.10789   0.952  0.000  0.000
   601H     0.03286  0.09240   0.967  0.000  0.000
   602H     0.03076  0.08677   0.969  0.000  0.000
   603H     0.03285  0.09239   0.967  0.000  0.000
   604H     0.03554  0.09448   0.964  0.000  0.000
   605H     0.04632  0.10662   0.954  0.000  0.000
   606H     0.03493  0.09376   0.965  0.000  0.000

Wiberg/Mayer (AO) data.
largest (>0.10) Wiberg bond orders for each atom

 ---------------------------------------------------------------------------
     #   Z sym  total        # sym  WBO       # sym  WBO       # sym  WBO
 ---------------------------------------------------------------------------
     1   6 C    3.824 --    32 C    1.384     2 C    1.377    45 H    0.996
     2   6 C    3.925 --     1 C    1.377     3 C    1.239     6 N    1.229
     3   6 C    3.841 --     4 C    1.603     2 C    1.239    46 H    0.994
     4   6 C    3.827 --     3 C    1.603     5 C    1.248    47 H    0.998
     5   6 C    3.902 --     7 C    1.352     4 C    1.248     6 N    1.227
     6   7 N    3.226 --     2 C    1.229     5 C    1.227    48 H    0.962
     7   6 C    3.818 --     8 C    1.373     5 C    1.352    35 C    1.024
     8   6 C    3.918 --     7 C    1.373    11 N    1.356     9 C    1.160
     9   6 C    3.837 --    10 C    1.696     8 C    1.160    49 H    0.998
    10   6 C    3.853 --     9 C    1.696    12 C    1.166    50 H    1.000
    11   7 N    2.528 --    12 C    1.405     8 C    1.356
    12   6 C    3.945 --    11 N    1.405    13 C    1.299    10 C    1.166
    13   6 C    3.856 --    14 C    1.300    12 C    1.299   148 C    1.201
    14   6 C    3.908 --    13 C    1.300    15 C    1.263    34 N    1.246
    15   6 C    3.836 --    16 C    1.591    14 C    1.263    51 H    0.999
    16   6 C    3.822 --    15 C    1.591    17 C    1.254    52 H    0.997
    17   6 C    3.898 --    18 C    1.355    16 C    1.254    34 N    1.221
    18   6 C    3.807 --    29 C    1.364    17 C    1.355    19 C    1.026
    19   6 C    3.809 --    20 C    1.410    26 C    1.352    18 C    1.026
    20   6 C    3.921 --    19 C    1.410    23 C    1.354    21 O    1.120
    21   8 O    2.191 --    20 C    1.120    22 C    0.978
    22   6 C    3.887 --    55 H    1.001    53 H    0.999    54 H    0.984
                            21 O    0.978
    23   6 C    3.900 --    24 C    1.474    20 C    1.354    56 H    0.984
    24   6 C    3.920 --    23 C    1.474    25 C    1.410    57 H    0.985
    25   6 C    3.825 --    24 C    1.410    26 C    1.410    58 H    0.987
    26   6 C    3.919 --    25 C    1.410    19 C    1.352    27 O    1.117
    27   8 O    2.192 --    26 C    1.117    28 C    0.982
    28   6 C    3.913 --    60 H    0.996    61 H    0.996    59 H    0.986
                            27 O    0.982
    29   6 C    3.936 --    33 N    1.376    18 C    1.364    30 C    1.153
    30   6 C    3.840 --    31 C    1.708    29 C    1.153    62 H    0.999
    31   6 C    3.863 --    30 C    1.708    32 C    1.149    63 H    0.994
    32   6 C    3.963 --     1 C    1.384    33 N    1.374    31 C    1.149
    33   7 N    2.515 --    29 C    1.376    32 C    1.374
    34   7 N    3.236 --    14 C    1.246    17 C    1.221    64 H    0.961
    35   6 C    3.810 --    36 C    1.411    42 C    1.353     7 C    1.024
    36   6 C    3.921 --    35 C    1.411    39 C    1.355    37 O    1.119
    37   8 O    2.188 --    36 C    1.119    38 C    0.978
    38   6 C    3.888 --    65 H    1.001    67 H    1.000    66 H    0.984
                            37 O    0.978
    39   6 C    3.900 --    40 C    1.473    36 C    1.355    68 H    0.984
    40   6 C    3.920 --    39 C    1.473    41 C    1.411    69 H    0.985
    41   6 C    3.826 --    40 C    1.411    42 C    1.410    70 H    0.987
    42   6 C    3.922 --    41 C    1.410    35 C    1.353    43 O    1.117
    43   8 O    2.193 --    42 C    1.117    44 C    0.983
    44   6 C    3.913 --    71 H    0.996    73 H    0.996    72 H    0.986
                            43 O    0.983
    45   1 H    1.028 --     1 C    0.996
    46   1 H    1.014 --     3 C    0.994
    47   1 H    1.030 --     4 C    0.998
    48   1 H    1.080 --     6 N    0.962
    49   1 H    1.034 --     9 C    0.998
    50   1 H    1.027 --    10 C    1.000
    51   1 H    1.022 --    15 C    0.999
    52   1 H    1.030 --    16 C    0.997
    53   1 H    1.045 --    22 C    0.999
    54   1 H    1.041 --    22 C    0.984
    55   1 H    1.046 --    22 C    1.001
    56   1 H    1.024 --    23 C    0.984
    57   1 H    1.021 --    24 C    0.985
    58   1 H    1.019 --    25 C    0.987
    59   1 H    1.041 --    28 C    0.986
    60   1 H    1.029 --    28 C    0.996
    61   1 H    1.026 --    28 C    0.996
    62   1 H    1.036 --    30 C    0.999
    63   1 H    1.016 --    31 C    0.994
    64   1 H    1.082 --    34 N    0.961
    65   1 H    1.046 --    38 C    1.001
    66   1 H    1.041 --    38 C    0.984
    67   1 H    1.044 --    38 C    1.000
    68   1 H    1.023 --    39 C    0.984
    69   1 H    1.021 --    40 C    0.985
    70   1 H    1.021 --    41 C    0.987
    71   1 H    1.027 --    44 C    0.996
    72   1 H    1.041 --    44 C    0.986
    73   1 H    1.027 --    44 C    0.996
    74   6 C    3.822 --   105 C    1.384    75 C    1.377   118 H    0.996
    75   6 C    3.924 --    74 C    1.377    76 C    1.239    79 N    1.229
    76   6 C    3.841 --    77 C    1.603    75 C    1.239   119 H    0.994
    77   6 C    3.827 --    76 C    1.603    78 C    1.248   120 H    0.998
    78   6 C    3.899 --    80 C    1.352    77 C    1.248    79 N    1.226
    79   7 N    3.225 --    75 C    1.229    78 C    1.226   121 H    0.962
    80   6 C    3.818 --    81 C    1.373    78 C    1.352   108 C    1.024
    81   6 C    3.917 --    80 C    1.373    84 N    1.355    82 C    1.161
    82   6 C    3.836 --    83 C    1.694    81 C    1.161   122 H    0.998
    83   6 C    3.852 --    82 C    1.694    85 C    1.167   123 H    1.000
    84   7 N    2.527 --    85 C    1.407    81 C    1.355
    85   6 C    3.944 --    84 N    1.407    86 C    1.296    83 C    1.167
    86   6 C    3.853 --    87 C    1.297    85 C    1.296   174 C    1.206
    87   6 C    3.906 --    86 C    1.297    88 C    1.264   107 N    1.247
    88   6 C    3.835 --    89 C    1.589    87 C    1.264   124 H    0.999
    89   6 C    3.820 --    88 C    1.589    90 C    1.255   125 H    0.998
    90   6 C    3.897 --    91 C    1.353    89 C    1.255   107 N    1.221
    91   6 C    3.806 --   102 C    1.365    90 C    1.353    92 C    1.025
    92   6 C    3.810 --    93 C    1.410    99 C    1.353    91 C    1.025
    93   6 C    3.921 --    92 C    1.410    96 C    1.353    94 O    1.121
    94   8 O    2.192 --    93 C    1.121    95 C    0.978
    95   6 C    3.887 --   128 H    1.001   126 H    0.999   127 H    0.984
                            94 O    0.978
    96   6 C    3.900 --    97 C    1.474    93 C    1.353   129 H    0.984
    97   6 C    3.920 --    96 C    1.474    98 C    1.410   130 H    0.985
    98   6 C    3.825 --    99 C    1.410    97 C    1.410   131 H    0.987
    99   6 C    3.919 --    98 C    1.410    92 C    1.353   100 O    1.117
   100   8 O    2.192 --    99 C    1.117   101 C    0.983
   101   6 C    3.913 --   133 H    0.996   134 H    0.996   132 H    0.986
                           100 O    0.983
   102   6 C    3.935 --   106 N    1.375    91 C    1.365   103 C    1.153
   103   6 C    3.840 --   104 C    1.707   102 C    1.153   135 H    0.999
   104   6 C    3.862 --   103 C    1.707   105 C    1.149   136 H    0.994
   105   6 C    3.963 --    74 C    1.384   106 N    1.374   104 C    1.149
   106   7 N    2.513 --   102 C    1.375   105 C    1.374
   107   7 N    3.236 --    87 C    1.247    90 C    1.221   137 H    0.961
   108   6 C    3.811 --   109 C    1.410   115 C    1.354    80 C    1.024
   109   6 C    3.922 --   108 C    1.410   112 C    1.356   110 O    1.119
   110   8 O    2.185 --   109 C    1.119   111 C    0.977
   111   6 C    3.888 --   138 H    1.001   140 H    0.999   139 H    0.984
                           110 O    0.977
   112   6 C    3.900 --   113 C    1.472   109 C    1.356   141 H    0.984
   113   6 C    3.920 --   112 C    1.472   114 C    1.412   142 H    0.985
   114   6 C    3.826 --   113 C    1.412   115 C    1.409   143 H    0.987
   115   6 C    3.920 --   114 C    1.409   108 C    1.354   116 O    1.117
   116   8 O    2.193 --   115 C    1.117   117 C    0.983
   117   6 C    3.913 --   144 H    0.996   146 H    0.996   145 H    0.986
                           116 O    0.983
   118   1 H    1.028 --    74 C    0.996
   119   1 H    1.014 --    76 C    0.994
   120   1 H    1.030 --    77 C    0.998
   121   1 H    1.080 --    79 N    0.962
   122   1 H    1.035 --    82 C    0.998
   123   1 H    1.027 --    83 C    1.000
   124   1 H    1.024 --    88 C    0.999
   125   1 H    1.030 --    89 C    0.998
   126   1 H    1.045 --    95 C    0.999
   127   1 H    1.040 --    95 C    0.984
   128   1 H    1.045 --    95 C    1.001
   129   1 H    1.025 --    96 C    0.984
   130   1 H    1.021 --    97 C    0.985
   131   1 H    1.019 --    98 C    0.987
   132   1 H    1.041 --   101 C    0.986
   133   1 H    1.029 --   101 C    0.996
   134   1 H    1.026 --   101 C    0.996
   135   1 H    1.036 --   103 C    0.999
   136   1 H    1.016 --   104 C    0.994
   137   1 H    1.081 --   107 N    0.961
   138   1 H    1.045 --   111 C    1.001
   139   1 H    1.041 --   111 C    0.984
   140   1 H    1.045 --   111 C    0.999
   141   1 H    1.023 --   112 C    0.984
   142   1 H    1.021 --   113 C    0.985
   143   1 H    1.019 --   114 C    0.987
   144   1 H    1.027 --   117 C    0.996
   145   1 H    1.042 --   117 C    0.986
   146   1 H    1.026 --   117 C    0.996
   147   6 C    3.802 --   148 C    2.519   149 C    1.310
   148   6 C    3.794 --   147 C    2.519    13 C    1.201   150 C    0.179
   149   6 C    3.797 --   150 C    2.516   147 C    1.310
   150   6 C    3.798 --   149 C    2.516   175 C    1.204   148 C    0.179
   151   6 C    3.800 --   152 C    2.491   153 C    1.335
   152   6 C    3.801 --   151 C    2.491   187 C    1.228   154 C    0.180
   153   6 C    3.799 --   154 C    2.490   151 C    1.335
   154   6 C    3.801 --   153 C    2.490   247 C    1.229   152 C    0.180
   155   6 C    3.799 --   156 C    2.489   157 C    1.336
   156   6 C    3.801 --   155 C    2.489   259 C    1.230   158 C    0.180
   157   6 C    3.799 --   158 C    2.490   155 C    1.336
   158   6 C    3.801 --   157 C    2.490   319 C    1.230   156 C    0.180
   159   6 C    3.799 --   160 C    2.490   161 C    1.335
   160   6 C    3.801 --   159 C    2.490   331 C    1.229   162 C    0.180
   161   6 C    3.799 --   162 C    2.490   159 C    1.335
   162   6 C    3.801 --   161 C    2.490   391 C    1.229   160 C    0.180
   163   6 C    3.799 --   164 C    2.490   165 C    1.336
   164   6 C    3.801 --   163 C    2.490   403 C    1.230   166 C    0.180
   165   6 C    3.798 --   166 C    2.489   163 C    1.336
   166   6 C    3.801 --   165 C    2.489   463 C    1.230   164 C    0.180
   167   6 C    3.799 --   168 C    2.490   169 C    1.335
   168   6 C    3.801 --   167 C    2.490   475 C    1.230   170 C    0.180
   169   6 C    3.799 --   170 C    2.491   167 C    1.335
   170   6 C    3.800 --   169 C    2.491   535 C    1.229   168 C    0.180
   171   6 C    3.797 --   172 C    2.511   173 C    1.314
   172   6 C    3.799 --   171 C    2.511   547 C    1.209   174 C    0.179
   173   6 C    3.802 --   174 C    2.514   171 C    1.314
   174   6 C    3.795 --   173 C    2.514    86 C    1.206   172 C    0.179
   175   6 C    3.833 --   206 C    1.294   176 C    1.293   150 C    1.204
   176   6 C    3.908 --   175 C    1.293   177 C    1.266   180 N    1.251
   177   6 C    3.830 --   178 C    1.584   176 C    1.266   219 H    0.999
   178   6 C    3.825 --   177 C    1.584   179 C    1.257   220 H    0.999
   179   6 C    3.899 --   181 C    1.345   178 C    1.257   180 N    1.222
   180   7 N    3.245 --   176 C    1.251   179 C    1.222   221 H    0.962
   181   6 C    3.836 --   182 C    1.375   179 C    1.345   209 C    1.038
   182   6 C    3.931 --   181 C    1.375   185 N    1.351   183 C    1.160
   183   6 C    3.842 --   184 C    1.691   182 C    1.160   222 H    1.000
   184   6 C    3.851 --   183 C    1.691   186 C    1.167   223 H    1.001
   185   7 N    2.554 --   186 C    1.418   182 C    1.351
   186   6 C    3.942 --   185 N    1.418   187 C    1.285   184 C    1.167
   187   6 C    3.835 --   186 C    1.285   188 C    1.283   152 C    1.228
   188   6 C    3.906 --   187 C    1.283   189 C    1.272   208 N    1.250
   189   6 C    3.827 --   190 C    1.578   188 C    1.272   224 H    0.999
   190   6 C    3.816 --   189 C    1.578   191 C    1.263   225 H    0.998
   191   6 C    3.889 --   192 C    1.342   190 C    1.263   208 N    1.222
   192   6 C    3.806 --   203 C    1.380   191 C    1.342   193 C    1.028
   193   6 C    3.810 --   200 C    1.409   194 C    1.352   192 C    1.028
   194   6 C    3.918 --   197 C    1.411   193 C    1.352   195 O    1.116
   195   8 O    2.191 --   194 C    1.116   196 C    0.983
   196   6 C    3.912 --   227 H    0.996   228 H    0.996   226 H    0.986
                           195 O    0.983
   197   6 C    3.825 --   194 C    1.411   198 C    1.410   229 H    0.987
   198   6 C    3.919 --   199 C    1.474   197 C    1.410   230 H    0.985
   199   6 C    3.900 --   198 C    1.474   200 C    1.354   231 H    0.984
   200   6 C    3.921 --   193 C    1.409   199 C    1.354   201 O    1.122
   201   8 O    2.192 --   200 C    1.122   202 C    0.978
   202   6 C    3.886 --   234 H    1.000   233 H    1.000   232 H    0.984
                           201 O    0.978
   203   6 C    3.917 --   192 C    1.380   207 N    1.349   204 C    1.160
   204   6 C    3.839 --   205 C    1.695   203 C    1.160   235 H    0.999
   205   6 C    3.851 --   204 C    1.695   206 C    1.167   236 H    1.000
   206   6 C    3.944 --   207 N    1.409   175 C    1.294   205 C    1.167
   207   7 N    2.508 --   206 C    1.409   203 C    1.349
   208   7 N    3.231 --   188 C    1.250   191 C    1.222   237 H    0.962
   209   6 C    3.864 --   210 C    1.378   216 C    1.376   181 C    1.038
   210   6 C    3.914 --   213 C    1.388   209 C    1.378   211 O    1.117
   211   8 O    2.189 --   210 C    1.117   212 C    0.982
   212   6 C    3.912 --   239 H    0.997   238 H    0.996   240 H    0.986
                           211 O    0.982
   213   6 C    3.830 --   214 C    1.439   210 C    1.388   241 H    0.989
   214   6 C    3.918 --   215 C    1.440   213 C    1.439   242 H    0.985
   215   6 C    3.830 --   214 C    1.440   216 C    1.387   243 H    0.989
   216   6 C    3.919 --   215 C    1.387   209 C    1.376   217 O    1.121
   217   8 O    2.195 --   216 C    1.121   218 C    0.982
   218   6 C    3.911 --   244 H    0.996   246 H    0.996   245 H    0.986
                           217 O    0.982
   219   1 H    1.023 --   177 C    0.999
   220   1 H    1.029 --   178 C    0.999
   221   1 H    1.078 --   180 N    0.962
   222   1 H    1.031 --   183 C    1.000
   223   1 H    1.027 --   184 C    1.001
   224   1 H    1.022 --   189 C    0.999
   225   1 H    1.032 --   190 C    0.998
   226   1 H    1.038 --   196 C    0.986
   227   1 H    1.027 --   196 C    0.996
   228   1 H    1.029 --   196 C    0.996
   229   1 H    1.020 --   197 C    0.987
   230   1 H    1.021 --   198 C    0.985
   231   1 H    1.025 --   199 C    0.984
   232   1 H    1.041 --   202 C    0.984
   233   1 H    1.050 --   202 C    1.000
   234   1 H    1.043 --   202 C    1.000
   235   1 H    1.036 --   204 C    0.999
   236   1 H    1.028 --   205 C    1.000
   237   1 H    1.081 --   208 N    0.962
   238   1 H    1.028 --   212 C    0.996
   239   1 H    1.027 --   212 C    0.997
   240   1 H    1.040 --   212 C    0.986
   241   1 H    1.021 --   213 C    0.989
   242   1 H    1.024 --   214 C    0.985
   243   1 H    1.021 --   215 C    0.989
   244   1 H    1.028 --   218 C    0.996
   245   1 H    1.040 --   218 C    0.986
   246   1 H    1.028 --   218 C    0.996
   247   6 C    3.830 --   248 C    1.282   278 C    1.282   154 C    1.229
   248   6 C    3.905 --   247 C    1.282   249 C    1.271   252 N    1.254
   249   6 C    3.829 --   250 C    1.578   248 C    1.271   291 H    0.999
   250   6 C    3.822 --   249 C    1.578   251 C    1.261   292 H    0.999
   251   6 C    3.898 --   253 C    1.341   250 C    1.261   252 N    1.222
   252   7 N    3.246 --   248 C    1.254   251 C    1.222   293 H    0.962
   253   6 C    3.833 --   254 C    1.379   251 C    1.341   281 C    1.037
   254   6 C    3.932 --   253 C    1.379   257 N    1.348   255 C    1.160
   255   6 C    3.843 --   256 C    1.691   254 C    1.160   294 H    1.000
   256   6 C    3.850 --   255 C    1.691   258 C    1.167   295 H    1.001
   257   7 N    2.549 --   258 C    1.420   254 C    1.348
   258   6 C    3.943 --   257 N    1.420   259 C    1.283   256 C    1.167
   259   6 C    3.831 --   258 C    1.283   260 C    1.281   156 C    1.230
   260   6 C    3.906 --   259 C    1.281   261 C    1.273   280 N    1.251
   261   6 C    3.826 --   262 C    1.577   260 C    1.273   296 H    0.999
   262   6 C    3.817 --   261 C    1.577   263 C    1.264   297 H    0.998
   263   6 C    3.888 --   264 C    1.341   262 C    1.264   280 N    1.221
   264   6 C    3.807 --   275 C    1.382   263 C    1.341   265 C    1.028
   265   6 C    3.810 --   272 C    1.409   266 C    1.352   264 C    1.028
   266   6 C    3.918 --   269 C    1.411   265 C    1.352   267 O    1.116
   267   8 O    2.191 --   266 C    1.116   268 C    0.983
   268   6 C    3.913 --   299 H    0.996   300 H    0.996   298 H    0.986
                           267 O    0.983
   269   6 C    3.825 --   266 C    1.411   270 C    1.410   301 H    0.988
   270   6 C    3.919 --   271 C    1.474   269 C    1.410   302 H    0.985
   271   6 C    3.900 --   270 C    1.474   272 C    1.353   303 H    0.984
   272   6 C    3.921 --   265 C    1.409   271 C    1.353   273 O    1.122
   273   8 O    2.193 --   272 C    1.122   274 C    0.978
   274   6 C    3.886 --   306 H    1.000   305 H    1.000   304 H    0.984
                           273 O    0.978
   275   6 C    3.915 --   264 C    1.382   279 N    1.344   276 C    1.162
   276   6 C    3.836 --   277 C    1.691   275 C    1.162   307 H    0.999
   277   6 C    3.849 --   276 C    1.691   278 C    1.169   308 H    1.001
   278   6 C    3.940 --   279 N    1.418   247 C    1.282   277 C    1.169
   279   7 N    2.507 --   278 C    1.418   275 C    1.344
   280   7 N    3.229 --   260 C    1.251   263 C    1.221   309 H    0.962
   281   6 C    3.864 --   282 C    1.378   288 C    1.377   253 C    1.037
   282   6 C    3.915 --   285 C    1.388   281 C    1.378   283 O    1.117
   283   8 O    2.189 --   282 C    1.117   284 C    0.982
   284   6 C    3.912 --   311 H    0.997   310 H    0.996   312 H    0.986
                           283 O    0.982
   285   6 C    3.830 --   286 C    1.439   282 C    1.388   313 H    0.989
   286   6 C    3.918 --   287 C    1.439   285 C    1.439   314 H    0.985
   287   6 C    3.830 --   286 C    1.439   288 C    1.387   315 H    0.989
   288   6 C    3.919 --   287 C    1.387   281 C    1.377   289 O    1.121
   289   8 O    2.195 --   288 C    1.121   290 C    0.982
   290   6 C    3.912 --   316 H    0.997   318 H    0.996   317 H    0.986
                           289 O    0.982
   291   1 H    1.023 --   249 C    0.999
   292   1 H    1.028 --   250 C    0.999
   293   1 H    1.079 --   252 N    0.962
   294   1 H    1.031 --   255 C    1.000
   295   1 H    1.027 --   256 C    1.001
   296   1 H    1.022 --   261 C    0.999
   297   1 H    1.032 --   262 C    0.998
   298   1 H    1.038 --   268 C    0.986
   299   1 H    1.027 --   268 C    0.996
   300   1 H    1.029 --   268 C    0.996
   301   1 H    1.020 --   269 C    0.988
   302   1 H    1.021 --   270 C    0.985
   303   1 H    1.025 --   271 C    0.984
   304   1 H    1.041 --   274 C    0.984
   305   1 H    1.049 --   274 C    1.000
   306   1 H    1.044 --   274 C    1.000
   307   1 H    1.036 --   276 C    0.999
   308   1 H    1.028 --   277 C    1.001
   309   1 H    1.081 --   280 N    0.962
   310   1 H    1.028 --   284 C    0.996
   311   1 H    1.027 --   284 C    0.997
   312   1 H    1.040 --   284 C    0.986
   313   1 H    1.021 --   285 C    0.989
   314   1 H    1.024 --   286 C    0.985
   315   1 H    1.021 --   287 C    0.989
   316   1 H    1.028 --   290 C    0.997
   317   1 H    1.040 --   290 C    0.986
   318   1 H    1.028 --   290 C    0.996
   319   6 C    3.832 --   320 C    1.282   350 C    1.282   158 C    1.230
   320   6 C    3.905 --   319 C    1.282   321 C    1.271   324 N    1.254
   321   6 C    3.830 --   322 C    1.578   320 C    1.271   363 H    0.999
   322   6 C    3.822 --   321 C    1.578   323 C    1.261   364 H    0.999
   323   6 C    3.898 --   325 C    1.341   322 C    1.261   324 N    1.223
   324   7 N    3.247 --   320 C    1.254   323 C    1.223   365 H    0.962
   325   6 C    3.833 --   326 C    1.379   323 C    1.341   353 C    1.037
   326   6 C    3.933 --   325 C    1.379   329 N    1.348   327 C    1.160
   327   6 C    3.843 --   328 C    1.692   326 C    1.160   366 H    1.000
   328   6 C    3.851 --   327 C    1.692   330 C    1.167   367 H    1.001
   329   7 N    2.550 --   330 C    1.420   326 C    1.348
   330   6 C    3.943 --   329 N    1.420   331 C    1.283   328 C    1.167
   331   6 C    3.832 --   330 C    1.283   332 C    1.282   160 C    1.229
   332   6 C    3.907 --   331 C    1.282   333 C    1.273   352 N    1.251
   333   6 C    3.827 --   334 C    1.577   332 C    1.273   368 H    0.999
   334   6 C    3.817 --   333 C    1.577   335 C    1.264   369 H    0.998
   335   6 C    3.889 --   336 C    1.342   334 C    1.264   352 N    1.220
   336   6 C    3.807 --   347 C    1.381   335 C    1.342   337 C    1.028
   337   6 C    3.810 --   344 C    1.408   338 C    1.352   336 C    1.028
   338   6 C    3.918 --   341 C    1.411   337 C    1.352   339 O    1.116
   339   8 O    2.191 --   338 C    1.116   340 C    0.983
   340   6 C    3.912 --   371 H    0.996   372 H    0.996   370 H    0.986
                           339 O    0.983
   341   6 C    3.825 --   338 C    1.411   342 C    1.410   373 H    0.988
   342   6 C    3.919 --   343 C    1.474   341 C    1.410   374 H    0.985
   343   6 C    3.900 --   342 C    1.474   344 C    1.353   375 H    0.984
   344   6 C    3.921 --   337 C    1.408   343 C    1.353   345 O    1.122
   345   8 O    2.193 --   344 C    1.122   346 C    0.978
   346   6 C    3.886 --   378 H    1.000   377 H    0.999   376 H    0.984
                           345 O    0.978
   347   6 C    3.915 --   336 C    1.381   351 N    1.345   348 C    1.162
   348   6 C    3.836 --   349 C    1.691   347 C    1.162   379 H    0.999
   349   6 C    3.849 --   348 C    1.691   350 C    1.170   380 H    1.001
   350   6 C    3.940 --   351 N    1.417   319 C    1.282   349 C    1.170
   351   7 N    2.508 --   350 C    1.417   347 C    1.345
   352   7 N    3.229 --   332 C    1.251   335 C    1.220   381 H    0.962
   353   6 C    3.864 --   354 C    1.378   360 C    1.377   325 C    1.037
   354   6 C    3.915 --   357 C    1.388   353 C    1.378   355 O    1.117
   355   8 O    2.189 --   354 C    1.117   356 C    0.982
   356   6 C    3.912 --   383 H    0.997   382 H    0.996   384 H    0.986
                           355 O    0.982
   357   6 C    3.830 --   358 C    1.439   354 C    1.388   385 H    0.989
   358   6 C    3.918 --   359 C    1.439   357 C    1.439   386 H    0.985
   359   6 C    3.830 --   358 C    1.439   360 C    1.387   387 H    0.989
   360   6 C    3.919 --   359 C    1.387   353 C    1.377   361 O    1.120
   361   8 O    2.195 --   360 C    1.120   362 C    0.982
   362   6 C    3.912 --   388 H    0.997   390 H    0.996   389 H    0.986
                           361 O    0.982
   363   1 H    1.023 --   321 C    0.999
   364   1 H    1.028 --   322 C    0.999
   365   1 H    1.079 --   324 N    0.962
   366   1 H    1.031 --   327 C    1.000
   367   1 H    1.027 --   328 C    1.001
   368   1 H    1.022 --   333 C    0.999
   369   1 H    1.032 --   334 C    0.998
   370   1 H    1.038 --   340 C    0.986
   371   1 H    1.027 --   340 C    0.996
   372   1 H    1.029 --   340 C    0.996
   373   1 H    1.020 --   341 C    0.988
   374   1 H    1.021 --   342 C    0.985
   375   1 H    1.025 --   343 C    0.984
   376   1 H    1.041 --   346 C    0.984
   377   1 H    1.049 --   346 C    0.999
   378   1 H    1.044 --   346 C    1.000
   379   1 H    1.036 --   348 C    0.999
   380   1 H    1.028 --   349 C    1.001
   381   1 H    1.081 --   352 N    0.962
   382   1 H    1.028 --   356 C    0.996
   383   1 H    1.027 --   356 C    0.997
   384   1 H    1.040 --   356 C    0.986
   385   1 H    1.021 --   357 C    0.989
   386   1 H    1.024 --   358 C    0.985
   387   1 H    1.021 --   359 C    0.989
   388   1 H    1.028 --   362 C    0.997
   389   1 H    1.040 --   362 C    0.986
   390   1 H    1.028 --   362 C    0.996
   391   6 C    3.832 --   392 C    1.283   422 C    1.282   162 C    1.229
   392   6 C    3.905 --   391 C    1.283   393 C    1.271   396 N    1.254
   393   6 C    3.830 --   394 C    1.578   392 C    1.271   435 H    0.999
   394   6 C    3.822 --   393 C    1.578   395 C    1.261   436 H    0.999
   395   6 C    3.898 --   397 C    1.341   394 C    1.261   396 N    1.223
   396   7 N    3.247 --   392 C    1.254   395 C    1.223   437 H    0.962
   397   6 C    3.833 --   398 C    1.379   395 C    1.341   425 C    1.038
   398   6 C    3.933 --   397 C    1.379   401 N    1.348   399 C    1.160
   399   6 C    3.843 --   400 C    1.692   398 C    1.160   438 H    1.000
   400   6 C    3.851 --   399 C    1.692   402 C    1.167   439 H    1.001
   401   7 N    2.550 --   402 C    1.420   398 C    1.348
   402   6 C    3.943 --   401 N    1.420   403 C    1.283   400 C    1.167
   403   6 C    3.832 --   402 C    1.283   404 C    1.282   164 C    1.230
   404   6 C    3.906 --   403 C    1.282   405 C    1.273   424 N    1.251
   405   6 C    3.828 --   406 C    1.577   404 C    1.273   440 H    1.000
   406   6 C    3.817 --   405 C    1.577   407 C    1.264   441 H    0.999
   407   6 C    3.889 --   408 C    1.342   406 C    1.264   424 N    1.220
   408   6 C    3.807 --   419 C    1.381   407 C    1.342   409 C    1.029
   409   6 C    3.810 --   416 C    1.408   410 C    1.352   408 C    1.029
   410   6 C    3.918 --   413 C    1.411   409 C    1.352   411 O    1.116
   411   8 O    2.190 --   410 C    1.116   412 C    0.983
   412   6 C    3.913 --   443 H    0.996   444 H    0.996   442 H    0.986
                           411 O    0.983
   413   6 C    3.825 --   410 C    1.411   414 C    1.410   445 H    0.988
   414   6 C    3.919 --   415 C    1.474   413 C    1.410   446 H    0.985
   415   6 C    3.900 --   414 C    1.474   416 C    1.353   447 H    0.984
   416   6 C    3.921 --   409 C    1.408   415 C    1.353   417 O    1.122
   417   8 O    2.192 --   416 C    1.122   418 C    0.978
   418   6 C    3.886 --   450 H    1.000   449 H    0.999   448 H    0.984
                           417 O    0.978
   419   6 C    3.915 --   408 C    1.381   423 N    1.345   420 C    1.162
   420   6 C    3.837 --   421 C    1.691   419 C    1.162   451 H    0.999
   421   6 C    3.850 --   420 C    1.691   422 C    1.170   452 H    1.001
   422   6 C    3.940 --   423 N    1.417   391 C    1.282   421 C    1.170
   423   7 N    2.508 --   422 C    1.417   419 C    1.345
   424   7 N    3.229 --   404 C    1.251   407 C    1.220   453 H    0.962
   425   6 C    3.864 --   426 C    1.378   432 C    1.377   397 C    1.038
   426   6 C    3.915 --   429 C    1.388   425 C    1.378   427 O    1.118
   427   8 O    2.189 --   426 C    1.118   428 C    0.982
   428   6 C    3.912 --   455 H    0.997   454 H    0.996   456 H    0.986
                           427 O    0.982
   429   6 C    3.830 --   430 C    1.439   426 C    1.388   457 H    0.989
   430   6 C    3.918 --   431 C    1.439   429 C    1.439   458 H    0.985
   431   6 C    3.830 --   430 C    1.439   432 C    1.387   459 H    0.989
   432   6 C    3.919 --   431 C    1.387   425 C    1.377   433 O    1.120
   433   8 O    2.195 --   432 C    1.120   434 C    0.982
   434   6 C    3.912 --   460 H    0.997   462 H    0.996   461 H    0.986
                           433 O    0.982
   435   1 H    1.023 --   393 C    0.999
   436   1 H    1.028 --   394 C    0.999
   437   1 H    1.079 --   396 N    0.962
   438   1 H    1.031 --   399 C    1.000
   439   1 H    1.027 --   400 C    1.001
   440   1 H    1.022 --   405 C    1.000
   441   1 H    1.032 --   406 C    0.999
   442   1 H    1.039 --   412 C    0.986
   443   1 H    1.027 --   412 C    0.996
   444   1 H    1.029 --   412 C    0.996
   445   1 H    1.020 --   413 C    0.988
   446   1 H    1.021 --   414 C    0.985
   447   1 H    1.025 --   415 C    0.984
   448   1 H    1.041 --   418 C    0.984
   449   1 H    1.050 --   418 C    0.999
   450   1 H    1.043 --   418 C    1.000
   451   1 H    1.036 --   420 C    0.999
   452   1 H    1.028 --   421 C    1.001
   453   1 H    1.081 --   424 N    0.962
   454   1 H    1.028 --   428 C    0.996
   455   1 H    1.027 --   428 C    0.997
   456   1 H    1.040 --   428 C    0.986
   457   1 H    1.021 --   429 C    0.989
   458   1 H    1.024 --   430 C    0.985
   459   1 H    1.021 --   431 C    0.989
   460   1 H    1.028 --   434 C    0.997
   461   1 H    1.040 --   434 C    0.986
   462   1 H    1.028 --   434 C    0.996
   463   6 C    3.830 --   464 C    1.282   494 C    1.282   166 C    1.230
   464   6 C    3.904 --   463 C    1.282   465 C    1.272   468 N    1.254
   465   6 C    3.830 --   466 C    1.578   464 C    1.272   507 H    0.999
   466   6 C    3.822 --   465 C    1.578   467 C    1.262   508 H    0.999
   467   6 C    3.898 --   469 C    1.340   466 C    1.262   468 N    1.223
   468   7 N    3.247 --   464 C    1.254   467 C    1.223   509 H    0.962
   469   6 C    3.833 --   470 C    1.380   467 C    1.340   497 C    1.038
   470   6 C    3.932 --   469 C    1.380   473 N    1.347   471 C    1.160
   471   6 C    3.843 --   472 C    1.692   470 C    1.160   510 H    1.000
   472   6 C    3.850 --   471 C    1.692   474 C    1.167   511 H    1.001
   473   7 N    2.549 --   474 C    1.420   470 C    1.347
   474   6 C    3.943 --   473 N    1.420   475 C    1.283   472 C    1.167
   475   6 C    3.830 --   474 C    1.283   476 C    1.281   168 C    1.230
   476   6 C    3.906 --   475 C    1.281   477 C    1.273   496 N    1.251
   477   6 C    3.827 --   478 C    1.577   476 C    1.273   512 H    1.000
   478   6 C    3.817 --   477 C    1.577   479 C    1.264   513 H    0.999
   479   6 C    3.889 --   480 C    1.342   478 C    1.264   496 N    1.220
   480   6 C    3.807 --   491 C    1.381   479 C    1.342   481 C    1.029
   481   6 C    3.811 --   488 C    1.408   482 C    1.352   480 C    1.029
   482   6 C    3.918 --   485 C    1.411   481 C    1.352   483 O    1.116
   483   8 O    2.190 --   482 C    1.116   484 C    0.983
   484   6 C    3.913 --   515 H    0.996   516 H    0.996   514 H    0.986
                           483 O    0.983
   485   6 C    3.825 --   482 C    1.411   486 C    1.410   517 H    0.988
   486   6 C    3.919 --   487 C    1.474   485 C    1.410   518 H    0.985
   487   6 C    3.900 --   486 C    1.474   488 C    1.354   519 H    0.984
   488   6 C    3.921 --   481 C    1.408   487 C    1.354   489 O    1.122
   489   8 O    2.192 --   488 C    1.122   490 C    0.978
   490   6 C    3.889 --   522 H    1.000   521 H    0.999   520 H    0.984
                           489 O    0.978
   491   6 C    3.915 --   480 C    1.381   495 N    1.345   492 C    1.163
   492   6 C    3.836 --   493 C    1.691   491 C    1.163   523 H    0.999
   493   6 C    3.849 --   492 C    1.691   494 C    1.170   524 H    1.001
   494   6 C    3.940 --   495 N    1.417   463 C    1.282   493 C    1.170
   495   7 N    2.508 --   494 C    1.417   491 C    1.345
   496   7 N    3.229 --   476 C    1.251   479 C    1.220   525 H    0.962
   497   6 C    3.864 --   498 C    1.378   504 C    1.377   469 C    1.038
   498   6 C    3.915 --   501 C    1.388   497 C    1.378   499 O    1.118
   499   8 O    2.189 --   498 C    1.118   500 C    0.982
   500   6 C    3.912 --   527 H    0.996   526 H    0.996   528 H    0.986
                           499 O    0.982
   501   6 C    3.830 --   502 C    1.439   498 C    1.388   529 H    0.989
   502   6 C    3.918 --   503 C    1.439   501 C    1.439   530 H    0.985
   503   6 C    3.830 --   502 C    1.439   504 C    1.387   531 H    0.989
   504   6 C    3.918 --   503 C    1.387   497 C    1.377   505 O    1.120
   505   8 O    2.194 --   504 C    1.120   506 C    0.982
   506   6 C    3.912 --   532 H    0.997   534 H    0.996   533 H    0.986
                           505 O    0.982
   507   1 H    1.023 --   465 C    0.999
   508   1 H    1.028 --   466 C    0.999
   509   1 H    1.079 --   468 N    0.962
   510   1 H    1.031 --   471 C    1.000
   511   1 H    1.027 --   472 C    1.001
   512   1 H    1.022 --   477 C    1.000
   513   1 H    1.032 --   478 C    0.999
   514   1 H    1.039 --   484 C    0.986
   515   1 H    1.027 --   484 C    0.996
   516   1 H    1.029 --   484 C    0.996
   517   1 H    1.020 --   485 C    0.988
   518   1 H    1.021 --   486 C    0.985
   519   1 H    1.025 --   487 C    0.984
   520   1 H    1.041 --   490 C    0.984
   521   1 H    1.050 --   490 C    0.999
   522   1 H    1.043 --   490 C    1.000
   523   1 H    1.036 --   492 C    0.999
   524   1 H    1.031 --   493 C    1.001
   525   1 H    1.081 --   496 N    0.962
   526   1 H    1.028 --   500 C    0.996
   527   1 H    1.027 --   500 C    0.996
   528   1 H    1.040 --   500 C    0.986
   529   1 H    1.021 --   501 C    0.989
   530   1 H    1.024 --   502 C    0.985
   531   1 H    1.021 --   503 C    0.989
   532   1 H    1.028 --   506 C    0.997
   533   1 H    1.040 --   506 C    0.986
   534   1 H    1.028 --   506 C    0.996
   535   6 C    3.833 --   536 C    1.283   566 C    1.283   170 C    1.229
   536   6 C    3.904 --   535 C    1.283   537 C    1.271   540 N    1.253
   537   6 C    3.830 --   538 C    1.579   536 C    1.271   579 H    0.999
   538   6 C    3.821 --   537 C    1.579   539 C    1.261   580 H    0.999
   539   6 C    3.898 --   541 C    1.340   538 C    1.261   540 N    1.224
   540   7 N    3.249 --   536 C    1.253   539 C    1.224   581 H    0.962
   541   6 C    3.832 --   542 C    1.379   539 C    1.340   569 C    1.037
   542   6 C    3.934 --   541 C    1.379   545 N    1.350   543 C    1.158
   543   6 C    3.845 --   544 C    1.695   542 C    1.158   582 H    1.000
   544   6 C    3.852 --   543 C    1.695   546 C    1.165   583 H    1.000
   545   7 N    2.549 --   546 C    1.414   542 C    1.350
   546   6 C    3.946 --   545 N    1.414   547 C    1.292   544 C    1.165
   547   6 C    3.832 --   546 C    1.292   548 C    1.290   172 C    1.209
   548   6 C    3.909 --   547 C    1.290   549 C    1.268   568 N    1.249
   549   6 C    3.826 --   550 C    1.582   548 C    1.268   584 H    0.999
   550   6 C    3.820 --   549 C    1.582   551 C    1.261   585 H    0.998
   551   6 C    3.889 --   552 C    1.346   550 C    1.261   568 N    1.219
   552   6 C    3.809 --   563 C    1.378   551 C    1.346   553 C    1.027
   553   6 C    3.810 --   560 C    1.409   554 C    1.352   552 C    1.027
   554   6 C    3.918 --   557 C    1.411   553 C    1.352   555 O    1.116
   555   8 O    2.191 --   554 C    1.116   556 C    0.983
   556   6 C    3.913 --   587 H    0.996   588 H    0.996   586 H    0.986
                           555 O    0.983
   557   6 C    3.825 --   554 C    1.411   558 C    1.409   589 H    0.988
   558   6 C    3.919 --   559 C    1.474   557 C    1.409   590 H    0.985
   559   6 C    3.900 --   558 C    1.474   560 C    1.353   591 H    0.984
   560   6 C    3.921 --   553 C    1.409   559 C    1.353   561 O    1.123
   561   8 O    2.194 --   560 C    1.123   562 C    0.978
   562   6 C    3.888 --   594 H    1.000   593 H    1.000   592 H    0.984
                           561 O    0.978
   563   6 C    3.914 --   552 C    1.378   567 N    1.347   564 C    1.163
   564   6 C    3.836 --   565 C    1.690   563 C    1.163   595 H    0.999
   565   6 C    3.849 --   564 C    1.690   566 C    1.170   596 H    1.001
   566   6 C    3.940 --   567 N    1.415   535 C    1.283   565 C    1.170
   567   7 N    2.510 --   566 C    1.415   563 C    1.347
   568   7 N    3.228 --   548 C    1.249   551 C    1.219   597 H    0.961
   569   6 C    3.864 --   570 C    1.378   576 C    1.377   541 C    1.037
   570   6 C    3.915 --   573 C    1.388   569 C    1.378   571 O    1.118
   571   8 O    2.190 --   570 C    1.118   572 C    0.982
   572   6 C    3.912 --   599 H    0.996   598 H    0.996   600 H    0.986
                           571 O    0.982
   573   6 C    3.830 --   574 C    1.439   570 C    1.388   601 H    0.989
   574   6 C    3.919 --   575 C    1.439   573 C    1.439   602 H    0.985
   575   6 C    3.830 --   574 C    1.439   576 C    1.387   603 H    0.989
   576   6 C    3.918 --   575 C    1.387   569 C    1.377   577 O    1.120
   577   8 O    2.194 --   576 C    1.120   578 C    0.982
   578   6 C    3.912 --   604 H    0.997   606 H    0.996   605 H    0.986
                           577 O    0.982
   579   1 H    1.023 --   537 C    0.999
   580   1 H    1.028 --   538 C    0.999
   581   1 H    1.079 --   540 N    0.962
   582   1 H    1.031 --   543 C    1.000
   583   1 H    1.027 --   544 C    1.000
   584   1 H    1.023 --   549 C    0.999
   585   1 H    1.033 --   550 C    0.998
   586   1 H    1.038 --   556 C    0.986
   587   1 H    1.027 --   556 C    0.996
   588   1 H    1.029 --   556 C    0.996
   589   1 H    1.020 --   557 C    0.988
   590   1 H    1.021 --   558 C    0.985
   591   1 H    1.025 --   559 C    0.984
   592   1 H    1.041 --   562 C    0.984
   593   1 H    1.048 --   562 C    1.000
   594   1 H    1.044 --   562 C    1.000
   595   1 H    1.035 --   564 C    0.999
   596   1 H    1.031 --   565 C    1.001
   597   1 H    1.080 --   568 N    0.961
   598   1 H    1.028 --   572 C    0.996
   599   1 H    1.027 --   572 C    0.996
   600   1 H    1.040 --   572 C    0.986
   601   1 H    1.021 --   573 C    0.989
   602   1 H    1.024 --   574 C    0.985
   603   1 H    1.021 --   575 C    0.989
   604   1 H    1.028 --   578 C    0.997
   605   1 H    1.040 --   578 C    0.986
   606   1 H    1.028 --   578 C    0.996
 ---------------------------------------------------------------------------

Topologies differ in total number of bonds
Writing topology from bond orders to xtbtopo.mol

 dipole moment from electron density (au)
     X       Y       Z   
-294.9866   4.0106   5.3770  total (Debye):  749.975


           -------------------------------------------------
          | TOTAL ENERGY            -1163.308724727317 Eh   |
          | GRADIENT NORM               0.123050520150 Eh/α |
          | HOMO-LUMO GAP               0.062974387235 eV   |
           -------------------------------------------------
########################################################################
[WARNING] Runtime exception occurred
-1- restart_readRestart: Dimension missmatch in restart file.
########################################################################

------------------------------------------------------------------------
 * finished run on 2022/07/30 at 06:38:36.166     
------------------------------------------------------------------------
 total:
 * wall-time:     0 d,  0 h,  3 min, 15.697 sec
 *  cpu-time:     0 d,  0 h,  3 min, 14.481 sec
 * ratio c/w:     0.994 speedup
 SCF:
 * wall-time:     0 d,  0 h,  3 min, 13.650 sec
 *  cpu-time:     0 d,  0 h,  3 min, 12.454 sec
 * ratio c/w:     0.994 speedup

