252
 energy: -482.957527158542 gnorm: 2.743619535072 xtb: 6.5.1 (b24c23e)
Cu          58.22691100000000        0.02316100000000       -0.01285100000000
C           54.80888700000000       -0.08385300000000        0.07637000000000
C           55.47417900000000       -0.18544700000000        1.23050300000000
C           54.82631700000000       -0.32797600000000        2.52908700000000
C           55.76844200000000       -0.34899100000000        3.45353100000000
C           57.07148000000000       -0.21874100000000        2.78770800000000
N           56.89200100000000       -0.12007800000000        1.37464000000000
C           58.26063700000000       -0.14781100000000        3.41883300000000
C           59.55212200000000        0.01186000000000        2.70125000000000
C           60.83884800000000        0.22868100000000        3.37375600000000
C           61.77333299999999        0.28629500000000        2.44698200000000
N           59.69465800000000       -0.06666800000000        1.41345200000000
C           61.09178200000000        0.09918600000000        1.17185400000000
C           61.68810800000000        0.01871600000000       -0.02906100000000
C           60.93037000000000       -0.19133500000000       -1.28377500000000
C           61.47347700000000       -0.60394300000000       -2.42223600000000
C           60.42967899999999       -0.59222800000000       -3.42781700000000
C           59.31750700000000       -0.16910500000000       -2.83841500000000
C           58.02951000000000        0.05388800000000       -3.54458200000000
C           58.04729600000000        0.18983000000000       -5.02157200000000
C           57.40415300000000       -0.75718400000000       -5.83257100000000
C           57.43961399999999       -0.63476400000000       -7.22438100000000
C           58.12593200000000        0.43385100000000       -7.82888300000000
C           58.16698299999999        0.56789600000000       -9.30172000000000
O           58.85098100000000        1.62801700000000       -9.89131000000000
O           57.58385799999999       -0.27486700000000      -10.03630500000000
C           58.77707700000000        1.37467900000000       -7.01234600000000
C           58.74009500000000        1.25141400000000       -5.62054000000000
C           56.86299200000000        0.13713900000000       -2.87644800000000
C           55.54735800000000        0.38936500000000       -3.46208100000000
C           54.68591399999999        0.34016500000000       -2.46468700000000
C           55.44209300000000        0.07030100000000       -1.24308000000000
N           56.71207300000000       -0.04939300000000       -1.47065400000000
N           59.54315800000000        0.10284900000000       -1.45381900000000
C           58.30038600000000       -0.21948900000000        4.89466900000000
C           58.23616299999999       -1.46046300000000        5.54172200000000
C           58.27547900000000       -1.52893400000000        6.93723900000000
C           58.38084499999999       -0.35524100000000        7.70599900000000
C           58.42338599999999       -0.42201000000000        9.18334200000000
O           58.52657000000000        0.74505600000000        9.93604600000000
O           58.36680999999999       -1.53435200000000        9.77437200000000
C           58.44569000000000        0.88653400000000        7.04960100000000
C           58.40565400000000        0.95317400000000        5.65398200000000
H           53.72564000000000       -0.10247900000000        0.10454700000000
H           53.76287700000000       -0.39620600000000        2.71930500000000
H           55.58433299999999       -0.43579000000000        4.51660800000000
H           61.01384299999999        0.32153000000000        4.43743200000000
H           62.82967400000000        0.43151100000000        2.62991900000000
H           62.50688600000000       -0.87903900000000       -2.58510300000000
H           60.54653100000000       -0.85810100000000       -4.47045700000000
H           56.87838199999999       -1.59218300000000       -5.38575400000000
H           56.93231100000000       -1.37825300000000       -7.82636100000000
H           58.88522399999999        1.72917600000000      -10.89870800000000
H           59.31650200000000        2.20643300000000       -7.44759200000000
H           59.24918700000000        1.98571600000000       -5.00813200000000
H           55.30036900000000        0.58337000000000       -4.49752100000000
H           53.61663500000000        0.48327600000000       -2.54898100000000
H           58.15547600000000       -2.37351700000000        4.96456900000000
H           58.22376000000000       -2.50003700000000        7.41344100000000
H           58.55649399999999        0.71059800000000       10.94806600000000
H           58.52749200000000        1.80734800000000        7.61317600000000
H           58.45697100000000        1.91784000000000        5.16399200000000
Cu          90.06530599999999        0.02500100000000       -0.04464900000000
C           93.48333000000000       -0.07101200000000       -0.14561500000000
C           92.81803899999998       -0.03884300000000       -1.30376400000000
C           93.46590099999999       -0.03068000000000       -2.61012100000000
C           92.52377599999998        0.05504500000000       -3.53082200000000
C           91.22073699999999        0.10764900000000       -2.85442100000000
N           91.40021599999999        0.04271100000000       -1.43940200000000
C           90.03158100000000        0.25088200000000       -3.47315700000000
C           88.74009599999999        0.32674200000000       -2.74194900000000
C           87.45336900000000        0.61966500000000       -3.38496700000000
C           86.51888400000000        0.57002600000000       -2.45773200000000
N           88.59755899999999        0.10024000000000       -1.47179600000000
C           87.20043600000000        0.23712900000000       -1.21268500000000
C           86.60410899999998        0.01871600000000       -0.02906100000000
C           87.36184700000000       -0.33461700000000        1.19306300000000
C           86.81874100000000       -0.87575000000000        2.27635200000000
C           87.86253800000000       -0.98006900000000        3.27657500000000
C           88.97471100000000       -0.49180300000000        2.73989600000000
C           90.26270700000001       -0.35172700000000        3.46706600000000
C           90.24492100000001       -0.38700500000000        4.94987900000000
C           90.88806399999999       -1.42122000000000        5.64626600000000
C           90.85260300000000       -1.46010900000000        7.04290900000000
C           90.16628599999999       -0.46832700000000        7.76660200000000
C           90.12523500000000       -0.50501200000000        9.24507100000000
O           89.44123700000000        0.48005000000000        9.95297300000000
O           90.70835900000000       -1.42686000000000        9.87757600000000
C           89.51514099999999        0.56038100000000        7.06400100000000
C           89.55212299999998        0.59843000000000        5.66726500000000
C           91.42922600000000       -0.19198800000000        2.81298900000000
C           92.74486000000000       -0.00897400000000        3.42380000000000
C           93.60630300000000        0.05716500000000        2.42738600000000
C           92.85012500000001       -0.07003400000000        1.18280900000000
N           91.58014399999999       -0.21517100000000        1.39506300000000
N           88.74905900000000       -0.06200300000000        1.39589600000000
C           89.99183100000000        0.34986300000000       -4.94741300000000
C           90.05605499999999       -0.80822000000000       -5.73324800000000
C           90.01673900000000       -0.71531600000000       -7.12735300000000
C           89.91137200000000        0.53919500000000       -7.75564400000000
C           89.86883100000000        0.64322600000000       -9.23083200000000
O           89.76564699999999        1.88930300000000       -9.84393800000000
O           89.92540799999999       -0.39354400000000       -9.94618400000000
C           89.84652799999999        1.69699600000000       -6.96043400000000
C           89.88656300000000        1.60226100000000       -5.56643900000000
H           94.56657700000000       -0.08626400000000       -0.17575200000000
H           94.52934000000000       -0.07652000000000       -2.80693700000000
H           92.70788500000000        0.09141000000000       -4.59681600000000
H           87.27837400000000        0.83454800000000       -4.43084000000000
H           85.46254399999998        0.73536800000000       -2.62270300000000
H           85.78533199999998       -1.16779100000000        2.40641000000000
H           87.74568599999999       -1.36439600000000        4.28160200000000
H           91.41383500000001       -2.19912600000000        5.10614500000000
H           91.35990599999998       -2.26805300000000        7.55514100000000
H           89.40699300000000        0.46437000000000       10.96531600000000
H           88.97571499999998        1.33639700000000        7.59225400000000
H           89.04302999999999        1.39845000000000        5.14361500000000
H           92.99184800000000        0.06433800000000        4.47470300000000
H           94.67558300000000        0.18960200000000        2.52762000000000
H           90.13674100000000       -1.78173600000000       -5.26523100000000
H           90.06845700000000       -1.62502900000000       -7.71235700000000
H           89.73572299999999        1.97177200000000      -10.85318100000000
H           89.76472600000000        2.67665400000000       -7.41406900000000
H           89.83524699999998        2.50399100000000       -4.96848100000000
C           63.35849200000000        0.01871600000000       -0.02906100000000
C           64.58040900000000        0.01871600000000       -0.02906100000000
C           73.53515000000000        0.01871600000000       -0.02906100000000
C           74.75706800000000        0.01871600000000       -0.02906100000000
C           83.71180799999999        0.01871600000000       -0.02906100000000
C           84.93372599999999        0.01871600000000       -0.02906100000000
Cu          69.04373199999999        0.01027300000000       -0.03912000000000
C           65.59128000000000       -0.01994300000000        0.03096600000000
C           66.24637500000000       -1.19563300000000        0.02237700000000
C           65.60574200000001       -2.50781200000000       -0.08488900000000
C           66.54291700000000       -3.43320700000000       -0.02789700000000
C           67.83988600000001       -2.76846200000000        0.12821600000000
N           67.66154899999999       -1.34996500000000        0.15147700000000
C           69.02494500000000       -3.40397100000000        0.24722500000000
C           70.31934900000000       -2.68626400000000        0.36687800000000
C           71.58358799999999       -3.33439500000000        0.74265500000000
C           72.53624700000000       -2.42402400000000        0.68919100000000
N           70.48964999999998       -1.42889400000000        0.09857800000000
C           71.88575399999999       -1.18526200000000        0.28095300000000
C           72.50343100000001       -0.01994300000000        0.03096600000000
C           71.75374600000001        1.19322400000000       -0.35527700000000
C           72.28690400000001        2.24534600000000       -0.96373100000000
C           71.25364900000000        3.26131800000000       -1.04625800000000
C           70.16182600000000        2.75970200000000       -0.47903200000000
C           68.90822199999999        3.51750100000000       -0.25274200000000
C           68.96565600000000        4.99919300000000       -0.26023100000000
C           69.74114099999998        5.67713600000000        0.68943100000000
C           69.81587800000000        7.07224500000000        0.67130600000000
C           69.12313499999999        7.81218300000000       -0.30463000000000
C           69.19496700000001        9.28912800000000       -0.32529900000000
O           68.56257300000000       10.01085200000000       -1.33798600000000
O           69.82127699999998        9.90856000000000        0.57721500000000
C           68.35814399999998        7.12750700000000       -1.26375900000000
C           68.28182800000000        5.73233600000000       -1.24231400000000
C           67.73904800000000        2.88886400000000       -0.02745600000000
C           66.46491100000000        3.53123500000000        0.27780600000000
C           65.57553400000000        2.56203400000000        0.35649500000000
C           66.27103900000000        1.29393900000000        0.10784100000000
N           67.53596500000000        1.47809500000000       -0.11360100000000
N           70.38756800000000        1.42931700000000       -0.01650100000000
C           69.06645700000000       -4.88438200000000        0.25321800000000
C           68.55399400000000       -5.60695000000000        1.34215700000000
C           68.61413800000000       -7.00368600000000        1.35191700000000
C           69.19279299999999       -7.69984700000000        0.27413600000000
C           69.26237300000000       -9.17805500000000        0.28050600000000
O           69.83289800000000       -9.85811300000000       -0.79240700000000
O           68.80741600000000       -9.83542700000000        1.25523900000000
C           69.70928299999999       -6.96997700000000       -0.81207700000000
C           69.64836500000000       -5.57358600000000       -0.82059500000000
H           64.55106400000000       -2.71611400000000       -0.20155700000000
H           66.35737100000000       -4.49735200000000       -0.09488000000000
H           71.73016499999999       -4.37103100000000        1.01662200000000
H           73.58296900000001       -2.59354800000000        0.91014800000000
H           73.30895199999999        2.34670300000000       -1.30386700000000
H           71.36779499999999        4.25716900000000       -1.45527900000000
H           70.28367299999999        5.12428100000000        1.44654700000000
H           70.41852500000000        7.57055600000000        1.41842500000000
H           68.60429000000001       11.02239100000000       -1.36028100000000
H           67.81620599999999        7.66870200000000       -2.03127300000000
H           67.69391899999999        5.22163000000000       -1.99549700000000
H           66.26319300000000        4.58457600000000        0.42370700000000
H           64.52542400000000        2.70330800000000        0.57576900000000
H           68.10978200000000       -5.08754800000000        2.18361600000000
H           68.21020700000000       -7.53794100000000        2.20384200000000
H           69.88488000000000      -10.87024500000000       -0.79794900000000
H           70.16269300000000       -7.47660400000000       -1.65579900000000
H           70.05314199999998       -5.02805000000000       -1.66529500000000
Cu          79.22038999999999        0.01027300000000       -0.03912000000000
C           75.76793800000000       -0.01994300000000        0.03096600000000
C           76.42303300000000       -1.19563300000000        0.02237700000000
C           75.78239999999998       -2.50781200000000       -0.08488900000000
C           76.71957499999999       -3.43320700000000       -0.02789700000000
C           78.01654400000000       -2.76846200000000        0.12821600000000
N           77.83820700000000       -1.34996500000000        0.15147700000000
C           79.20160299999999       -3.40397100000000        0.24722500000000
C           80.49600700000001       -2.68626400000000        0.36687800000000
C           81.76024600000000       -3.33439500000000        0.74265500000000
C           82.71290499999999       -2.42402400000000        0.68919100000000
N           80.66630900000000       -1.42889400000000        0.09857800000000
C           82.06241300000001       -1.18526200000000        0.28095300000000
C           82.68008900000000       -0.01994300000000        0.03096600000000
C           81.93040400000000        1.19322400000000       -0.35527700000000
C           82.46356200000000        2.24534600000000       -0.96373100000000
C           81.43030700000000        3.26131800000000       -1.04625800000000
C           80.33848399999999        2.75970200000000       -0.47903200000000
C           79.08488000000000        3.51750100000000       -0.25274200000000
C           79.14231499999998        4.99919300000000       -0.26023100000000
C           79.91779900000000        5.67713600000000        0.68943100000000
C           79.99253699999998        7.07224500000000        0.67130600000000
C           79.29979299999998        7.81218300000000       -0.30463000000000
C           79.37162499999999        9.28912800000000       -0.32529900000000
O           78.73923100000000       10.01085200000000       -1.33798600000000
O           79.99793500000000        9.90856000000000        0.57721500000000
C           78.53480200000000        7.12750700000000       -1.26375900000000
C           78.45848599999998        5.73233600000000       -1.24231400000000
C           77.91570600000000        2.88886400000000       -0.02745600000000
C           76.64156900000000        3.53123500000000        0.27780600000000
C           75.75219299999999        2.56203400000000        0.35649500000000
C           76.44769699999999        1.29393900000000        0.10784100000000
N           77.71262299999999        1.47809500000000       -0.11360100000000
N           80.56422700000000        1.42931700000000       -0.01650100000000
C           79.24311500000000       -4.88438200000000        0.25321800000000
C           78.73065199999999       -5.60695000000000        1.34215700000000
C           78.79079599999999       -7.00368600000000        1.35191700000000
C           79.36945100000000       -7.69984700000000        0.27413600000000
C           79.43903100000000       -9.17805500000000        0.28050600000000
O           80.00955600000000       -9.85811300000000       -0.79240700000000
O           78.98407400000001       -9.83542700000000        1.25523900000000
C           79.88594200000000       -6.96997700000000       -0.81207700000000
C           79.82502400000000       -5.57358600000000       -0.82059500000000
H           74.72772200000000       -2.71611400000000       -0.20155700000000
H           76.53402900000000       -4.49735200000000       -0.09488000000000
H           81.90682300000000       -4.37103100000000        1.01662200000000
H           83.75962699999998       -2.59354800000000        0.91014800000000
H           83.48560999999999        2.34670300000000       -1.30386700000000
H           81.54445400000000        4.25716900000000       -1.45527900000000
H           80.46033099999998        5.12428100000000        1.44654700000000
H           80.59518299999999        7.57055600000000        1.41842500000000
H           78.78094800000000       11.02239100000000       -1.36028100000000
H           77.99286400000000        7.66870200000000       -2.03127300000000
H           77.87057699999998        5.22163000000000       -1.99549700000000
H           76.43985100000000        4.58457600000000        0.42370700000000
H           74.70208200000000        2.70330800000000        0.57576900000000
H           78.28644000000000       -5.08754800000000        2.18361600000000
H           78.38686600000000       -7.53794100000000        2.20384200000000
H           80.06153800000000      -10.87024500000000       -0.79794900000000
H           80.33935099999999       -7.47660400000000       -1.65579900000000
H           80.22980000000000       -5.02805000000000       -1.66529500000000
252
 energy: -483.835006469044 gnorm: 0.742828684740 xtb: 6.5.1 (b24c23e)
Cu          58.22630705529994        0.02193770950861       -0.01428755628069
C           54.80961332687102       -0.08276168210294        0.06671881506591
C           55.47929872063262       -0.18550172250109        1.23251462808052
C           54.82518163713070       -0.32776615561924        2.52559345247928
C           55.77315322349603       -0.34886976481025        3.45525901548854
C           57.06925098512396       -0.21884666210654        2.78290774366854
N           56.88256394129548       -0.12061957506710        1.38440101367004
C           58.26924674680627       -0.14693476167313        3.41622683673842
C           59.54759921062484        0.01147879084573        2.71132917418424
C           60.83191746541781        0.22800264691711        3.37906913127512
C           61.77400256464687        0.28581332673817        2.44245548644973
N           59.70125662502283       -0.06474927014899        1.41061227382637
C           61.09329344963267        0.09977906062101        1.17306946855648
C           61.69658293174736        0.01649434878823       -0.03693112951072
C           60.92766301731965       -0.18615900749770       -1.27432801424904
C           61.47405505451102       -0.60644792680350       -2.43533278363903
C           60.44221346934255       -0.59461870859729       -3.42878439669537
C           59.30877394793665       -0.16395784335741       -2.83199557569721
C           58.03659485569248        0.05332815416768       -3.54092634812570
C           58.04930973357207        0.18887609858945       -5.02136547704676
C           57.40479559483100       -0.75519904790576       -5.83455446828077
C           57.44072388460270       -0.63296772133792       -7.22364735481943
C           58.12766863583240        0.43653813668920       -7.83003895222908
C           58.16376766423910        0.56354270433970       -9.31364526781894
O           58.84853478482049        1.62421764018143       -9.88845859595354
O           57.58966909486322       -0.26636329774743      -10.03035837519939
C           58.77644066428818        1.37389322140737       -7.01065137048957
C           58.73972944131181        1.25022581584257       -5.62244153545787
C           56.86143111871569        0.13730952904172       -2.87516122348948
C           55.55195828016571        0.38884558715767       -3.46326691661342
C           54.68148602308008        0.33967584936323       -2.45856901481420
C           55.43212169548444        0.06978045028135       -1.23717553410240
N           56.71448774304037       -0.04765867101644       -1.47627301828935
N           59.54780099579445        0.10019941865655       -1.45701297406143
C           58.30153588855637       -0.21931050514627        4.89610951827952
C           58.23616066739606       -1.45883314027777        5.54440131717881
C           58.27554969983998       -1.52676838647100        6.93701202161614
C           58.38109930176130       -0.35223108176442        7.70751994231274
C           58.42328931570438       -0.42897983871585        9.19440828239751
O           58.52617951586276        0.74099158212499        9.93262786648207
O           58.36739634059900       -1.52335959298883        9.76986489718506
C           58.44557172995871        0.88577180304591        7.04805838457400
C           58.40591403782678        0.95171783538920        5.65608069462307
H           53.72589868579949       -0.10214880192823        0.10326769087705
H           53.76292430789641       -0.39609617180095        2.71705134894375
H           55.58698839301007       -0.43572565094601        4.51677559042085
H           61.01159766632311        0.32133315641859        4.43841519703743
H           62.82939359015955        0.43137716674474        2.62724971490868
H           62.50683798498277       -0.87947184762934       -2.58624456952547
H           60.54768877008658       -0.85857555237901       -4.47024941923006
H           56.87876166592765       -1.59167983037855       -5.38587549048037
H           56.93277833090961       -1.37758085424911       -7.82702887060465
H           58.88210104069820        1.72398774435989      -10.88903458419620
H           59.31622986869026        2.20608061817650       -7.44800330209677
H           59.24891835474294        1.98527852458551       -5.00816625698054
H           55.30292545219223        0.58307795079788       -4.49743613618724
H           53.61595215896342        0.48302599084085       -2.54705794322045
H           58.15556486439028       -2.37288719165195        4.96481874480831
H           58.22385544725963       -2.49933008937720        7.41427441100567
H           58.55585186180655        0.70592699275736       10.93767817189928
H           58.52744332846721        1.80686839391651        7.61360161886228
H           58.45692470417880        1.91730924264182        5.16401437830971
Cu          90.06591635714832        0.02370074135563       -0.04335026201379
C           93.48259097404653       -0.07104447775170       -0.13594207682336
C           92.81294634390657       -0.03865002102089       -1.30578021822493
C           93.46705338196759       -0.03087059210484       -2.60663974934697
C           92.51907965021594        0.05536251151036       -3.53253208484034
C           91.22302966088000        0.10699759847477       -2.84958678350445
N           91.40969212698116        0.04322567660286       -1.44927590931728
C           90.02286712108696        0.25145956305375       -3.47044147716805
C           88.74465641958983        0.32750652720734       -2.75205590630956
C           87.46025612580192        0.61960789019369       -3.39034442884195
C           86.51818876394549        0.56902133388466       -2.45335105855922
N           88.59079911679829        0.10177538446003       -1.46872800963319
C           87.19891513993916        0.23802029747761       -1.21385551868306
C           86.59503702499877        0.01562442964236       -0.02099876940486
C           87.36442428595534       -0.32853169468770        1.18441280686212
C           86.81813423912381       -0.87979205836033        2.28915809538910
C           87.84998070566924       -0.98257012391351        3.27727339972618
C           88.98340405473017       -0.48592050324983        2.73408192325673
C           90.25562568737915       -0.35186078798931        3.46336096179524
C           90.24289927824275       -0.38792891624295        4.94957843337733
C           90.88742367659636       -1.41947826913613        5.64845896152146
C           90.85148843253052       -1.45823514847994        7.04239273607088
C           90.16454796390195       -0.46578837373561        7.76804377834458
C           90.12843217486673       -0.51069825668149        9.25645807982185
O           89.44370771801196        0.47658078681826        9.94968331851386
O           90.70255512445041       -1.41772625933567        9.87263228687896
C           89.51578189557230        0.55979282041829        7.06223238168068
C           89.55248374982507        0.59703376645949        5.66900646326943
C           91.43079755446109       -0.19166528526066        2.81172913546175
C           92.74027709763809       -0.00963253860526        3.42492871725678
C           93.61073815449366        0.05739431886084        2.42127435361940
C           92.86006221711131       -0.06987042525264        1.17693813030694
N           91.57781335756411       -0.21412456908559        1.40089268841738
N           88.74427711974201       -0.06500382855440        1.39878054866350
C           89.99067429056052        0.35021583728140       -4.94881657668019
C           90.05605796095722       -0.80629045018887       -5.73572190329573
C           90.01666926466909       -0.71319215567263       -7.12687590606591
C           89.91111740583834        0.54236304853536       -7.75681257850181
C           89.86893680652733        0.63759019828020       -9.24261185280176
O           89.76603002727909        1.88486373984945       -9.84101517192955
O           89.92481077804960       -0.38315985191991       -9.94045100363900
C           89.84664607042512        1.69606380985752       -6.95898678987370
C           89.88630277279532        1.60105971917714       -5.56869193910063
H           94.56631720469407       -0.08608668995227       -0.17444618753748
H           94.52929686611974       -0.07666940498141       -2.80468996284457
H           92.70523083947542        0.09149509200456       -4.59697821337529
H           87.28060651392141        0.83447299204937       -4.43184027066657
H           85.46281000194752        0.73494791321561       -2.62008483157434
H           85.78536368384903       -1.16837618302101        2.40753391486728
H           87.74452235729325       -1.36484964849402        4.28133585185039
H           91.41345587701520       -2.19864358596286        5.10632175911035
H           91.35943836657518       -2.26746245221906        7.55588125488184
H           89.41010592647021        0.46033764566147       10.95510881970163
H           88.97598772441839        1.33599666455329        7.59261949875993
H           89.04330014531823        1.39801173359467        5.14359937982471
H           92.98929306070258        0.06405878615190        4.47458551658315
H           94.67626698789900        0.18957585550411        2.52568284254156
H           90.13665315568178       -1.78108334713609       -5.26540610192319
H           90.06836285937042       -1.62423200264379       -7.71310316578404
H           89.73637124220637        1.96593791041219      -10.84339893382067
H           89.76477504705625        2.67622587973687       -7.41454650692704
H           89.83529287121549        2.50346354740782       -4.96856614785876
C           63.29565029815709        0.01898436360660       -0.02992588986356
C           64.46389827520474        0.02654731233696       -0.03586744304001
C           73.58996994951407        0.02966320626563       -0.03578398228754
C           74.68562061719676        0.02707781299538       -0.03788910098412
C           83.81560361245916        0.02832479750866       -0.03412534447625
C           84.99194094174511        0.01907136431839       -0.02909055596513