119
 energy: -208.999767742519 gnorm: 1.001578900066 xtb: 6.5.1 (b24c23e)
Zn          12.02573200000000        0.03072100000000        0.03188700000000
C            8.65207500000000       -0.07891200000000       -0.07816600000000
C            9.32498100000000       -0.89369500000000       -0.89661700000000
C            8.69628000000000       -1.82411800000000       -1.83114500000000
C            9.65710300000000       -2.46542400000000       -2.47532700000000
C           10.94022400000000       -1.97171400000000       -1.97947300000000
N           10.74603900000000       -0.97615300000000       -0.97949500000000
C           12.12846300000000       -2.40258700000000       -2.41223300000000
C           13.42814700000000       -1.91116800000000       -1.91858700000000
C           14.70783000000000       -2.40936200000000       -2.41871100000000
C           15.66358000000000       -1.76812300000000       -1.77460000000000
N           13.58176500000000       -1.00223100000000       -1.00576700000000
C           14.99305400000000       -0.85238300000000       -0.85507700000000
C           15.60178400000000       -0.00597100000000       -0.00497700000000
C           14.85397000000000        0.89996000000000        0.90476100000000
C           15.42537500000000        1.74694500000000        1.75536000000000
C           14.36328400000000        2.44430400000000        2.45575900000000
C           13.21692600000000        1.97818200000000        1.98766700000000
N           13.42940000000000        0.98156400000000        0.98674300000000
C           11.90163100000000        2.44858800000000        2.46024900000000
C           10.73475700000000        1.99116700000000        2.00091700000000
C            9.42694200000000        2.44047100000000        2.45240100000000
C            8.54591400000000        1.74583600000000        1.75478600000000
C            9.29282300000000        0.85704600000000        0.86191600000000
N           10.57417200000000        0.99382500000000        0.99913500000000
H            7.56896400000000       -0.10143600000000       -0.10071800000000
H            7.63486200000000       -1.97383100000000       -1.98147200000000
H            9.50343800000000       -3.22139700000000       -3.23463000000000
H           12.14816100000000       -3.16707200000000       -3.18007400000000
H           14.85871000000000       -3.16549300000000       -3.17800600000000
H           16.72525300000000       -1.91490700000000       -1.92179900000000
H           16.48500600000000        1.89919600000000        1.90825500000000
H           14.48309200000000        3.20341200000000        3.21817300000000
H           11.88500100000000        3.21347800000000        3.22853800000000
H            9.20320300000000        3.18755000000000        3.20286900000000
H            7.47025700000000        1.82879100000000        1.83828400000000
Zn          47.26189200000000       -0.05791800000000       -0.00239100000000
C           50.63555000000000        0.09723400000000       -0.01004800000000
C           49.96264400000000        1.25068600000000       -0.06736300000000
C           50.59134499999999        2.56778600000000       -0.13274900000000
C           49.63052199999999        3.47564600000000       -0.17785300000000
C           48.34740000000000        2.77677700000000       -0.14318200000000
N           48.54158600000000        1.36745000000000       -0.07319800000000
C           47.15916199999999        3.38670800000000       -0.17345200000000
C           45.85947700000000        2.69101900000000       -0.13887300000000
C           44.57979499999999        3.39607800000000       -0.17368600000000
C           43.62404500000000        2.48831600000000       -0.12859000000000
N           45.70585899999999        1.40441900000000       -0.07509000000000
C           44.29457100000000        1.19217400000000       -0.06442600000000
C           43.68584100000000       -0.00597100000000       -0.00497700000000
C           44.43365499999999       -1.28827300000000        0.05854900000000
C           43.86225000000000       -2.48717600000000        0.11798100000000
C           44.92434100000000       -3.47432800000000        0.16696200000000
C           46.07069899999999       -2.81454700000000        0.13426900000000
N           45.85822500000000       -1.40380300000000        0.06429700000000
C           47.38599299999999       -3.48051800000000        0.16740100000000
C           48.55286700000000       -2.83306800000000        0.13533400000000
C           49.86068299999999       -3.46923300000000        0.16705600000000
C           50.74171000000000       -2.48596900000000        0.11830300000000
C           49.99480200000000       -1.22769700000000        0.05572400000000
N           48.71345300000000       -1.42121100000000        0.06521500000000
H           51.71866100000000        0.12907100000000       -0.01157800000000
H           51.65276200000000        2.77968700000000       -0.14323700000000
H           49.78418700000000        4.54579300000000       -0.23097600000000
H           47.13946400000000        4.46889600000000       -0.22716500000000
H           44.42891500000000        4.46633700000000       -0.22669800000000
H           42.56237200000000        2.69594600000000       -0.13873400000000
H           42.80261900000000       -2.70268300000000        0.12866000000000
H           44.80453300000000       -4.54888800000000        0.22027700000000
H           47.40262300000000       -4.56330800000000        0.22117300000000
H           50.08442200000000       -4.52685600000000        0.21962700000000
H           51.81736799999999       -2.60351900000000        0.12426300000000
C           22.36861000000000       -0.00596400000000        0.00381500000000
C           21.15967100000000       -0.01941900000000       -0.00463200000000
C           19.73814200000000       -0.01060000000000       -0.01661500000000
C           18.52647200000000       -0.00316100000000       -0.00575200000000
C           23.78521400000000       -0.01263900000000        0.00434800000000
C           25.00591000000000       -0.00316100000000       -0.00575200000000
C           38.12590300000000       -0.00596400000000        0.00381500000000
C           36.91696400000000       -0.01941900000000       -0.00463200000000
C           35.49543500000000       -0.01060000000000       -0.01661500000000
C           34.28376500000000       -0.00316100000000       -0.00575200000000
C           39.54250700000000       -0.01263900000000        0.00434800000000
C           40.76320300000000       -0.00316100000000       -0.00575200000000
Zn          29.60133000000000       -0.04085600000000       -0.03600300000000
C           26.16787800000000        0.01336600000000        0.01221100000000
C           26.83441200000000        0.88680000000000        0.78944100000000
C           26.21009900000000        1.87879000000000        1.67213000000000
C           27.16847000000000        2.55735700000000        2.27600800000000
C           28.44968000000000        2.03712900000000        1.81314100000000
N           28.25758900000000        0.98155100000000        0.87382600000000
C           29.63206400000000        2.50218000000000        2.22701600000000
C           30.94174000000000        1.99899300000000        1.77928300000000
C           32.20838300000000        2.54392100000000        2.26429200000000
C           33.18056300000000        1.87848800000000        1.67212500000000
N           31.11771700000000        1.03955200000000        0.92542900000000
C           32.53293200000000        0.90083100000000        0.80202700000000
C           33.16198100000000        0.01336600000000        0.01221100000000
C           32.43205700000000       -0.95217000000000       -0.84709500000000
C           33.01880100000000       -1.84296900000000       -1.63996800000000
C           31.96873000000000       -2.59029400000000       -2.30497500000000
C           30.81454900000000       -2.10690300000000       -1.87464100000000
N           31.00886100000000       -1.05077200000000       -0.93470900000000
C           29.50947200000000       -2.61688700000000       -2.32831500000000
C           28.33028800000000       -2.14921700000000       -1.91206400000000
C           27.04317700000000       -2.65116300000000       -2.35859400000000
C           26.13660800000000       -1.93552900000000       -1.72179900000000
C           26.84429700000000       -0.97312100000000       -0.86554100000000
N           28.13180300000000       -1.09520500000000       -0.97424600000000
H           25.15272900000000        2.04951400000000        1.82399600000000
H           27.01320700000000        3.35769000000000        2.98818100000000
H           29.63847400000000        3.31184500000000        2.94751100000000
H           32.33952800000000        3.34634100000000        2.97841200000000
H           34.23836699999999        2.04787900000000        1.82291300000000
H           34.08110499999999       -1.99407000000000       -1.77454500000000
H           32.10132000000000       -3.39287400000000       -3.01924900000000
H           29.51100100000000       -3.42700200000000       -3.04917600000000
H           26.84867600000000       -3.44663300000000       -3.06636300000000
H           25.06724600000000       -2.05650200000000       -1.82937200000000
119
 energy: -209.258203365658 gnorm: 0.357290612441 xtb: 6.5.1 (b24c23e)
Zn          12.02844467753928        0.02810013881121        0.02927958075022
C            8.65237843051177       -0.06694878288733       -0.06614946486432
C            9.33022414622837       -0.89466130958017       -0.89758594908558
C            8.69484022478242       -1.81967209038399       -1.82667854949836
C            9.66363836219564       -2.46639845069052       -2.47630553851656
C           10.93863863917412       -1.96825389856642       -1.97599651689185
N           10.72634963725203       -0.99089651023280       -0.99430884874411
C           12.14568723843457       -2.40107893823116       -2.41071779707940
C           13.42308239128549       -1.92371686004626       -1.93118280730378
C           14.69878008477467       -2.41633643710281       -2.42571382858659
C           15.66517165757007       -1.76367938948372       -1.77014521453486
N           13.59459548280031       -1.00373267624856       -1.00726406357999
C           15.00237634111896       -0.85047729730000       -0.85318917272195
C           15.58091147015970        0.00573029155124        0.00664964137033
C           14.85045691997046        0.89127039954019        0.89601693465763
C           15.42935523796585        1.76296595914429        1.77144726246441
C           14.38817748130874        2.44634398197374        2.45780882491500
C           13.20691073152086        1.96959410478405        1.97904966072899
N           13.43814671883966        0.98703517656766        0.99224928646151
C           11.91774513833391        2.44098642718193        2.45261248753318
C           10.73312703343356        1.99015635612233        1.99990138668788
C            9.43125813512163        2.43941211808532        2.45133739577165
C            8.53507292652336        1.73835973968041        1.74727763528298
C            9.27260030284851        0.85163246537667        0.85647972266738
N           10.56999856395168        1.00274896570444        1.00808709666947
H            7.56927461981268       -0.09737265413909       -0.09663688517170
H            7.63435703315076       -1.96825439516225       -1.97587092164238
H            9.51140656898989       -3.22155609626327       -3.23479067158217
H           12.15455740295432       -3.16625121028793       -3.17925232518551
H           14.85252408037372       -3.16873500674539       -3.18126232618993
H           16.72577552215465       -1.90809046654739       -1.91495896730733
H           16.48734192230547        1.90297449425861        1.91204636426490
H           14.49073314015694        3.20388507741386        3.21864667772643
H           11.89450891493508        3.20919952703370        3.22423749949315
H            9.21081997840164        3.18655592236255        3.20186898664709
H            7.46522105044009        1.82414445225251        1.83361655455028
Zn          47.25918927991206       -0.05422823961515       -0.00256359744701
C           50.63524572062305        0.08030074534098       -0.00920678453402
C           49.95740236916830        1.25205170922814       -0.06743076681047
C           50.59278428865090        2.56149109007693       -0.13243595544533
C           49.62398564135788        3.47702452150735       -0.17792184190410
C           48.34898548308502        2.77187505274286       -0.14293818427954
N           48.56127268325395        1.38832816389823       -0.07423343381889
C           47.14193392446629        3.38457362005407       -0.17334434846731
C           45.86454328623390        2.70878829963902       -0.13975569134537
C           44.58884211448240        3.40595251387120       -0.17417595801885
C           43.62245025030772        2.48203768134813       -0.12827700743030
N           45.69305216768973        1.40654652491776       -0.07519878025941
C           44.28527761995164        1.18951775525543       -0.06429585735598
C           43.70698392692191       -0.02244796187917       -0.00415916769940
C           44.43718416531740       -1.27599017760424        0.05793885693064
C           43.85826575329955       -2.50986671386963        0.11910754815381
C           44.89944306368459       -3.47721825092023        0.16710583081552
C           46.08071109020624       -2.80240034238625        0.13366906575627
N           45.84950069319465       -1.41155210524288        0.06468820757906
C           47.36987604789973       -3.46975510829698        0.16686550993771
C           48.55449658832448       -2.83163731356621        0.13526225541365
C           49.85636538036469       -3.46773397211016        0.16698160115688
C           50.75255067022327       -2.47538621717326        0.11777810502450
C           50.01502404560344       -1.22003656244332        0.05534367177830
N           48.71762681826252       -1.43383700317764        0.06583692719282
H           51.71834998371556        0.12331975678555       -0.01129249296570
H           51.65326701411124        2.77179299661595       -0.14284525287138
H           49.77621767941069        4.54601819416028       -0.23098807833922
H           47.13306507487637        4.46773550565653       -0.22710776250727
H           44.43509808217222        4.47092563082611       -0.22692714453988
H           42.56184610287243        2.68629721029441       -0.13825724231540
H           42.80028567667134       -2.70803606168500        0.12892375351453
H           44.79689005520066       -4.54955332596519        0.22030845153320
H           47.39311266439050       -4.55724698431235        0.22087064070859
H           50.07680428959321       -4.52544687138852        0.21955578498615
H           51.82240320593384       -2.59694068213562        0.12393606253025
C           22.36092997140184       -0.00660624876854        0.00336921419462
C           21.13703165563243       -0.01916029864048       -0.00512075168053
C           19.73894142726607       -0.01046801198968       -0.01600791999801
C           18.51657328461613       -0.00334093939867       -0.00563777347842
C           23.72069221089087       -0.01289357411170        0.00481657327995
C           24.92527829610065       -0.00828459017426       -0.01115616107285
C           38.15119612614240       -0.00614757615200        0.00359546524600
C           36.92834820634577       -0.01954461865109       -0.00471430176324
C           35.57348122706841       -0.01378452059570       -0.01981033354035
C           34.37388936200550       -0.01335229007155       -0.01465595262220
C           39.54573024796054       -0.01226707767865        0.00437751109857
C           40.76929292955649       -0.00355303053493       -0.00556614001006
Zn          29.60360056775474       -0.03986626438178       -0.03510401005344
C           26.22519865526338        0.00207949506171        0.00223915885520
C           26.86759399633307        0.89917166573003        0.80045868527674
C           26.21125812777801        1.87156350458094        1.66567244620177
C           27.17678762616993        2.55975233713343        2.27814526219737
C           28.44883182254394        2.03725347485439        1.81326092638130
N           28.24736562221038        1.00138370785138        0.89151685570020
C           29.64873701176606        2.50412940559261        2.22873714898948
C           30.93160882671614        2.01905080572987        1.79713592297777
C           32.19521894391872        2.55406325084720        2.27332367506891
C           33.17449918580573        1.87245643559520        1.66675997476375
N           31.11668373146895        1.04746899012193        0.93254815985006
C           32.49581226730131        0.91469794209859        0.81445181678241
C           33.07889877101211        0.00394506446280        0.00374421176940
C           32.39552437864293       -0.95307452148039       -0.84784126623489
C           33.01684469343670       -1.85930845891913       -1.65449266277488
C           31.99144313754597       -2.59422427781153       -2.30847466782837
C           30.80124333929832       -2.10190725080134       -1.87018861656830
N           31.00588168497026       -1.06228445378253       -0.94493305919960
C           29.52526724187144       -2.61123022550640       -2.32328711885040
C           28.33067448480817       -2.15126909140385       -1.91388590755675
C           27.04826433201770       -2.65086167609905       -2.35832408989302
C           26.12781777418819       -1.92635636548539       -1.71365001641070
C           26.84703606062245       -0.97643869295494       -0.86849685285270
N           28.13859515803304       -1.10932159711647       -0.98678080781845
H           25.15273635705621        2.04027251270987        1.81577084797133
H           27.02070250132504        3.35822399948027        2.98865967537447
H           29.64391685693765        3.31284233764227        2.94839406387139
H           32.33356101080707        3.35086994129252        2.98244459490242
H           34.23538306030052        2.03850745399416        1.81457665572067
H           34.08067553853409       -1.99613916565440       -1.77638158069038
H           32.10935720945848       -3.39414103285384       -3.02037882758899
H           29.51981324381979       -3.42371544179921       -3.04625502051536
H           26.85566150267439       -3.44560355918496       -3.06544524215162
H           25.06272022386763       -2.04917967916947       -1.82285684013369
119
 energy: -209.346349395253 gnorm: 0.156989601502 xtb: 6.5.1 (b24c23e)
Zn          12.03403261723264        0.02347961849917        0.02466365428092
C            8.65342375577686       -0.05402083604879       -0.05317219673954
C            9.33303446383322       -0.89598542897752       -0.89890067195122
C            8.69493593951961       -1.81449036134210       -1.82151133995976
C            9.67202506453204       -2.46670594636229       -2.47657335528175
C           10.93784331754579       -1.96666413725728       -1.97417588327671
N           10.70202707401975       -1.00921476746546       -1.01265979346152
C           12.16647008623784       -2.39790987937449       -2.40746460712605
C           13.42186730766268       -1.93845219615693       -1.94595940935408
C           14.69295687477538       -2.42322527290544       -2.43263135416982
C           15.66390928535223       -1.75967732790308       -1.76615535450785
N           13.61123530620984       -1.00680823375444       -1.01033042551021
C           15.00977231406261       -0.85029897780684       -0.85308855762997
C           15.54778090347231        0.02502625761870        0.02575109307407
C           14.85051106329655        0.88886845112234        0.89352593815410
C           15.43541264662105        1.78346486173628        1.79201152579191
C           14.42051599958564        2.44729709598368        2.45877597422355
C           13.20743584796480        1.96139333927496        1.97083629843349
N           13.45351954829216        0.99631664323923        1.00158760481808
C           11.94374694622712        2.42593772953271        2.43749968992425
C           10.73199000528136        1.98492921336389        1.99465051544462
C            9.43560344453733        2.43350997156197        2.44540953276029
C            8.52286686219405        1.73051468752784        1.73939799077979
C            9.24799893363915        0.84669492961125        0.85151974653674
N           10.56310322275805        1.01192246652664        1.01729559377438
H            7.57024115705010       -0.09027727928263       -0.08951316852310
H            7.63395228630080       -1.95680119304459       -1.96469921540712
H            9.52789877688863       -3.22173390240248       -3.23498201030843
H           12.16754533758345       -3.16360312697294       -3.17658996317089
H           14.84402185386954       -3.17495074259971       -3.18750025073039
H           16.72609716457281       -1.89452133664056       -1.90135547136133
H           16.49520568316449        1.91065116905503        1.91973957774696
H           14.50674316138999        3.20498925879906        3.21975713136209
H           11.91991222788263        3.19570697683224        3.21067708924288
H            9.22629023048493        3.18200927791232        3.19729960156300
H            7.45438421330268        1.81629848812226        1.82573471330610
Zn          47.25361166080097       -0.04771948180191       -0.00288258736311
C           50.63421130358596        0.06200566028759       -0.00829756844894
C           49.95461064677527        1.25391724446728       -0.06752155142796
C           50.59269238955820        2.55420871207779       -0.13207232654414
C           49.61557721033615        3.47741844234418       -0.17794095057421
C           48.34977801420086        2.76940875502328       -0.14281331375400
N           48.58560719919669        1.41419355322848       -0.07551520961795
C           47.12116000185392        3.38002021609821       -0.17311456522513
C           45.86576523882393        2.72964486824608       -0.14079117257191
C           44.59466953075448        3.41570934228047       -0.17466049307433
C           43.62371840206600        2.47639737241840       -0.12799185729019
N           45.67643845372262        1.41089896182559       -0.07541860396426
C           44.27790220365505        1.18933636525303       -0.06427923135566
C           43.74026764628068       -0.04960205204694       -0.00278275296123
C           44.43716582550483       -1.27255901669796        0.05777644305115
C           43.85222348742582       -2.53888414951765        0.12054957798748
C           44.86711173395737       -3.47858598801940        0.16717629943596
C           46.08020037465362       -2.79082827950825        0.13310292448060
N           45.83416542482017       -1.42472597896343        0.06535367035796
C           47.34388051149604       -3.44846349281732        0.16580754984179
C           48.55563720705467       -2.82424013501193        0.13489528441967
C           49.85202149999844       -3.45937981129089        0.16656832716244
C           50.76475865807600       -2.46428145118280        0.11722736159897
C           50.03962972054382       -1.21304692095294        0.05499762110474
N           48.72452563212897       -1.44682203976725        0.06648219770949
H           51.71739194901334        0.11327567276331       -0.01079233725191
H           51.65365864516459        2.75598051096065       -0.14205962011602
H           49.75969924495737        4.54627071338419       -0.23100197789752
H           47.12009295168874        4.46397204718623       -0.22691934257305
H           44.44359807544237        4.47972529506470       -0.22736677459943
H           42.56152887993341        2.66710165538425       -0.13730755434093
H           42.79243580633115       -2.71890175892787        0.12945993253963
H           44.78087920566089       -4.55112458285342        0.22038289582034
H           47.36771375075514       -4.53814783919834        0.21991888280978
H           50.06133442635829       -4.51900903029550        0.21923459939753
H           51.83324098714476       -2.58583359530298        0.12338426379049
C           22.32584610513458       -0.00725609040726        0.00340205260769
C           21.09534777466012       -0.01872634732414       -0.00635575928634
C           19.72084411959245       -0.00999654162492       -0.01460421804701
C           18.49452480206723       -0.00291852688506       -0.00418446212796
C           23.66191346956110       -0.01087448108033        0.00743637682718
C           24.88285492348680       -0.01122280364328       -0.01601393098122
C           38.19080661755758       -0.00639650648669        0.00262705341454
C           36.96010826776338       -0.01958297680879       -0.00549474779618
C           35.62414357782075       -0.01807470897530       -0.02390665066034
C           34.40143050432074       -0.02883178328538       -0.02702210602950
C           39.56511691167390       -0.01200883273184        0.00497557789824
C           40.79097076443457       -0.00571535890239       -0.00517216804442
Zn          29.60688318156615       -0.03717524279108       -0.03263807338195
C           26.23846929657441       -0.01308765158362       -0.01082771695689
C           26.87963394026715        0.90443389352549        0.80528592995713
C           26.21335886492994        1.86389736287137        1.65873386669586
C           27.18501109063184        2.56169451006392        2.27986508795258
C           28.44827236820421        2.04171933775554        1.81728791015921
N           28.22832215234532        1.02544663612449        0.91317548722814
C           29.66699465528276        2.51008042599030        2.23402810281426
C           30.92239739074182        2.04454694450888        1.81985104973984
C           32.18292550927707        2.56621538884504        2.28415392431494
C           33.16204375586216        1.86816630747167        1.66298304324221
N           31.12320177485584        1.05786119468707        0.94185940840441
C           32.47778002644171        0.92017861223080        0.81923412224402
C           33.04900951504507       -0.01432754769705       -0.01301322472432
C           32.37382719275045       -0.95349030236460       -0.84834559804006
C           33.01521119086338       -1.87964095348977       -1.67256017933614
C           32.02023088657736       -2.59782786767496       -2.31165855377106
C           30.79565140089645       -2.09983649035996       -1.86831889734349
N           31.01086789376369       -1.07783338072013       -0.95874543026918
C           29.54992931295747       -2.60296617505369       -2.31593783245783
C           28.33164973958413       -2.15168306119312       -1.91422319099310
C           27.05278137973233       -2.64606967083284       -2.35407074638577
C           26.11848548861261       -1.91657142303121       -1.70502781524769
C           26.83404109547332       -0.97636234384503       -0.86835520064290
N           28.14192040036429       -1.12454775026342       -1.00012018961456
H           25.15391913371629        2.02295534343452        1.80032391778285
H           27.03502813691977        3.35967168554511        2.98994825062966
H           29.65293147760228        3.31838196004627        2.95329639700190
H           32.32400638424932        3.36150424769966        2.99191445033439
H           34.22502136150506        2.02217084577221        1.80005788025413
H           34.08042225788287       -2.00191279542693       -1.78150719088941
H           32.12546654608574       -3.39759736634465       -3.02345012626301
H           29.54303723353244       -3.41606475160788       -3.03947100078870
H           26.86916597242605       -3.44150667213237       -3.06180018637881
H           25.05440033156447       -2.03616356616328       -1.81129997634989
119
 energy: -209.380242907267 gnorm: 0.053370015194 xtb: 6.5.1 (b24c23e)
Zn          12.04754179751296        0.01883071318652        0.01994710220065
C            8.65336727692370       -0.04779096390201       -0.04691839554937
C            9.33249747254272       -0.90093048909810       -0.90391351316111
C            8.69472912793559       -1.81338051987032       -1.82037656612009
C            9.67802983825648       -2.46886979142051       -2.47877530162026
C           10.93524758155163       -1.96796239501940       -1.97571816504983
N           10.68513830755778       -1.02269732383007       -1.02620706149679
C           12.18198800381609       -2.39499156436412       -2.40462011862821
C           13.42665035379450       -1.94908274127614       -1.95662295910793
C           14.69531075663139       -2.42754919996211       -2.43697135607900
C           15.66460557491413       -1.75660904444008       -1.76313190134760
N           13.62806020989127       -1.00703779880715       -1.01057207742322
C           15.01352901015891       -0.85296426352895       -0.85584534129976
C           15.52093758907877        0.03976334449031        0.04026790372829
C           14.86102726128886        0.89169496814204        0.89623781427506
C           15.45302818978764        1.80373817717540        1.81230498023510
C           14.45496463584914        2.45312836113977        2.46464543730845
C           13.21881259602898        1.95784701468956        1.96729331301332
N           13.47573654568926        1.00769795239780        1.01297384711133
C           11.97051555149108        2.40876309035715        2.42026428745764
C           10.73423701767740        1.97566102943386        1.98535236952678
C            9.44259176571903        2.42604158293640        2.43790795518923
C            8.51653265297985        1.72610289428467        1.73496726416630