      -----------------------------------------------------------      
     |                   =====================                   |     
     |                           x T B                           |     
     |                   =====================                   |     
     |                         S. Grimme                         |     
     |          Mulliken Center for Theoretical Chemistry        |     
     |                    University of Bonn                     |     
      -----------------------------------------------------------      

   * xtb version 6.5.1 (b24c23e) compiled by 'conda@728c89f4b128' on 2022-07-12

   xtb is free software: you can redistribute it and/or modify it under
   the terms of the GNU Lesser General Public License as published by
   the Free Software Foundation, either version 3 of the License, or
   (at your option) any later version.
   
   xtb is distributed in the hope that it will be useful,
   but WITHOUT ANY WARRANTY; without even the implied warranty of
   MERCHANTABILITY or FITNESS FOR A PARTICULAR PURPOSE.  See the
   GNU Lesser General Public License for more details.
   
   Cite this work as:
   * C. Bannwarth, E. Caldeweyher, S. Ehlert, A. Hansen, P. Pracht,
     J. Seibert, S. Spicher, S. Grimme, WIREs Comput. Mol. Sci., 2020, 11,
     e01493. DOI: 10.1002/wcms.1493
   
   for GFN2-xTB:
   * C. Bannwarth, S. Ehlert and S. Grimme., J. Chem. Theory Comput., 2019,
     15, 1652-1671. DOI: 10.1021/acs.jctc.8b01176
   for GFN1-xTB:
   * S. Grimme, C. Bannwarth, P. Shushkov, J. Chem. Theory Comput., 2017,
     13, 1989-2009. DOI: 10.1021/acs.jctc.7b00118
   for GFN0-xTB:
   * P. Pracht, E. Caldeweyher, S. Ehlert, S. Grimme, ChemRxiv, 2019, preprint.
     DOI: 10.26434/chemrxiv.8326202.v1
   for GFN-FF:
   * S. Spicher and S. Grimme, Angew. Chem. Int. Ed., 2020, 59, 15665-15673.
     DOI: 10.1002/anie.202004239
   
   for ALPB and GBSA implicit solvation:
   * S. Ehlert, M. Stahn, S. Spicher, S. Grimme, J. Chem. Theory Comput.,
     2021, 17, 4250-4261. DOI: 10.1021/acs.jctc.1c00471
   
   for DFT-D4:
   * E. Caldeweyher, C. Bannwarth and S. Grimme, J. Chem. Phys., 2017,
     147, 034112. DOI: 10.1063/1.4993215
   * E. Caldeweyher, S. Ehlert, A. Hansen, H. Neugebauer, S. Spicher,
     C. Bannwarth and S. Grimme, J. Chem. Phys., 2019, 150, 154122.
     DOI: 10.1063/1.5090222
   * E. Caldeweyher, J.-M. Mewes, S. Ehlert and S. Grimme, Phys. Chem. Chem. Phys.
     2020, 22, 8499-8512. DOI: 10.1039/D0CP00502A
   
   for sTDA-xTB:
   * S. Grimme and C. Bannwarth, J. Chem. Phys., 2016, 145, 054103.
     DOI: 10.1063/1.4959605
   
   in the mass-spec context:
   * V. Asgeirsson, C. Bauer and S. Grimme, Chem. Sci., 2017, 8, 4879.
     DOI: 10.1039/c7sc00601b
   * J. Koopman and S. Grimme, ACS Omega 2019, 4, 12, 15120-15133.
     DOI: 10.1021/acsomega.9b02011
   
   for metadynamics refer to:
   * S. Grimme, J. Chem. Theory Comput., 2019, 155, 2847-2862
     DOI: 10.1021/acs.jctc.9b00143
   
   for SPH calculations refer to:
   * S. Spicher and S. Grimme, J. Chem. Theory Comput., 2021, 17, 1701-1714
     DOI: 10.1021/acs.jctc.0c01306
   
   with help from (in alphabetical order)
   P. Atkinson, C. Bannwarth, F. Bohle, G. Brandenburg, E. Caldeweyher
   M. Checinski, S. Dohm, S. Ehlert, S. Ehrlich, I. Gerasimov, C. Hölzer
   A. Katbashev, J. Koopman, C. Lavigne, S. Lehtola, F. März, M. Müller,
   F. Musil, H. Neugebauer, J. Pisarek, C. Plett, P. Pracht, F. Pultar,
   J. Seibert, P. Shushkov, S. Spicher, M. Stahn, M. Steiner, T. Strunk,
   J. Stückrath, T. Rose, and J. Unsleber
   
 * started run on 2022/07/30 at 08:32:11.579     

           -------------------------------------------------
          |                Calculation Setup                |
           -------------------------------------------------

          program call               : xtb Cu_Ph_C2_2.xyz --gfn 1 --opt -T 48
          hostname                   : cx3-14-28.cx3.hpc.ic.ac.uk
          coordinate file            : Cu_Ph_C2_2.xyz
          omp threads                :                     1

   ID    Z sym.   atoms
    1   29 Cu     1, 57
    2    6 C      2-6, 8-11, 13-29, 32-37, 58-62, 64-67, 69-85, 88-93, 113,
                  114
    3    7 N      7, 12, 30, 31, 63, 68, 86, 87
    4    1 H      38-56, 94-112
########################################################################
[WARNING] Please study the warnings concerning your input carefully
-1- prog_main_parseArguments: Unknown option '-T' provided
########################################################################

           -------------------------------------------------
          |                 G F N 1 - x T B                 |
           -------------------------------------------------

        Reference                      10.1021/acs.jctc.7b00118
      * Hamiltonian:
        H0-scaling (s, p, d)           1.850000    2.250000    2.000000
        zeta-weighting                 0.000000
      * Dispersion:
        s8                             2.400000
        a1                             0.630000
        a2                             5.000000
        s9                             0.000000
      * Repulsion:
        kExp                           1.500000
        rExp                           1.000000
      * Coulomb:
        alpha                          2.000000
        third order                    atomic
        anisotropic                    false
      * Halogen bond correction:
        rad-scale                      1.300000
        damping                        0.440000


          ...................................................
          :                      SETUP                      :
          :.................................................:
          :  # basis functions                 392          :
          :  # atomic orbitals                 390          :
          :  # shells                          230          :
          :  # electrons                       364          :
          :  # halogen bonds                     0          :
          :  max. iterations                   250          :
          :  Hamiltonian                  GFN1-xTB          :
          :  restarted?                      false          :
          :  GBSA solvation                  false          :
          :  PC potential                    false          :
          :  electronic temp.          300.0000000     K    :
          :  accuracy                    1.0000000          :
          :  -> integral cutoff          0.2500000E+02      :
          :  -> integral neglect         0.1000000E-07      :
          :  -> SCF convergence          0.1000000E-05 Eh   :
          :  -> wf. convergence          0.2000000E-04 e    :
          :  Broyden damping             0.4000000          :
          ...................................................

 iter      E             dE          RMSdq      gap      omega  full diag
   1   -197.2469176 -0.197247E+03  0.106E+01    0.00       0.0  T
   2   -197.4047303 -0.157813E+00  0.634E+00    0.00       1.0  T
   3   -197.3273539  0.773764E-01  0.691E-01    0.01       1.0  T
   4   -197.3212888  0.606508E-02  0.587E-01    0.08       1.0  T
   5   -197.1652478  0.156041E+00  0.951E-01    0.68       1.0  T
   6   -197.3705502 -0.205302E+00  0.463E-01    0.06       1.0  T
   7   -197.4106034 -0.400531E-01  0.233E-01    0.03       1.0  T
   8   -197.4221018 -0.114984E-01  0.616E-02    0.01       1.0  T
   9   -197.4222574 -0.155583E-03  0.542E-02    0.01       1.0  T
  10   -197.4206783  0.157903E-02  0.956E-02    0.01       1.0  T
  11   -197.4230312 -0.235284E-02  0.496E-03    0.00       1.9  T
  12   -197.4230081  0.231001E-04  0.107E-02    0.00       1.0  T
  13   -197.4230278 -0.197398E-04  0.627E-03    0.00       1.5  T
  14   -197.4230378 -0.100288E-04  0.481E-04    0.00      19.5  T
  15   -197.4230378  0.600722E-07  0.679E-04    0.00      13.8  T
  16   -197.4230379 -0.117668E-06  0.102E-04    0.00      91.4  T
  17   -197.4230379  0.469524E-08  0.168E-04    0.00      55.9  T

   *** convergence criteria satisfied after 17 iterations ***

         #    Occupation            Energy/Eh            Energy/eV
      -------------------------------------------------------------
         1        2.0000           -0.7669869             -20.8708
       ...           ...                  ...                  ...
       176        2.0000           -0.3963735             -10.7859
       177        2.0000           -0.3948300             -10.7439
       178        2.0000           -0.3947699             -10.7422
       179        2.0000           -0.3932430             -10.7007
       180        2.0000           -0.3848264             -10.4717
       181        2.0000           -0.3792564             -10.3201
       182        1.0079           -0.3460505              -9.4165 (HOMO)
       183        0.9916           -0.3460194              -9.4157 (LUMO)
       184        0.0005           -0.3382177              -9.2034
       185                         -0.3243650              -8.8264
       186                         -0.3225500              -8.7770
       187                         -0.3116540              -8.4805
       ...                                ...                  ...
       390                          1.3479798              36.6804
      -------------------------------------------------------------
                  HL-Gap            0.0000310 Eh            0.0008 eV
             Fermi-level           -0.3460354 Eh           -9.4161 eV

 SCC (total)                   0 d,  0 h,  0 min,  1.678 sec
 SCC setup                      ...        0 min,  0.006 sec (  0.333%)
 Dispersion                     ...        0 min,  0.005 sec (  0.303%)
 classical contributions        ...        0 min,  0.002 sec (  0.110%)
 integral evaluation            ...        0 min,  0.189 sec ( 11.279%)
 iterations                     ...        0 min,  0.955 sec ( 56.918%)
 molecular gradient             ...        0 min,  0.507 sec ( 30.211%)
 printout                       ...        0 min,  0.014 sec (  0.842%)

         :::::::::::::::::::::::::::::::::::::::::::::::::::::
         ::                     SUMMARY                     ::
         :::::::::::::::::::::::::::::::::::::::::::::::::::::
         :: total energy            -194.363715299866 Eh    ::
         :: gradient norm              0.385921770688 Eh/a0 ::
         :: HOMO-LUMO gap              0.000844813558 eV    ::
         ::.................................................::
         :: SCC energy              -197.423037876425 Eh    ::
         :: -> electrostatic           0.117807634485 Eh    ::
         :: repulsion energy           3.163042563402 Eh    ::
         :: dispersion energy         -0.103719986844 Eh    ::
         :: halogen bond corr.         0.000000000000 Eh    ::
         :: add. restraining           0.000000000000 Eh    ::
         :: total charge              -0.000000000089 e     ::
         :::::::::::::::::::::::::::::::::::::::::::::::::::::

      ----------------------------------------------------------- 
     |                   =====================                   |
     |                        A N C O P T                        |
     |                   =====================                   |
     |               Approximate Normal Coordinate               |
     |                Rational Function Optimizer                |
      ----------------------------------------------------------- 

          ...................................................
          :                      SETUP                      :
          :.................................................:
          :   optimization level            normal          :
          :   max. optcycles                   342          :
          :   ANC micro-cycles                  20          :
          :   degrees of freedom               336          :
          :.................................................:
          :   RF solver                   davidson          :
          :   write xtbopt.log                true          :
          :   linear?                        false          :
          :   energy convergence         0.5000000E-05 Eh   :
          :   grad. convergence          0.1000000E-02 Eh/α :
          :   maximium RF displ.         1.0000000          :
          :   Hlow (freq-cutoff)         0.1000000E-01      :
          :   Hmax (freq-cutoff)         5.0000000          :
          :   S6 in model hess.         20.0000000          :
          ...................................................

generating ANC from model Hessian ...
Using Lindh-Hessian (1995)
 Shifting diagonal of input Hessian by    1.0001970064028837E-002
 Lowest  eigenvalues of input Hessian
    0.010000    0.000000    0.000000    0.000000    0.000000    0.000000
    0.000000    0.010037    0.010043    0.010140    0.010184    0.010466
    0.010497    0.010537    0.010575    0.010649    0.010694    0.010770
 Highest eigenvalues
    2.096924    2.101886    2.101985    2.128920    2.129667    2.673775


........................................................................
.............................. CYCLE    1 ..............................
........................................................................
   1   -197.4230379 -0.197423E+03  0.104E-05    0.00       0.0  T
   2   -197.4230379  0.312855E-07  0.343E-04    0.00      27.3  T
   3   -197.4230379 -0.313128E-07  0.113E-06    0.00    8284.4  T
   4   -197.4230379  0.534328E-11  0.534E-06    0.00    1754.6  T
     SCC iter.                  ...        0 min,  0.229 sec
     gradient                   ...        0 min,  0.506 sec
 * total energy  :  -194.3637153 Eh     change       -0.7258649E-08 Eh
   gradient norm :     0.3859217 Eh/α   predicted     0.0000000E+00 (-100.00%)
   displ. norm   :     0.3624165 α      lambda       -0.9721606E-01
   maximum displ.:     0.1028411 α      in ANC's #102, #330, #334, ...

........................................................................
.............................. CYCLE    2 ..............................
........................................................................
   1   -197.4554893 -0.197455E+03  0.142E-01    0.00       0.0  T
   2   -197.4579602 -0.247088E-02  0.632E-02    0.01       1.0  T
   3   -197.4588222 -0.861993E-03  0.365E-02    0.01       1.0  T
   4   -197.4239750  0.348472E-01  0.363E-01    0.05       1.0  T
   5   -197.4587479 -0.347729E-01  0.387E-02    0.01       1.0  T
   6   -197.4590948 -0.346895E-03  0.105E-02    0.00       1.0  T
   7   -197.4591300 -0.351469E-04  0.198E-03    0.00       4.7  T
   8   -197.4591306 -0.596400E-06  0.117E-03    0.00       8.0  T
   9   -197.4591311 -0.525331E-06  0.360E-04    0.00      26.0  T
  10   -197.4591311 -0.283294E-07  0.127E-04    0.00      73.7  T
  11   -197.4591311 -0.311107E-08  0.467E-05    0.00     200.6  T
     SCC iter.                  ...        0 min,  0.616 sec
     gradient                   ...        0 min,  0.505 sec
 * total energy  :  -194.4390338 Eh     change       -0.7531846E-01 Eh
   gradient norm :     0.2202457 Eh/α   predicted    -0.5500446E-01 ( -26.97%)
   displ. norm   :     0.4089904 α      lambda       -0.6680433E-01
   maximum displ.:     0.1221049 α      in ANC's #330, #334, #102, ...

........................................................................
.............................. CYCLE    3 ..............................
........................................................................
   1   -197.5047554 -0.197505E+03  0.180E-01    0.01       0.0  T
   2   -197.5077444 -0.298903E-02  0.808E-02    0.01       1.0  T
   3   -197.5035363  0.420814E-02  0.151E-01    0.02       1.0  T
   4   -197.4308424  0.726939E-01  0.541E-01    0.09       1.0  T
   5   -197.5097405 -0.788982E-01  0.232E-02    0.01       1.0  T
   6   -197.5098111 -0.705594E-04  0.142E-02    0.01       1.0  T
   7   -197.5098613 -0.501569E-04  0.391E-03    0.01       2.4  T
   8   -197.5098666 -0.532444E-05  0.180E-03    0.01       5.2  T
   9   -197.5098677 -0.115619E-05  0.880E-04    0.01      10.6  T
  10   -197.5098679 -0.154359E-06  0.425E-04    0.01      22.0  T
  11   -197.5098679  0.429975E-08  0.435E-04    0.01      21.5  T
  12   -197.5098679 -0.500728E-07  0.425E-05    0.01     220.3  T
  13   -197.5098679 -0.300332E-09  0.259E-05    0.01     361.0  T
     SCC iter.                  ...        0 min,  0.744 sec
     gradient                   ...        0 min,  0.500 sec
 * total energy  :  -194.4793042 Eh     change       -0.4027045E-01 Eh
   gradient norm :     0.0554294 Eh/α   predicted    -0.3899319E-01 (  -3.17%)
   displ. norm   :     0.4336533 α      lambda       -0.1043872E-01
   maximum displ.:     0.2165933 α      in ANC's #30, #27, #34, ...

........................................................................
.............................. CYCLE    4 ..............................
........................................................................
   1   -197.5216902 -0.197522E+03  0.497E-02    0.01       0.0  T
   2   -197.5218421 -0.151924E-03  0.205E-02    0.01       1.0  T
   3   -197.5217596  0.825575E-04  0.282E-02    0.01       1.0  T
   4   -197.5084964  0.132631E-01  0.226E-01    0.03       1.0  T
   5   -197.5220082 -0.135117E-01  0.641E-03    0.01       1.5  T
   6   -197.5220144 -0.616899E-05  0.211E-03    0.01       4.4  T
   7   -197.5220147 -0.367129E-06  0.107E-03    0.01       8.7  T
   8   -197.5220152 -0.466443E-06  0.414E-04    0.01      22.6  T
   9   -197.5220153 -0.643206E-07  0.113E-04    0.01      82.8  T
  10   -197.5220153 -0.867061E-09  0.475E-05    0.01     197.3  T
     SCC iter.                  ...        0 min,  0.581 sec
     gradient                   ...        0 min,  0.492 sec
 * total energy  :  -194.4870758 Eh     change       -0.7771582E-02 Eh
   gradient norm :     0.0285438 Eh/α   predicted    -0.6200933E-02 ( -20.21%)
   displ. norm   :     0.5507772 α      lambda       -0.6720831E-02
   maximum displ.:     0.2882978 α      in ANC's #30, #27, #34, ...

........................................................................
.............................. CYCLE    5 ..............................
........................................................................
   1   -197.5272348 -0.197527E+03  0.297E-02    0.01       0.0  T
   2   -197.5272661 -0.312720E-04  0.138E-02    0.01       1.0  T
   3   -197.5227064  0.455969E-02  0.133E-01    0.02       1.0  T
   4   -197.5269645 -0.425809E-02  0.363E-02    0.01       1.0  T
   5   -197.5273187 -0.354228E-03  0.478E-03    0.01       2.0  T
   6   -197.5273220 -0.322470E-05  0.969E-04    0.01       9.7  T
   7   -197.5273220 -0.474787E-07  0.579E-04    0.01      16.2  T
   8   -197.5273221 -0.137347E-06  0.216E-04    0.01      43.3  T
   9   -197.5273222 -0.193584E-07  0.539E-05    0.01     173.9  T
  10   -197.5273222 -0.339099E-09  0.252E-05    0.01     371.6  T
     SCC iter.                  ...        0 min,  0.530 sec
     gradient                   ...        0 min,  0.484 sec
 * total energy  :  -194.4919464 Eh     change       -0.4870634E-02 Eh
   gradient norm :     0.0191771 Eh/α   predicted    -0.4379895E-02 ( -10.08%)
   displ. norm   :     0.5060327 α      lambda       -0.3244353E-02
   maximum displ.:     0.2623048 α      in ANC's #30, #27, #20, ...

........................................................................
.............................. CYCLE    6 ..............................
........................................................................
   1   -197.5354215 -0.197535E+03  0.152E-02    0.01       0.0  T
   2   -197.5354287 -0.719012E-05  0.767E-03    0.01       1.2  T
   3   -197.5340547  0.137402E-02  0.731E-02    0.01       1.0  T
   4   -197.5353423 -0.128758E-02  0.191E-02    0.01       1.0  T
   5   -197.5354360 -0.937491E-04  0.297E-03    0.01       3.2  T
   6   -197.5354382 -0.220631E-05  0.546E-04    0.01      17.1  T
   7   -197.5354382 -0.137091E-07  0.284E-04    0.01      33.0  T
   8   -197.5354383 -0.370019E-07  0.116E-04    0.01      80.6  T
   9   -197.5354383 -0.605897E-08  0.186E-05    0.01     503.4  T
     SCC iter.                  ...        0 min,  0.489 sec
     gradient                   ...        0 min,  0.529 sec
 * total energy  :  -194.4943192 Eh     change       -0.2372791E-02 Eh
   gradient norm :     0.0181894 Eh/α   predicted    -0.2037567E-02 ( -14.13%)
   displ. norm   :     0.4446286 α      lambda       -0.1789024E-02
   maximum displ.:     0.2238165 α      in ANC's #27, #30, #20, ...

........................................................................
.............................. CYCLE    7 ..............................
........................................................................
   1   -197.5454157 -0.197545E+03  0.965E-03    0.01       0.0  T
   2   -197.5454197 -0.400229E-05  0.434E-03    0.01       2.2  T
   3   -197.5453449  0.748016E-04  0.173E-02    0.01       1.0  T
   4   -197.5452598  0.850614E-04  0.251E-02    0.01       1.0  T
   5   -197.5454204 -0.160606E-03  0.184E-03    0.01       5.1  T
   6   -197.5454216 -0.117101E-05  0.602E-04    0.01      15.6  T
   7   -197.5454217 -0.118696E-06  0.144E-04    0.01      65.1  T
   8   -197.5454217 -0.500279E-08  0.468E-05    0.01     200.3  T
     SCC iter.                  ...        0 min,  0.451 sec
     gradient                   ...        0 min,  0.464 sec
 * total energy  :  -194.4956149 Eh     change       -0.1295711E-02 Eh
   gradient norm :     0.0130632 Eh/α   predicted    -0.1071353E-02 ( -17.32%)
   displ. norm   :     0.3742443 α      lambda       -0.1004411E-02
   maximum displ.:     0.1910247 α      in ANC's #27, #20, #12, ...

........................................................................
.............................. CYCLE    8 ..............................
........................................................................
   1   -197.5544714 -0.197554E+03  0.795E-03    0.01       0.0  T
   2   -197.5544739 -0.252906E-05  0.368E-03    0.01       2.5  T
   3   -197.5538750  0.598909E-03  0.483E-02    0.01       1.0  T
   4   -197.5544660 -0.591066E-03  0.634E-03    0.01       1.5  T
   5   -197.5544764 -0.103341E-04  0.126E-03    0.01       7.4  T
   6   -197.5544766 -0.235575E-06  0.486E-04    0.01      19.3  T
   7   -197.5544767 -0.633499E-07  0.171E-04    0.01      54.7  T
   8   -197.5544767 -0.131334E-07  0.541E-05    0.01     173.0  T
     SCC iter.                  ...        0 min,  0.424 sec
     gradient                   ...        0 min,  0.458 sec
 * total energy  :  -194.4963394 Eh     change       -0.7244166E-03 Eh
   gradient norm :     0.0081353 Eh/α   predicted    -0.5725457E-03 ( -20.96%)
   displ. norm   :     0.3342877 α      lambda       -0.6154149E-03
   maximum displ.:     0.1538271 α      in ANC's #27, #12, #20, ...

........................................................................
.............................. CYCLE    9 ..............................
........................................................................
   1   -197.5599288 -0.197560E+03  0.520E-03    0.01       0.0  T
   2   -197.5599300 -0.125415E-05  0.267E-03    0.01       3.5  T
   3   -197.5599306 -0.556679E-06  0.192E-03    0.01       4.9  T
   4   -197.5599080  0.225916E-04  0.962E-03    0.01       1.0  T
   5   -197.5599251 -0.171545E-04  0.508E-03    0.01       1.8  T
   6   -197.5599317 -0.654237E-05  0.208E-04    0.01      44.9  T
   7   -197.5599317 -0.561917E-08  0.235E-05    0.01     398.3  T
   8   -197.5599317  0.260627E-10  0.207E-05    0.01     453.0  T
     SCC iter.                  ...        0 min,  0.429 sec
     gradient                   ...        0 min,  0.498 sec
 * total energy  :  -194.4967928 Eh     change       -0.4534243E-03 Eh
   gradient norm :     0.0075753 Eh/α   predicted    -0.3420979E-03 ( -24.55%)
   displ. norm   :     0.3302469 α      lambda       -0.4417325E-03
   maximum displ.:     0.1707038 α      in ANC's #12, #27, #18, ...

........................................................................
.............................. CYCLE   10 ..............................
........................................................................
   1   -197.5610375 -0.197561E+03  0.273E-03    0.01       0.0  T
   2   -197.5610379 -0.385329E-06  0.199E-03    0.01       4.7  T
   3   -197.5610063  0.316111E-04  0.113E-02    0.01       1.0  T
   4   -197.5610352 -0.288640E-04  0.386E-03    0.01       2.4  T
   5   -197.5610388 -0.366698E-05  0.624E-04    0.01      15.0  T
   6   -197.5610389 -0.833807E-07  0.240E-04    0.01      39.0  T
   7   -197.5610389 -0.157660E-07  0.678E-05    0.01     138.1  T
   8   -197.5610389 -0.174927E-08  0.202E-05    0.01     463.8  T
     SCC iter.                  ...        0 min,  0.502 sec
     gradient                   ...        0 min,  0.439 sec
 * total energy  :  -194.4971222 Eh     change       -0.3294017E-03 Eh
   gradient norm :     0.0075170 Eh/α   predicted    -0.2449591E-03 ( -25.64%)
   displ. norm   :     0.3119041 α      lambda       -0.3153308E-03
   maximum displ.:     0.1806089 α      in ANC's #12, #18, #15, ...

........................................................................
.............................. CYCLE   11 ..............................
........................................................................
   1   -197.5590957 -0.197559E+03  0.310E-03    0.01       0.0  T
   2   -197.5590963 -0.620985E-06  0.174E-03    0.01       5.4  T
   3   -197.5590943  0.201641E-05  0.332E-03    0.01       2.8  T
   4   -197.5590487  0.455668E-04  0.137E-02    0.01       1.0  T
   5   -197.5590971 -0.483746E-04  0.614E-04    0.01      15.3  T
   6   -197.5590972 -0.837171E-07  0.225E-04    0.01      41.7  T
   7   -197.5590972 -0.155223E-07  0.489E-05    0.01     191.7  T
   8   -197.5590972 -0.436160E-09  0.213E-05    0.01     439.9  T
     SCC iter.                  ...        0 min,  0.529 sec
     gradient                   ...        0 min,  0.481 sec
 * total energy  :  -194.4973566 Eh     change       -0.2344588E-03 Eh
   gradient norm :     0.0056919 Eh/α   predicted    -0.1730078E-03 ( -26.21%)
   displ. norm   :     0.2657945 α      lambda       -0.2090046E-03
   maximum displ.:     0.1700173 α      in ANC's #12, #18, #15, ...

........................................................................
.............................. CYCLE   12 ..............................
........................................................................
   1   -197.5566428 -0.197557E+03  0.325E-03    0.01       0.0  T
   2   -197.5566432 -0.463931E-06  0.174E-03    0.01       5.4  T
   3   -197.5566044  0.388309E-04  0.124E-02    0.01       1.0  T
   4   -197.5566373 -0.328991E-04  0.510E-03    0.01       1.8  T
   5   -197.5566440 -0.669257E-05  0.577E-04    0.01      16.2  T
   6   -197.5566440 -0.554121E-07  0.191E-04    0.01      49.1  T
   7   -197.5566440 -0.914423E-08  0.534E-05    0.01     175.3  T
     SCC iter.                  ...        0 min,  0.371 sec
     gradient                   ...        0 min,  0.484 sec
 * total energy  :  -194.4975159 Eh     change       -0.1592107E-03 Eh
   gradient norm :     0.0039425 Eh/α   predicted    -0.1118893E-03 ( -29.72%)
   displ. norm   :     0.2315105 α      lambda       -0.1582702E-03
   maximum displ.:     0.1578608 α      in ANC's #12, #15, #18, ...

........................................................................
.............................. CYCLE   13 ..............................
........................................................................
   1   -197.5550686 -0.197555E+03  0.242E-03    0.01       0.0  T
   2   -197.5550686  0.547318E-07  0.162E-03    0.01       5.8  T
   3   -197.5549768  0.917534E-04  0.190E-02    0.01       1.0  T
   4   -197.5550681 -0.913036E-04  0.214E-03    0.01       4.4  T
   5   -197.5550694 -0.122233E-05  0.393E-04    0.01      23.8  T
   6   -197.5550694 -0.201764E-07  0.133E-04    0.01      70.3  T
   7   -197.5550694 -0.260522E-08  0.580E-05    0.01     161.4  T
     SCC iter.                  ...        0 min,  0.343 sec
     gradient                   ...        0 min,  0.427 sec
 * total energy  :  -194.4976421 Eh     change       -0.1262147E-03 Eh
   gradient norm :     0.0037915 Eh/α   predicted    -0.8337747E-04 ( -33.94%)
   displ. norm   :     0.2321397 α      lambda       -0.1468114E-03
   maximum displ.:     0.1604737 α      in ANC's #12, #15, #6, ...

........................................................................
.............................. CYCLE   14 ..............................
........................................................................
   1   -197.5545695 -0.197555E+03  0.158E-03    0.01       0.0  T
   2   -197.5545693  0.202563E-06  0.131E-03    0.01       7.1  T
   3   -197.5545684  0.818872E-06  0.252E-03    0.01       3.7  T
   4   -197.5545628  0.562067E-05  0.532E-03    0.01       1.8  T
   5   -197.5545701 -0.725321E-05  0.238E-04    0.01      39.4  T
   6   -197.5545701 -0.169669E-08  0.137E-04    0.01      68.3  T
   7   -197.5545701 -0.427431E-08  0.405E-05    0.01     231.5  T
     SCC iter.                  ...        0 min,  0.389 sec
     gradient                   ...        0 min,  0.504 sec
 * total energy  :  -194.4977604 Eh     change       -0.1183575E-03 Eh
   gradient norm :     0.0041335 Eh/α   predicted    -0.7736311E-04 ( -34.64%)
   displ. norm   :     0.2435270 α      lambda       -0.1341963E-03
   maximum displ.:     0.1668358 α      in ANC's #12, #15, #6, ...

........................................................................
.............................. CYCLE   15 ..............................
........................................................................
   1   -197.5550080 -0.197555E+03  0.153E-03    0.01       0.0  T
   2   -197.5550078  0.214711E-06  0.143E-03    0.01       6.5  T
   3   -197.5549955  0.123309E-04  0.720E-03    0.01       1.3  T
   4   -197.5550078 -0.122979E-04  0.196E-03    0.01       4.8  T
   5   -197.5550088 -0.990392E-06  0.242E-04    0.01      38.7  T
   6   -197.5550088 -0.907383E-08  0.975E-05    0.01      96.1  T
   7   -197.5550088 -0.129151E-08  0.224E-05    0.01     419.0  T
     SCC iter.                  ...        0 min,  0.375 sec
     gradient                   ...        0 min,  0.510 sec
 * total energy  :  -194.4978681 Eh     change       -0.1076474E-03 Eh
   gradient norm :     0.0039673 Eh/α   predicted    -0.7108003E-04 ( -33.97%)
   displ. norm   :     0.2438466 α      lambda       -0.1140353E-03
   maximum displ.:     0.1659789 α      in ANC's #12, #15, #6, ...

........................................................................
.............................. CYCLE   16 ..............................
........................................................................
   1   -197.5559601 -0.197556E+03  0.188E-03    0.01       0.0  T
   2   -197.5559601 -0.342150E-07  0.133E-03    0.01       7.0  T
   3   -197.5559362  0.239612E-04  0.979E-03    0.01       1.0  T
   4   -197.5559588 -0.226133E-04  0.275E-03    0.01       3.4  T
   5   -197.5559608 -0.197017E-05  0.355E-04    0.01      26.4  T
   6   -197.5559608 -0.286877E-07  0.127E-04    0.01      73.5  T
   7   -197.5559608 -0.251080E-08  0.353E-05    0.01     265.3  T
     SCC iter.                  ...        0 min,  0.399 sec
     gradient                   ...        0 min,  0.511 sec
 * total energy  :  -194.4979602 Eh     change       -0.9209254E-04 Eh
   gradient norm :     0.0034708 Eh/α   predicted    -0.6041247E-04 ( -34.40%)
   displ. norm   :     0.2406229 α      lambda       -0.9861436E-04
   maximum displ.:     0.1636487 α      in ANC's #12, #15, #6, ...

........................................................................
.............................. CYCLE   17 ..............................
........................................................................
   1   -197.5569522 -0.197557E+03  0.180E-03    0.00       0.0  T
   2   -197.5569524 -0.195673E-06  0.929E-04    0.00      10.1  T
   3   -197.5569518  0.597619E-06  0.174E-03    0.00       5.4  T
   4   -197.5569314  0.203348E-04  0.908E-03    0.01       1.0  T
   5   -197.5569526 -0.211177E-04  0.353E-04    0.00      26.6  T
   6   -197.5569526 -0.253214E-07  0.103E-04    0.00      90.6  T
   7   -197.5569526 -0.241138E-08  0.373E-05    0.00     251.0  T
     SCC iter.                  ...        0 min,  0.404 sec
     gradient                   ...        0 min,  0.527 sec
 * total energy  :  -194.4980407 Eh     change       -0.8054809E-04 Eh
   gradient norm :     0.0030459 Eh/α   predicted    -0.5216295E-04 ( -35.24%)
   displ. norm   :     0.2416035 α      lambda       -0.8872809E-04
   maximum displ.:     0.1643380 α      in ANC's #12, #15, #8, ...

........................................................................
.............................. CYCLE   18 ..............................
........................................................................
   1   -197.5575437 -0.197558E+03  0.143E-03    0.00       0.0  T
   2   -197.5575433  0.309362E-06  0.144E-03    0.00       6.5  T
   3   -197.5574412  0.102180E-03  0.200E-02    0.01       1.0  T
   4   -197.5575438 -0.102632E-03  0.629E-04    0.00      14.9  T
   5   -197.5575439 -0.114665E-06  0.205E-04    0.00      45.6  T
   6   -197.5575439 -0.759673E-08  0.109E-04    0.00      86.1  T
   7   -197.5575439 -0.152767E-08  0.400E-05    0.00     233.9  T
     SCC iter.                  ...        0 min,  0.408 sec
     gradient                   ...        0 min,  0.528 sec
 * total energy  :  -194.4981135 Eh     change       -0.7277571E-04 Eh
   gradient norm :     0.0027848 Eh/α   predicted    -0.4695540E-04 ( -35.48%)
   displ. norm   :     0.2507120 α      lambda       -0.8278453E-04
   maximum displ.:     0.1691110 α      in ANC's #12, #8, #15, ...

........................................................................
.............................. CYCLE   19 ..............................
........................................................................
   1   -197.5575388 -0.197558E+03  0.127E-03    0.00       0.0  T
   2   -197.5575387  0.114356E-06  0.977E-04    0.00       9.6  T
   3   -197.5575344  0.428500E-05  0.431E-03    0.00       2.2  T
   4   -197.5575380 -0.355885E-05  0.216E-03    0.00       4.3  T
   5   -197.5575392 -0.121265E-05  0.176E-04    0.00      53.3  T
   6   -197.5575392 -0.899831E-09  0.667E-05    0.00     140.3  T
   7   -197.5575392 -0.409045E-09  0.113E-05    0.00     830.3  T
     SCC iter.                  ...        0 min,  0.410 sec
     gradient                   ...        0 min,  0.530 sec
 * total energy  :  -194.4981821 Eh     change       -0.6862795E-04 Eh
   gradient norm :     0.0027236 Eh/α   predicted    -0.4399698E-04 ( -35.89%)
   displ. norm   :     0.2709882 α      lambda       -0.8287953E-04
   maximum displ.:     0.1803695 α      in ANC's #12, #8, #15, ...

........................................................................
.............................. CYCLE   20 ..............................
........................................................................
   1   -197.5569008 -0.197557E+03  0.144E-03    0.00       0.0  T
   2   -197.5569004  0.331532E-06  0.143E-03    0.00       6.6  T
   3   -197.5568460  0.543962E-04  0.147E-02    0.00       1.0  T
   4   -197.5569009 -0.549058E-04  0.108E-03    0.00       8.7  T
   5   -197.5569013 -0.318370E-06  0.225E-04    0.00      41.7  T
   6   -197.5569013 -0.316797E-08  0.917E-05    0.00     102.2  T
   7   -197.5569013 -0.120920E-08  0.364E-05    0.00     257.1  T
     SCC iter.                  ...        0 min,  0.405 sec
     gradient                   ...        0 min,  0.518 sec
 * total energy  :  -194.4982524 Eh     change       -0.7029773E-04 Eh
   gradient norm :     0.0029494 Eh/α   predicted    -0.4448746E-04 ( -36.72%)
   displ. norm   :     0.3193266 α      lambda       -0.9595257E-04
   maximum displ.:     0.2096355 α      in ANC's #12, #8, #15, ...
 * RMSD in coord.:     0.4291876 α      energy gain  -0.1345371E+00 Eh

generating ANC from model Hessian ...
Using Lindh-Hessian (1995)
 Shifting diagonal of input Hessian by    1.0095460050034607E-002
 Lowest  eigenvalues of input Hessian
    0.010000    0.010067    0.010069    0.000000    0.000000    0.000000
    0.000000    0.000000    0.000000    0.010198    0.010276    0.010362
    0.010588    0.010635    0.010679    0.010710    0.010793    0.010828
 Highest eigenvalues
    2.089975    2.091914    2.093146    2.133691    2.133705    2.620279


........................................................................
.............................. CYCLE   21 ..............................
........................................................................
   1   -197.5558178 -0.197556E+03  0.165E-03    0.00       0.0  T
   2   -197.5558175  0.313165E-06  0.155E-03    0.00       6.0  T
   3   -197.5557399  0.775292E-04  0.175E-02    0.00       1.0  T
   4   -197.5558178 -0.778764E-04  0.133E-03    0.00       7.0  T
   5   -197.5558183 -0.482776E-06  0.305E-04    0.00      30.7  T
   6   -197.5558183 -0.103131E-07  0.123E-04    0.00      76.4  T
   7   -197.5558183 -0.327447E-08  0.459E-05    0.00     204.1  T
     SCC iter.                  ...        0 min,  0.397 sec
     gradient                   ...        0 min,  0.519 sec
 * total energy  :  -194.4983348 Eh     change       -0.8239014E-04 Eh
   gradient norm :     0.0034710 Eh/α   predicted     0.0000000E+00 (-100.00%)
   displ. norm   :     0.0439989 α      lambda       -0.4183422E-04
   maximum displ.:     0.0229830 α      in ANC's #17, #11, #23, ...

........................................................................
.............................. CYCLE   22 ..............................
........................................................................
   1   -197.5568286 -0.197557E+03  0.891E-04    0.00       0.0  T
   2   -197.5568285  0.505194E-07  0.708E-04    0.00      13.2  T
   3   -197.5568286 -0.542243E-07  0.797E-04    0.00      11.8  T
   4   -197.5568209  0.769428E-05  0.554E-03    0.00       1.7  T
   5   -197.5568288 -0.785266E-05  0.187E-04    0.00      50.0  T
   6   -197.5568288 -0.518162E-08  0.512E-05    0.00     183.0  T
   7   -197.5568288 -0.368175E-09  0.183E-05    0.00     511.8  T
     SCC iter.                  ...        0 min,  0.394 sec
     gradient                   ...        0 min,  0.485 sec
 * total energy  :  -194.4983720 Eh     change       -0.3716519E-04 Eh
   gradient norm :     0.0021461 Eh/α   predicted    -0.2184980E-04 ( -41.21%)
   displ. norm   :     0.1749347 α      lambda       -0.1180909E-03
   maximum displ.:     0.0981244 α      in ANC's #17, #11, #23, ...

........................................................................
.............................. CYCLE   23 ..............................
........................................................................
   1   -197.5582656 -0.197558E+03  0.237E-03    0.00       0.0  T
   2   -197.5582647  0.905025E-06  0.225E-03    0.00       4.2  T
   3   -197.5582065  0.581841E-04  0.154E-02    0.00       1.0  T
   4   -197.5582661 -0.596207E-04  0.200E-03    0.00       4.7  T
   5   -197.5582672 -0.104018E-05  0.344E-04    0.00      27.2  T
   6   -197.5582672 -0.252575E-08  0.135E-04    0.00      69.6  T
   7   -197.5582672 -0.199725E-08  0.464E-05    0.00     201.6  T
     SCC iter.                  ...        0 min,  0.403 sec
     gradient                   ...        0 min,  0.499 sec
 * total energy  :  -194.4984461 Eh     change       -0.7416213E-04 Eh
   gradient norm :     0.0023775 Eh/α   predicted    -0.6085427E-04 ( -17.94%)
   displ. norm   :     0.1125385 α      lambda       -0.3808311E-04
   maximum displ.:     0.0667637 α      in ANC's #17, #11, #15, ...

........................................................................
.............................. CYCLE   24 ..............................
........................................................................
   1   -197.5578324 -0.197558E+03  0.768E-04    0.00       0.0  T
   2   -197.5578323  0.911458E-07  0.661E-04    0.00      14.2  T
   3   -197.5578298  0.245366E-05  0.324E-03    0.00       2.9  T
   4   -197.5578322 -0.240786E-05  0.103E-03    0.00       9.1  T
   5   -197.5578325 -0.276495E-06  0.103E-04    0.00      90.6  T
   6   -197.5578325  0.281375E-11  0.246E-05    0.00     380.3  T
     SCC iter.                  ...        0 min,  0.348 sec
     gradient                   ...        0 min,  0.492 sec
 * total energy  :  -194.4984773 Eh     change       -0.3116505E-04 Eh
   gradient norm :     0.0028756 Eh/α   predicted    -0.1928557E-04 ( -38.12%)
   displ. norm   :     0.1495381 α      lambda       -0.5192991E-04
   maximum displ.:     0.0865765 α      in ANC's #17, #11, #15, ...

........................................................................
.............................. CYCLE   25 ..............................
........................................................................
   1   -197.5569546 -0.197557E+03  0.932E-04    0.00       0.0  T
   2   -197.5569546  0.195957E-07  0.699E-04    0.00      13.4  T
   3   -197.5569194  0.352168E-04  0.117E-02    0.00       1.0  T
   4   -197.5569547 -0.352687E-04  0.436E-04    0.00      21.5  T
   5   -197.5569547 -0.242724E-07  0.186E-04    0.00      50.4  T
   6   -197.5569547 -0.128178E-07  0.656E-05    0.00     142.8  T
     SCC iter.                  ...        0 min,  0.341 sec
     gradient                   ...        0 min,  0.485 sec
 * total energy  :  -194.4985220 Eh     change       -0.4466905E-04 Eh
   gradient norm :     0.0025458 Eh/α   predicted    -0.2654599E-04 ( -40.57%)
   displ. norm   :     0.2399107 α      lambda       -0.7830207E-04
   maximum displ.:     0.1368434 α      in ANC's #17, #11, #15, ...

........................................................................
.............................. CYCLE   26 ..............................
........................................................................
   1   -197.5558235 -0.197556E+03  0.145E-03    0.00       0.0  T
   2   -197.5558231  0.448558E-06  0.172E-03    0.00       5.4  T
   3   -197.5557178  0.105323E-03  0.204E-02    0.00       1.0  T
   4   -197.5558237 -0.105946E-03  0.642E-04    0.00      14.6  T
   5   -197.5558238 -0.716847E-07  0.334E-04    0.00      28.0  T
   6   -197.5558238 -0.364729E-07  0.953E-05    0.00      98.3  T
   7   -197.5558238 -0.201550E-08  0.270E-05    0.00     346.5  T
     SCC iter.                  ...        0 min,  0.379 sec
     gradient                   ...        0 min,  0.477 sec
 * total energy  :  -194.4985850 Eh     change       -0.6306356E-04 Eh
   gradient norm :     0.0024601 Eh/α   predicted    -0.4140461E-04 ( -34.34%)
   displ. norm   :     0.2850072 α      lambda       -0.7714075E-04
   maximum displ.:     0.1609109 α      in ANC's #17, #11, #15, ...

........................................................................
.............................. CYCLE   27 ..............................
........................................................................
   1   -197.5550672 -0.197555E+03  0.137E-03    0.00       0.0  T
   2   -197.5550670  0.144773E-06  0.124E-03    0.00       7.6  T
   3   -197.5550164  0.506356E-04  0.141E-02    0.00       1.0  T
   4   -197.5550673 -0.508654E-04  0.995E-04    0.00       9.4  T
   5   -197.5550675 -0.258070E-06  0.278E-04    0.00      33.7  T
   6   -197.5550675 -0.167158E-07  0.809E-05    0.00     115.8  T
   7   -197.5550675 -0.671008E-09  0.237E-05    0.00     395.6  T
     SCC iter.                  ...        0 min,  0.391 sec
     gradient                   ...        0 min,  0.479 sec
 * total energy  :  -194.4986444 Eh     change       -0.5932867E-04 Eh
   gradient norm :     0.0032558 Eh/α   predicted    -0.4170355E-04 ( -29.71%)
   displ. norm   :     0.2830860 α      lambda       -0.7113487E-04
   maximum displ.:     0.1568492 α      in ANC's #17, #11, #15, ...

........................................................................
.............................. CYCLE   28 ..............................
........................................................................
   1   -197.5552182 -0.197555E+03  0.110E-03    0.00       0.0  T
   2   -197.5552180  0.220251E-06  0.112E-03    0.00       8.3  T
   3   -197.5551859  0.320717E-04  0.113E-02    0.00       1.0  T
   4   -197.5552183 -0.323623E-04  0.835E-04    0.00      11.2  T
   5   -197.5552184 -0.186710E-06  0.184E-04    0.00      50.8  T
   6   -197.5552184 -0.469549E-08  0.617E-05    0.00     151.8  T
     SCC iter.                  ...        0 min,  0.325 sec
     gradient                   ...        0 min,  0.480 sec
 * total energy  :  -194.4986996 Eh     change       -0.5519638E-04 Eh
   gradient norm :     0.0036150 Eh/α   predicted    -0.3841817E-04 ( -30.40%)
   displ. norm   :     0.2769732 α      lambda       -0.7773305E-04
   maximum displ.:     0.1552502 α      in ANC's #11, #17, #15, ...

........................................................................
.............................. CYCLE   29 ..............................
........................................................................
   1   -197.5565878 -0.197557E+03  0.128E-03    0.00       0.0  T
   2   -197.5565868  0.103469E-05  0.212E-03    0.00       4.4  T
   3   -197.5565237  0.630648E-04  0.159E-02    0.00       1.0  T
   4   -197.5565878 -0.641034E-04  0.689E-04    0.00      13.6  T
   5   -197.5565880 -0.155609E-06  0.204E-04    0.00      45.9  T
   6   -197.5565880 -0.701596E-08  0.457E-05    0.00     205.1  T
   7   -197.5565880 -0.243176E-09  0.249E-05    0.00     375.5  T
     SCC iter.                  ...        0 min,  0.375 sec
     gradient                   ...        0 min,  0.474 sec
 * total energy  :  -194.4987592 Eh     change       -0.5962760E-04 Eh
   gradient norm :     0.0041136 Eh/α   predicted    -0.4185039E-04 ( -29.81%)
   displ. norm   :     0.5341617 α      lambda       -0.1918219E-03
   maximum displ.:     0.3015034 α      in ANC's #11, #17, #15, ...

........................................................................
.............................. CYCLE   30 ..............................
........................................................................
   1   -197.5590749 -0.197559E+03  0.299E-03    0.00       0.0  T
   2   -197.5590712  0.379281E-05  0.422E-03    0.00       2.2  T
   3   -197.5586629  0.408204E-03  0.402E-02    0.01       1.0  T
   4   -197.5590751 -0.412107E-03  0.139E-03    0.00       6.8  T
   5   -197.5590756 -0.594311E-06  0.570E-04    0.00      16.4  T
   6   -197.5590757 -0.819263E-07  0.155E-04    0.00      60.5  T
   7   -197.5590757 -0.516513E-08  0.477E-05    0.00     196.2  T
     SCC iter.                  ...        0 min,  0.361 sec
     gradient                   ...        0 min,  0.444 sec
 * total energy  :  -194.4987707 Eh     change       -0.1151797E-04 Eh
   gradient norm :     0.0047920 Eh/α   predicted    -0.1232772E-03 ( 970.30%)
   displ. norm   :     0.0551458 α      lambda       -0.6417287E-04
   maximum displ.:     0.0324330 α      in ANC's #17, #11, #15, ...

........................................................................
.............................. CYCLE   31 ..............................
........................................................................
   1   -197.5583157 -0.197558E+03  0.104E-03    0.00       0.0  T
   2   -197.5583137  0.198043E-05  0.282E-03    0.00       3.3  T
   3   -197.5582761  0.376498E-04  0.125E-02    0.00       1.0  T
   4   -197.5583159 -0.398385E-04  0.353E-04    0.00      26.6  T
   5   -197.5583160 -0.347683E-07  0.178E-04    0.00      52.5  T
   6   -197.5583160 -0.380075E-08  0.566E-05    0.00     165.5  T
     SCC iter.                  ...        0 min,  0.342 sec
     gradient                   ...        0 min,  0.519 sec
 * total energy  :  -194.4988191 Eh     change       -0.4839598E-04 Eh
   gradient norm :     0.0028081 Eh/α   predicted    -0.3218472E-04 ( -33.50%)
   displ. norm   :     0.0577207 α      lambda       -0.5563423E-04
   maximum displ.:     0.0240432 α      in ANC's #17, #7, #21, ...

........................................................................
.............................. CYCLE   32 ..............................
........................................................................
   1   -197.5578917 -0.197558E+03  0.120E-03    0.00       0.0  T
   2   -197.5578886  0.312355E-05  0.354E-03    0.00       2.6  T
   3   -197.5578293  0.593350E-04  0.157E-02    0.00       1.0  T
   4   -197.5578922 -0.628869E-04  0.484E-04    0.00      19.3  T
   5   -197.5578922 -0.598446E-07  0.169E-04    0.00      55.5  T
   6   -197.5578922 -0.317928E-08  0.677E-05    0.00     138.3  T
     SCC iter.                  ...        0 min,  0.334 sec
     gradient                   ...        0 min,  0.502 sec
 * total energy  :  -194.4988547 Eh     change       -0.3562522E-04 Eh
   gradient norm :     0.0012130 Eh/α   predicted    -0.2791101E-04 ( -21.65%)
   displ. norm   :     0.1507624 α      lambda       -0.2185901E-04
   maximum displ.:     0.0847538 α      in ANC's #11, #7, #15, ...

........................................................................
.............................. CYCLE   33 ..............................
........................................................................
   1   -197.5571419 -0.197557E+03  0.872E-04    0.00       0.0  T
   2   -197.5571405  0.141467E-05  0.240E-03    0.00       3.9  T
   3   -197.5571099  0.306160E-04  0.112E-02    0.00       1.0  T
   4   -197.5571421 -0.322351E-04  0.352E-04    0.00      26.6  T
   5   -197.5571422 -0.282155E-07  0.146E-04    0.00      64.2  T
   6   -197.5571422 -0.264271E-08  0.580E-05    0.00     161.4  T
     SCC iter.                  ...        0 min,  0.336 sec
     gradient                   ...        0 min,  0.513 sec
 * total energy  :  -194.4988774 Eh     change       -0.2272464E-04 Eh
   gradient norm :     0.0016126 Eh/α   predicted    -0.1104297E-04 ( -51.41%)
   displ. norm   :     0.1698046 α      lambda       -0.2183197E-04
   maximum displ.:     0.0911143 α      in ANC's #11, #7, #8, ...

........................................................................
.............................. CYCLE   34 ..............................
........................................................................
   1   -197.5578422 -0.197558E+03  0.791E-04    0.00       0.0  T
   2   -197.5577787  0.634804E-04  0.158E-02    0.00       1.0  T
   3   -197.5578420 -0.633060E-04  0.104E-03    0.00       9.0  T
   4   -197.5578422 -0.235906E-06  0.279E-04    0.00      33.6  T
   5   -197.5578422 -0.130482E-07  0.172E-04    0.00      54.4  T
   6   -197.5578422 -0.816954E-08  0.504E-05    0.00     185.8  T
     SCC iter.                  ...        0 min,  0.343 sec
     gradient                   ...        0 min,  0.518 sec
 * total energy  :  -194.4989016 Eh     change       -0.2420405E-04 Eh
   gradient norm :     0.0015322 Eh/α   predicted    -0.1106007E-04 ( -54.30%)
   displ. norm   :     0.2859618 α      lambda       -0.2777903E-04
   maximum displ.:     0.1632857 α      in ANC's #11, #7, #8, ...

........................................................................
.............................. CYCLE   35 ..............................
........................................................................
   1   -197.5556925 -0.197556E+03  0.125E-03    0.00       0.0  T
   2   -197.5556522  0.402474E-04  0.126E-02    0.00       1.0  T
   3   -197.5556901 -0.378143E-04  0.320E-03    0.00       2.9  T
   4   -197.5556925 -0.245754E-05  0.496E-04    0.00      18.9  T
   5   -197.5556926 -0.500815E-07  0.252E-04    0.00      37.2  T
   6   -197.5556926 -0.254058E-07  0.524E-05    0.00     178.9  T
   7   -197.5556926 -0.652676E-09  0.198E-05    0.00     473.6  T
     SCC iter.                  ...        0 min,  0.400 sec
     gradient                   ...        0 min,  0.482 sec
 * total energy  :  -194.4989279 Eh     change       -0.2629676E-04 Eh
   gradient norm :     0.0017171 Eh/α   predicted    -0.1439472E-04 ( -45.26%)
   displ. norm   :     0.2277839 α      lambda       -0.2184608E-04
   maximum displ.:     0.1263151 α      in ANC's #11, #7, #3, ...

........................................................................
.............................. CYCLE   36 ..............................
........................................................................
   1   -197.5563972 -0.197556E+03  0.728E-04    0.00       0.0  T
   2   -197.5563960  0.118394E-05  0.219E-03    0.00       4.3  T
   3   -197.5563884  0.759252E-05  0.588E-03    0.00       1.6  T
   4   -197.5563972 -0.876994E-05  0.340E-04    0.00      27.5  T
   5   -197.5563972 -0.359333E-07  0.129E-04    0.00      72.3  T
   6   -197.5563972 -0.418240E-08  0.444E-05    0.00     210.9  T
     SCC iter.                  ...        0 min,  0.315 sec
     gradient                   ...        0 min,  0.476 sec
 * total energy  :  -194.4989528 Eh     change       -0.2487252E-04 Eh
   gradient norm :     0.0010349 Eh/α   predicted    -0.1117663E-04 ( -55.06%)
   displ. norm   :     0.3136941 α      lambda       -0.2599374E-04
   maximum displ.:     0.1749599 α      in ANC's #11, #7, #3, ...

........................................................................
.............................. CYCLE   37 ..............................
........................................................................
   1   -197.5567221 -0.197557E+03  0.706E-04    0.00       0.0  T
   2   -197.5567200  0.218802E-05  0.295E-03    0.00       3.2  T
   3   -197.5567176  0.233371E-05  0.423E-03    0.00       2.2  T
   4   -197.5567222 -0.453510E-05  0.259E-04    0.00      36.1  T
   5   -197.5567222 -0.136268E-07  0.125E-04    0.00      74.7  T
   6   -197.5567222 -0.536926E-08  0.398E-05    0.00     235.2  T
     SCC iter.                  ...        0 min,  0.313 sec
     gradient                   ...        0 min,  0.477 sec
 * total energy  :  -194.4989820 Eh     change       -0.2916255E-04 Eh
   gradient norm :     0.0011081 Eh/α   predicted    -0.1356749E-04 ( -53.48%)
   displ. norm   :     0.2956190 α      lambda       -0.2218208E-04
   maximum displ.:     0.1591236 α      in ANC's #11, #7, #9, ...

........................................................................
.............................. CYCLE   38 ..............................
........................................................................
   1   -197.5573873 -0.197557E+03  0.132E-03    0.00       0.0  T
   2   -197.5570179  0.369445E-03  0.380E-02    0.01       1.0  T
   3   -197.5573870 -0.369184E-03  0.157E-03    0.00       6.0  T
   4   -197.5573876 -0.585287E-06  0.317E-04    0.00      29.5  T
   5   -197.5573876  0.449697E-08  0.296E-04    0.00      31.6  T
   6   -197.5573876 -0.218801E-07  0.753E-05    0.00     124.4  T
   7   -197.5573876 -0.151056E-08  0.171E-05    0.00     547.6  T
     SCC iter.                  ...        0 min,  0.367 sec
     gradient                   ...        0 min,  0.477 sec
 * total energy  :  -194.4990031 Eh     change       -0.2116161E-04 Eh
   gradient norm :     0.0014019 Eh/α   predicted    -0.1152247E-04 ( -45.55%)
   displ. norm   :     0.2272786 α      lambda       -0.1365316E-04
   maximum displ.:     0.1211887 α      in ANC's #11, #7, #9, ...

........................................................................
.............................. CYCLE   39 ..............................
........................................................................
   1   -197.5573613 -0.197557E+03  0.881E-04    0.00       0.0  T
   2   -197.5572442  0.117072E-03  0.214E-02    0.00       1.0  T
   3   -197.5573608 -0.116526E-03  0.164E-03    0.00       5.7  T
   4   -197.5573614 -0.642832E-06  0.312E-04    0.00      30.0  T
   5   -197.5573614 -0.208244E-07  0.135E-04    0.00      69.3  T
   6   -197.5573614 -0.498375E-08  0.597E-05    0.00     156.9  T
     SCC iter.                  ...        0 min,  0.313 sec
     gradient                   ...        0 min,  0.463 sec
 * total energy  :  -194.4990147 Eh     change       -0.1157031E-04 Eh
   gradient norm :     0.0011089 Eh/α   predicted    -0.6984942E-05 ( -39.63%)
   displ. norm   :     0.1120075 α      lambda       -0.8113625E-05
   maximum displ.:     0.0575985 α      in ANC's #7, #11, #9, ...

........................................................................
.............................. CYCLE   40 ..............................
........................................................................
   1   -197.5579579 -0.197558E+03  0.586E-04    0.00       0.0  T
   2   -197.5579070  0.509223E-04  0.141E-02    0.00       1.0  T
   3   -197.5579578 -0.507588E-04  0.935E-04    0.00      10.0  T
   4   -197.5579580 -0.207388E-06  0.193E-04    0.00      48.5  T
   5   -197.5579580 -0.628469E-08  0.971E-05    0.00      96.4  T
     SCC iter.                  ...        0 min,  0.268 sec
     gradient                   ...        0 min,  0.479 sec
 * total energy  :  -194.4990245 Eh     change       -0.9835510E-05 Eh
   gradient norm :     0.0007462 Eh/α   predicted    -0.4081512E-05 ( -58.50%)
   displ. norm   :     0.1919469 α      lambda       -0.1451368E-04
   maximum displ.:     0.1008021 α      in ANC's #7, #11, #9, ...

........................................................................
.............................. CYCLE   41 ..............................
........................................................................
   1   -197.5581723 -0.197558E+03  0.584E-04    0.00       0.0  T
   2   -197.5581661  0.623786E-05  0.495E-03    0.00       1.9  T
   3   -197.5581712 -0.511507E-05  0.214E-03    0.00       4.4  T
   4   -197.5581723 -0.112734E-05  0.288E-04    0.00      32.6  T
   5   -197.5581724 -0.181840E-07  0.131E-04    0.00      71.4  T
   6   -197.5581724 -0.491119E-08  0.259E-05    0.00     361.4  T
     SCC iter.                  ...        0 min,  0.318 sec
     gradient                   ...        0 min,  0.495 sec
 * total energy  :  -194.4990404 Eh     change       -0.1589608E-04 Eh
   gradient norm :     0.0009307 Eh/α   predicted    -0.7376890E-05 ( -53.59%)
   displ. norm   :     0.2130076 α      lambda       -0.1226662E-04
   maximum displ.:     0.1118171 α      in ANC's #7, #11, #3, ...

........................................................................
.............................. CYCLE   42 ..............................
........................................................................
   1   -197.5577253 -0.197558E+03  0.707E-04    0.00       0.0  T
   2   -197.5576351  0.901676E-04  0.188E-02    0.00       1.0  T
   3   -197.5577252 -0.900591E-04  0.901E-04    0.00      10.4  T
   4   -197.5577254 -0.185241E-06  0.236E-04    0.00      39.7  T
   5   -197.5577254 -0.864523E-08  0.153E-04    0.00      61.1  T
   6   -197.5577254 -0.548681E-08  0.465E-05    0.00     201.6  T
     SCC iter.                  ...        0 min,  0.325 sec
     gradient                   ...        0 min,  0.504 sec
 * total energy  :  -194.4990537 Eh     change       -0.1322580E-04 Eh
   gradient norm :     0.0010930 Eh/α   predicted    -0.6259486E-05 ( -52.67%)
   displ. norm   :     0.1902248 α      lambda       -0.9269772E-05
   maximum displ.:     0.0995048 α      in ANC's #7, #11, #3, ...
 * RMSD in coord.:     0.3634285 α      energy gain  -0.8012568E-03 Eh

generating ANC from model Hessian ...
Using Lindh-Hessian (1995)
 Shifting diagonal of input Hessian by    1.0126394480097735E-002
 Lowest  eigenvalues of input Hessian
    0.010000    0.010110    0.010122    0.000000    0.000000    0.000000
    0.000000    0.000000    0.000000    0.010250    0.010303    0.010538
    0.010605    0.010673    0.010696    0.010750    0.010815    0.010838
 Highest eigenvalues
    2.086060    2.090567    2.092189    2.135600    2.135686    2.618190


........................................................................
.............................. CYCLE   43 ..............................
........................................................................
   1   -197.5578486 -0.197558E+03  0.130E-03    0.00       0.0  T
   2   -197.5574091  0.439478E-03  0.415E-02    0.01       1.0  T
   3   -197.5578484 -0.439308E-03  0.149E-03    0.00       6.3  T
   4   -197.5578490 -0.528474E-06  0.325E-04    0.00      28.8  T
   5   -197.5578490 -0.120075E-07  0.223E-04    0.00      42.1  T
   6   -197.5578490 -0.108207E-07  0.769E-05    0.00     121.8  T
   7   -197.5578490 -0.151249E-08  0.124E-05    0.00     758.1  T
     SCC iter.                  ...        0 min,  0.419 sec
     gradient                   ...        0 min,  0.458 sec
 * total energy  :  -194.4990640 Eh     change       -0.1035540E-04 Eh
   gradient norm :     0.0008982 Eh/α   predicted     0.0000000E+00 (-100.00%)
   displ. norm   :     0.0212778 α      lambda       -0.8174957E-06
   maximum displ.:     0.0110240 α      in ANC's #15, #2, #17, ...

........................................................................
.............................. CYCLE   44 ..............................
........................................................................
   1   -197.5578536 -0.197558E+03  0.494E-04    0.00       0.0  T
   2   -197.5578118  0.418073E-04  0.128E-02    0.00       1.0  T
   3   -197.5578536 -0.418159E-04  0.388E-04    0.00      24.2  T
   4   -197.5578537 -0.313270E-07  0.104E-04    0.00      90.1  T
   5   -197.5578537 -0.800384E-09  0.888E-05    0.00     105.5  T
     SCC iter.                  ...        0 min,  0.264 sec
     gradient                   ...        0 min,  0.488 sec
 * total energy  :  -194.4990688 Eh     change       -0.4735958E-05 Eh
   gradient norm :     0.0004177 Eh/α   predicted    -0.2421756E-05 ( -48.86%)
   displ. norm   :     0.0196798 α      lambda        0.4660014E-06
   maximum displ.:     0.0100876 α      in ANC's #15, #2, #17, ...

   *** GEOMETRY OPTIMIZATION CONVERGED AFTER 44 ITERATIONS ***

------------------------------------------------------------------------
 total energy gain   :        -0.1353535 Eh      -84.9356 kcal/mol
 total RMSD          :         0.6926723 a0        0.3665 Å
 total power (kW/mol):        -8.0766015 (step)   -7.3166 (real)
------------------------------------------------------------------------

 ANCopt (total)                0 d,  0 h,  0 min, 48.570 sec
 optimizer setup                ...        0 min,  0.000 sec (  0.001%)
 model hessian                  ...        0 min,  0.212 sec (  0.437%)
 ANC generation                 ...        0 min,  0.085 sec (  0.176%)
 coordinate transformation      ...        0 min,  0.005 sec (  0.011%)
 single point calculation       ...        0 min, 48.209 sec ( 99.256%)
 optimization log               ...        0 min,  0.027 sec (  0.056%)
 hessian update                 ...        0 min,  0.006 sec (  0.011%)
 rational function              ...        0 min,  0.018 sec (  0.038%)

================
 final structure:
================
114
 xtb: 6.5.1 (b24c23e)
Cu          15.30288616358006       -0.05127605671730       -0.00261926269462
C           11.89121465173886       -0.08270014013111       -0.00956394630044
C           12.52716652767146       -1.31380946202292       -0.06264190452085
C           11.85406531055192       -2.58093519786698       -0.09283626434261
C           12.81460926208353       -3.53788716439200       -0.11408265314901
C           14.08403211465591       -2.86266454668009       -0.10398036315417
N           13.87805343361517       -1.51390478251489       -0.06888955921193
C           15.32940101972792       -3.49341298729460       -0.08831873199697
C           16.56174685828480       -2.83953091731000       -0.03583165747211
C           17.83529801451219       -3.49991879764750       -0.04134800398889
C           18.78373266960120       -2.53080673266151       -0.00704182730184
N           16.75753707537743       -1.48340074625677       -0.00858327664498
C           18.10364351805572       -1.27179322316441        0.00601490445724
C           18.74768326587870       -0.02062247152105       -0.00074652497369
C           18.08040546716689        1.21853287025001       -0.00955120366208
C           18.73540184963505        2.48925002349710       -0.07099034971167
C           17.76946347276296        3.44131722999109       -0.04272500329627
C           16.51076672017359        2.75802682469161        0.03952356888890
C           15.26687131208761        3.39113679822779        0.08747901265200
C           15.25813122459721        4.87490886753243        0.13890655535042
C           14.66486230021874        5.61789094243857       -0.88243882171119
C           14.66024214406357        7.00379006239548       -0.82982199821484
C           15.24341670556753        7.66399763219039        0.24314150480951
C           15.83442190698463        6.93201347062957        1.26405689038615
C           15.84442841287102        5.54627910668137        1.21287611084271
C           14.03288445790787        2.73766971849454        0.09070216312965
C           12.75195943947306        3.38507718226348        0.17670527075704
C           11.80954380443640        2.41063899600359        0.14022456026420
C           12.50557360875725        1.15946393522947        0.04403786086882
N           13.85212239022766        1.38624486155316        0.02284283082079
N           16.73166142472323        1.40575291782358        0.04250595327665
C           15.34207048892952       -4.97834424077783       -0.13395419524973
C           14.85356572277487       -5.65147393841029       -1.25426309094538
C           14.86671756948173       -7.03748832125201       -1.30070923477758
C           15.36247638486835       -7.76699749434137       -0.22867746053044
C           15.84719516938071       -7.10440591442111        0.89082605391582
C           15.83981017135109       -5.71829065422783        0.93895186803878
H           10.80617003038568       -0.09245138676515        0.00196836668185
H           10.78280305022230       -2.70749557971207       -0.09074620673933
H           12.68322882315387       -4.60800582413186       -0.12317703127499
H           17.98237491982195       -4.56710308310882       -0.07742943097133
H           19.85312356322621       -2.65302793025740        0.00426031000297
H           19.80032268747385        2.63049156971028       -0.13968769418368
H           17.89468278866705        4.51085920423480       -0.09048387688940
H           14.22094075341944        5.10461355823465       -1.72823071275335
H           14.20017397851575        7.57099802057646       -1.63142987400784
H           15.23772710751279        8.74736989086716        0.28352927313985
H           16.28963496844404        7.44268063545807        2.10547864302005
H           16.29604285377537        4.97580004259506        2.01694349360710
H           12.60060177780842        4.44887136589277        0.26522690741862
H           10.73666218300398        2.51484185358583        0.18136785294723
H           14.47652110596982       -5.08250805207936       -2.09688254991666
H           14.48900500891671       -7.55005427284494       -2.17857040203699
H           15.37066369700340       -8.85048259558685       -0.26549690788535
H           16.23274133855863       -7.66990474447489        1.73200550461873
H           16.20850544744303       -5.20262284863013        1.81875474267354
Cu          26.23659912083654        0.05135685445956        0.00079688480920
C           29.64824690322572        0.08390813248181       -0.00475810375737
C           29.01200554629056        1.31601207491638       -0.00474010156380
C           29.68484324638499        2.58340859713480        0.01946336565440
C           28.72409632474473        3.54020381122841        0.03875618201138
C           27.45482278676656        2.86490123018060        0.01984205795622
N           27.66108916370200        1.51590509257959       -0.00277653821870
C           26.20930433132365        3.49403441981492        0.06298780445254
C           24.97713934623636        2.83810650930004        0.08785323694617
C           23.70340633700590        3.49776170335507        0.11140196487104
C           22.75522828761547        2.52782517573873        0.10431046230356
N           24.78168657665877        1.48202349727758        0.05672024078124
C           23.43563151691800        1.26960555077991        0.06277048768119
C           22.79189660414279        0.01973062340188        0.00181293273401
C           23.45941988311995       -1.21772318809037       -0.06065116971494
C           22.80464142228879       -2.48469328627801       -0.17700589737065
C           23.77074005856109       -3.43693090227713       -0.19002663342555
C           25.02934129973880       -2.75762121161787       -0.07859118779648
C           26.27345450631092       -3.39182410869670       -0.05885922881304
C           26.28297567643636       -4.87638405883886       -0.07265540541301
C           26.87692644761997       -5.57340465880455       -1.12555671836968
C           26.88262060761631       -6.96025254566072       -1.13369121782809
C           26.29988944846508       -7.66739614293220       -0.09081065065970
C           25.70857183414346       -6.98134710655997        0.96136254440660
C           25.69713231089431       -5.59469717666208        0.97071797090997
C           27.50726549231837       -2.73867793027433       -0.02765355086886
C           28.78841456398417       -3.38890901330157        0.02903760008391
C           29.73057261687957       -2.41356035238195        0.03513892885974
C           29.03418650485786       -1.15955886038538       -0.00550516822827
N           27.68767806236501       -1.38555183706585       -0.03597067459221
N           24.80820729643597       -1.40676106704993       -0.01699573941996
C           26.19554254645313        4.97951575931002        0.08183404976325
C           26.68309886010724        5.70150847219830       -1.00802250653706
C           26.66720310145334        7.08822692512258       -0.99427514126929
C           26.16965522537887        7.76962007412850        0.10816074862338
C           25.68624296428878        7.05818387337032        1.19786199303436
C           25.69643690838993        5.67132643529379        1.18581668059962
H           30.73328429999887        0.09335787727926        0.00741337132311
H           30.75608871677933        2.70990729137709        0.02728960367477
H           28.85522579409365        4.60977072592289        0.07515490042412
H           23.55595674924302        4.56545223162411        0.12136795420924
H           21.68582614701240        2.64923158796411        0.12152493350537
H           21.73972955730670       -2.62295117001245       -0.25164109976394
H           23.64562114175973       -4.50343161571359       -0.28391739485743
H           27.32094343567713       -5.02320118789203       -1.94772193191467
H           27.34254800254089       -7.49135442454886       -1.95976314144247
H           26.30653229782196       -8.75148481178454       -0.09815504757845
H           25.25456697429988       -7.52876267668268        1.78006969586014
H           25.24496854200166       -5.06033822859907        1.79892412244235
H           28.94018737554456       -4.45551629319980        0.07047093439230
H           30.80350392824353       -2.51925934944234        0.07086618565612
H           27.06129545633433        5.17043227201083       -1.87452148039474
H           27.04397356156100        7.63915215666507       -1.84899843285482
H           26.15901571010011        8.85366425017803        0.11819964603168
H           25.29938535440021        7.58587079565020        2.06267884536317
H           25.32867371501890        5.11720192794165        2.04231927999895
C           20.16068957419830       -0.00687790488036       -0.00894363640119
C           21.37889181872363        0.00606870682890       -0.00729599235872

 Bond Distances (Angstroems)
 ---------------------------
Cu1-N7=2.0430        Cu1-N12=2.0413       Cu1-N30=2.0425       Cu1-N31=2.0412       C2-C3=1.3867         C2-C29=1.3868        
C2-H38=1.0851        C3-C2=1.3867         C3-C4=1.4351         C3-N7=1.3656         C4-C3=1.4351         C4-C5=1.3560         
C4-H39=1.0787        C5-C4=1.3560         C5-C6=1.4379         C5-H40=1.0782        C6-C5=1.4379         C6-N7=1.3648         
C6-C8=1.3961         N7-Cu1=2.0430        N7-C3=1.3656         N7-C6=1.3648         C8-C6=1.3961         C8-C9=1.3961         
C8-C32=1.4857        C9-C8=1.3961         C9-C10=1.4346        C9-N12=1.3705        C10-C9=1.4346        C10-C11=1.3564       
C10-H41=1.0779       C11-C10=1.3564       C11-C13=1.4310       C11-H42=1.0764       N12-Cu1=2.0413       N12-C9=1.3705        
N12-C13=1.3627       C13-C11=1.4310       C13-N12=1.3627       C13-C14=1.4072       C14-C13=1.4072       C14-C15=1.4074       
C14-C113=1.4131      C15-C14=1.4074       C15-C16=1.4309       C15-N31=1.3627       C16-C15=1.4309       C16-C17=1.3566       
C16-H43=1.0764       C17-C16=1.3566       C17-C18=1.4346       C17-H44=1.0779       C18-C17=1.4346       C18-C19=1.3966       
C18-N31=1.3702       C19-C18=1.3966       C19-C20=1.4847       C19-C26=1.3963       C20-C19=1.4847       C20-C21=1.3954       
C20-C25=1.3957       C21-C20=1.3954       C21-C22=1.3869       C21-H45=1.0844       C22-C21=1.3869       C22-C23=1.3882       
C22-H46=1.0844       C23-C22=1.3882       C23-C24=1.3883       C23-H47=1.0841       C24-C23=1.3883       C24-C25=1.3867       
C24-H48=1.0844       C25-C20=1.3957       C25-C24=1.3867       C25-H49=1.0844       C26-C19=1.3963       C26-C27=1.4378       
C26-N30=1.3651       C27-C26=1.4378       C27-C28=1.3561       C27-H50=1.0781       C28-C27=1.3561       C28-C29=1.4350       
C28-H51=1.0787       C29-C2=1.3868        C29-C28=1.4350       C29-N30=1.3657       N30-Cu1=2.0425       N30-C26=1.3651       
N30-C29=1.3657       N31-Cu1=2.0412       N31-C15=1.3627       N31-C18=1.3702       C32-C8=1.4857        C32-C33=1.3953       
C32-C37=1.3951       C33-C32=1.3953       C33-C34=1.3869       C33-H52=1.0844       C34-C33=1.3869       C34-C35=1.3882       
C34-H53=1.0844       C35-C34=1.3882       C35-C36=1.3883       C35-H54=1.0841       C36-C35=1.3883       C36-C37=1.3870       
C36-H55=1.0844       C37-C32=1.3951       C37-C36=1.3870       C37-H56=1.0844       H38-C2=1.0851        H39-C4=1.0787        
H40-C5=1.0782        H41-C10=1.0779       H42-C11=1.0764       H43-C16=1.0764       H44-C17=1.0779       H45-C21=1.0844       
H46-C22=1.0844       H47-C23=1.0841       H48-C24=1.0844       H49-C25=1.0844       H50-C27=1.0781       H51-C28=1.0787       
H52-C33=1.0844       H53-C34=1.0844       H54-C35=1.0841       H55-C36=1.0844       H56-C37=1.0844       Cu57-N63=2.0431      
Cu57-N68=2.0413      Cu57-N86=2.0425      Cu57-N87=2.0413      C58-C59=1.3867       C58-C85=1.3868       C58-H94=1.0851       
C59-C58=1.3867       C59-C60=1.4351       C59-N63=1.3656       C60-C59=1.4351       C60-C61=1.3560       C60-H95=1.0787       
C61-C60=1.3560       C61-C62=1.4379       C61-H96=1.0782       C62-C61=1.4379       C62-N63=1.3649       C62-C64=1.3961       
N63-Cu57=2.0431      N63-C59=1.3656       N63-C62=1.3649       C64-C62=1.3961       C64-C65=1.3961       C64-C88=1.4857       
C65-C64=1.3961       C65-C66=1.4346       C65-N68=1.3704       C66-C65=1.4346       C66-C67=1.3564       C66-H97=1.0779       
C67-C66=1.3564       C67-C69=1.4310       C67-H98=1.0764       N68-Cu57=2.0413      N68-C65=1.3704       N68-C69=1.3627       
C69-C67=1.4310       C69-N68=1.3627       C69-C70=1.4072       C70-C69=1.4072       C70-C71=1.4074       C70-C114=1.4131      
C71-C70=1.4074       C71-C72=1.4309       C71-N87=1.3627       C72-C71=1.4309       C72-C73=1.3566       C72-H99=1.0764       
C73-C72=1.3566       C73-C74=1.4346       C73-H100=1.0779      C74-C73=1.4346       C74-C75=1.3966       C74-N87=1.3702       
C75-C74=1.3966       C75-C76=1.4847       C75-C82=1.3964       C76-C75=1.4847       C76-C77=1.3954       C76-C81=1.3956       
C77-C76=1.3954       C77-C78=1.3869       C77-H101=1.0844      C78-C77=1.3869       C78-C79=1.3882       C78-H102=1.0844      
C79-C78=1.3882       C79-C80=1.3883       C79-H103=1.0841      C80-C79=1.3883       C80-C81=1.3867       C80-H104=1.0845      
C81-C76=1.3956       C81-C80=1.3867       C81-H105=1.0844      C82-C75=1.3964       C82-C83=1.4378       C82-N86=1.3651       
C83-C82=1.4378       C83-C84=1.3561       C83-H106=1.0781      C84-C83=1.3561       C84-C85=1.4350       C84-H107=1.0787      
C85-C58=1.3868       C85-C84=1.4350       C85-N86=1.3657       N86-Cu57=2.0425      N86-C82=1.3651       N86-C85=1.3657       
N87-Cu57=2.0413      N87-C71=1.3627       N87-C74=1.3702       C88-C64=1.4857       C88-C89=1.3953       C88-C93=1.3952       
C89-C88=1.3953       C89-C90=1.3869       C89-H108=1.0844      C90-C89=1.3869       C90-C91=1.3882       C90-H109=1.0844      
C91-C90=1.3882       C91-C92=1.3883       C91-H110=1.0841      C92-C91=1.3883       C92-C93=1.3869       C92-H111=1.0844      
C93-C88=1.3952       C93-C92=1.3869       C93-H112=1.0844      H94-C58=1.0851       H95-C60=1.0787       H96-C61=1.0782       
H97-C66=1.0779       H98-C67=1.0764       H99-C72=1.0764       H100-C73=1.0779      H101-C77=1.0844      H102-C78=1.0844      
H103-C79=1.0841      H104-C80=1.0845      H105-C81=1.0844      H106-C83=1.0781      H107-C84=1.0787      H108-C89=1.0844      
H109-C90=1.0844      H110-C91=1.0841      H111-C92=1.0844      H112-C93=1.0844      C113-C14=1.4131      C113-C114=1.2183     
C114-C70=1.4131      C114-C113=1.2183     
 C  H  Rav=1.0816 sigma=0.0033  Rmin=1.0764  Rmax=1.0851    38
 C  C  Rav=1.4014 sigma=0.0376  Rmin=1.2183  Rmax=1.4857    71
 N  C  Rav=1.3659 sigma=0.0028  Rmin=1.3627  Rmax=1.3705    16
 Cu N  Rav=2.0420 sigma=0.0008  Rmin=2.0412  Rmax=2.0431     8

 selected bond angles (degree)
 --------------------
N12-Cu1-N7= 89.69              N30-Cu1-N7= 90.51              N30-Cu1-N12=179.42             N31-Cu1-N7=179.38              
N31-Cu1-N12= 90.12             N31-Cu1-N30= 89.69             C29-C2-C3=126.41               H38-C2-C3=116.81               
H38-C2-C29=116.78              C4-C3-C2=124.72                N7-C3-C2=125.73                N7-C3-C4=109.54                
C5-C4-C3=106.93                H39-C4-C3=124.70               H39-C4-C5=128.37               C6-C5-C4=107.09                
H40-C5-C4=127.90               H40-C5-C6=125.01               N7-C6-C5=109.33                C8-C6-C5=125.13                
C8-C6-N7=125.51                C3-N7-Cu1=125.79               C6-N7-Cu1=127.09               C6-N7-C3=107.11                
C9-C8-C6=125.19                C32-C8-C6=117.31               C32-C8-C9=117.50               C10-C9-C8=124.60               
N12-C9-C8=126.18               N12-C9-C10=109.19              C11-C10-C9=106.96              H41-C10-C9=125.24              
H41-C10-C11=127.79             

 selected dihedral angles (degree)
 ---------------------------------
C4-C3-C2-C29=178.81           C4-C3-C2-H38=359.52           N7-C3-C2-C29=  0.12           N7-C3-C2-H38=180.83           
C5-C4-C3-C2=181.26            C5-C4-C3-N7=  0.13            H39-C4-C3-C2=  0.86           H39-C4-C3-N7=179.74           
C6-C5-C4-C3=359.71            C6-C5-C4-H39=180.13           H40-C5-C4-C3=178.93           H40-C5-C4-H39=359.34          
[...]
   114C    -0.04287 -0.04513   1.099  2.944  0.000

Wiberg/Mayer (AO) data.
largest (>0.10) Wiberg bond orders for each atom

 ---------------------------------------------------------------------------
     #   Z sym  total        # sym  WBO       # sym  WBO       # sym  WBO
 ---------------------------------------------------------------------------
     1  29 Cu   2.187 --    30 N    0.505     7 N    0.505    12 N    0.504
                            31 N    0.503
     2   6 C    3.929 --     3 C    1.361    29 C    1.361    38 H    0.971
     3   6 C    3.917 --     2 C    1.361     7 N    1.230     4 C    1.170
     4   6 C    3.955 --     5 C    1.656     3 C    1.170    39 H    0.976
     5   6 C    3.958 --     4 C    1.656     6 C    1.172    40 H    0.973
     6   6 C    3.914 --     8 C    1.321     7 N    1.238     5 C    1.172
     7   7 N    3.243 --     6 C    1.238     3 C    1.230     1 Cu   0.505
     8   6 C    3.934 --     9 C    1.327     6 C    1.321    32 C    1.023
     9   6 C    3.909 --     8 C    1.327    12 N    1.222    10 C    1.180
    10   6 C    3.954 --    11 C    1.641     9 C    1.180    41 H    0.973
    11   6 C    3.957 --    10 C    1.641    13 C    1.188    42 H    0.963
    12   7 N    3.247 --    13 C    1.254     9 C    1.222     1 Cu   0.504
    13   6 C    3.902 --    14 C    1.264    12 N    1.254    11 C    1.188
    14   6 C    3.940 --    13 C    1.264    15 C    1.263   113 C    1.176
    15   6 C    3.902 --    14 C    1.263    31 N    1.254    16 C    1.189
    16   6 C    3.957 --    17 C    1.640    15 C    1.189    43 H    0.963
    17   6 C    3.954 --    16 C    1.640    18 C    1.180    44 H    0.973
    18   6 C    3.909 --    19 C    1.325    31 N    1.223    17 C    1.180
    19   6 C    3.935 --    18 C    1.325    26 C    1.321    20 C    1.027
    20   6 C    3.988 --    21 C    1.396    25 C    1.395    19 C    1.027
                            23 C    0.108
    21   6 C    3.988 --    22 C    1.447    20 C    1.396    45 H    0.973
                            24 C    0.109
    22   6 C    3.995 --    21 C    1.447    23 C    1.438    46 H    0.973
                            25 C    0.110
    23   6 C    3.990 --    22 C    1.438    24 C    1.437    47 H    0.974
                            20 C    0.108
    24   6 C    3.995 --    25 C    1.448    23 C    1.437    48 H    0.973
                            21 C    0.109
    25   6 C    3.988 --    24 C    1.448    20 C    1.395    49 H    0.973
                            22 C    0.110
    26   6 C    3.914 --    19 C    1.321    30 N    1.238    27 C    1.172
    27   6 C    3.958 --    28 C    1.655    26 C    1.172    50 H    0.973
    28   6 C    3.955 --    27 C    1.655    29 C    1.171    51 H    0.976
    29   6 C    3.917 --     2 C    1.361    30 N    1.230    28 C    1.171
    30   7 N    3.243 --    26 C    1.238    29 C    1.230     1 Cu   0.505
    31   7 N    3.247 --    15 C    1.254    18 C    1.223     1 Cu   0.503
    32   6 C    3.988 --    37 C    1.397    33 C    1.397     8 C    1.023
                            35 C    0.108
    33   6 C    3.988 --    34 C    1.447    32 C    1.397    52 H    0.973
                            36 C    0.110
    34   6 C    3.995 --    33 C    1.447    35 C    1.438    53 H    0.973
                            37 C    0.110
    35   6 C    3.991 --    36 C    1.438    34 C    1.438    54 H    0.974
                            32 C    0.108
    36   6 C    3.995 --    37 C    1.447    35 C    1.438    55 H    0.973
                            33 C    0.110
    37   6 C    3.988 --    36 C    1.447    32 C    1.397    56 H    0.973
                            34 C    0.110
    38   1 H    1.002 --     2 C    0.971
    39   1 H    0.998 --     4 C    0.976
    40   1 H    1.005 --     5 C    0.973
    41   1 H    1.005 --    10 C    0.973
    42   1 H    1.008 --    11 C    0.963
    43   1 H    1.008 --    16 C    0.963
    44   1 H    1.005 --    17 C    0.973
    45   1 H    1.005 --    21 C    0.973
    46   1 H    1.003 --    22 C    0.973
    47   1 H    1.003 --    23 C    0.974
    48   1 H    1.003 --    24 C    0.973
    49   1 H    1.005 --    25 C    0.973
    50   1 H    1.005 --    27 C    0.973
    51   1 H    0.998 --    28 C    0.976
    52   1 H    1.005 --    33 C    0.973
    53   1 H    1.003 --    34 C    0.973
    54   1 H    1.003 --    35 C    0.974
    55   1 H    1.003 --    36 C    0.973
    56   1 H    1.005 --    37 C    0.973
    57  29 Cu   2.187 --    86 N    0.505    63 N    0.505    68 N    0.504
                            87 N    0.503
    58   6 C    3.929 --    59 C    1.361    85 C    1.361    94 H    0.971
    59   6 C    3.917 --    58 C    1.361    63 N    1.230    60 C    1.170
    60   6 C    3.955 --    61 C    1.656    59 C    1.170    95 H    0.976
    61   6 C    3.958 --    60 C    1.656    62 C    1.172    96 H    0.973
    62   6 C    3.914 --    64 C    1.321    63 N    1.238    61 C    1.172
    63   7 N    3.243 --    62 C    1.238    59 C    1.230    57 Cu   0.505
    64   6 C    3.934 --    65 C    1.327    62 C    1.321    88 C    1.023
    65   6 C    3.909 --    64 C    1.327    68 N    1.222    66 C    1.180
    66   6 C    3.954 --    67 C    1.641    65 C    1.180    97 H    0.973
    67   6 C    3.957 --    66 C    1.641    69 C    1.188    98 H    0.963
    68   7 N    3.247 --    69 C    1.254    65 C    1.222    57 Cu   0.504
    69   6 C    3.902 --    70 C    1.264    68 N    1.254    67 C    1.188
    70   6 C    3.940 --    69 C    1.264    71 C    1.263   114 C    1.176
    71   6 C    3.902 --    70 C    1.263    87 N    1.254    72 C    1.189
    72   6 C    3.957 --    73 C    1.640    71 C    1.189    99 H    0.963
    73   6 C    3.954 --    72 C    1.640    74 C    1.180   100 H    0.973
    74   6 C    3.909 --    75 C    1.325    87 N    1.223    73 C    1.180
    75   6 C    3.935 --    74 C    1.325    82 C    1.321    76 C    1.027
    76   6 C    3.988 --    77 C    1.396    81 C    1.395    75 C    1.027
                            79 C    0.108
    77   6 C    3.988 --    78 C    1.447    76 C    1.396   101 H    0.973
                            80 C    0.109
    78   6 C    3.995 --    77 C    1.447    79 C    1.438   102 H    0.973
                            81 C    0.110
    79   6 C    3.990 --    78 C    1.438    80 C    1.437   103 H    0.974
                            76 C    0.108
    80   6 C    3.995 --    81 C    1.448    79 C    1.437   104 H    0.973
                            77 C    0.109
    81   6 C    3.988 --    80 C    1.448    76 C    1.395   105 H    0.973
                            78 C    0.110
    82   6 C    3.914 --    75 C    1.321    86 N    1.238    83 C    1.172
    83   6 C    3.958 --    84 C    1.655    82 C    1.172   106 H    0.973
    84   6 C    3.955 --    83 C    1.655    85 C    1.171   107 H    0.976
    85   6 C    3.917 --    58 C    1.361    86 N    1.230    84 C    1.171
    86   7 N    3.243 --    82 C    1.238    85 C    1.230    57 Cu   0.505
    87   7 N    3.247 --    71 C    1.254    74 C    1.223    57 Cu   0.503
    88   6 C    3.988 --    93 C    1.397    89 C    1.397    64 C    1.023
                            91 C    0.108
    89   6 C    3.988 --    90 C    1.447    88 C    1.397   108 H    0.973
                            92 C    0.110
    90   6 C    3.995 --    89 C    1.447    91 C    1.438   109 H    0.973
                            93 C    0.110
    91   6 C    3.991 --    92 C    1.438    90 C    1.438   110 H    0.974
                            88 C    0.108
    92   6 C    3.995 --    93 C    1.447    91 C    1.438   111 H    0.973
                            89 C    0.110
    93   6 C    3.988 --    92 C    1.447    88 C    1.397   112 H    0.973
                            90 C    0.110
    94   1 H    1.002 --    58 C    0.971
    95   1 H    0.998 --    60 C    0.976
    96   1 H    1.005 --    61 C    0.973
    97   1 H    1.005 --    66 C    0.973
    98   1 H    1.008 --    67 C    0.963
    99   1 H    1.008 --    72 C    0.963
   100   1 H    1.005 --    73 C    0.973
   101   1 H    1.005 --    77 C    0.973
   102   1 H    1.003 --    78 C    0.973
   103   1 H    1.003 --    79 C    0.974
   104   1 H    1.003 --    80 C    0.973
   105   1 H    1.005 --    81 C    0.973
   106   1 H    1.005 --    83 C    0.973
   107   1 H    0.998 --    84 C    0.976
   108   1 H    1.005 --    89 C    0.973
   109   1 H    1.003 --    90 C    0.973
   110   1 H    1.003 --    91 C    0.974
   111   1 H    1.003 --    92 C    0.973
   112   1 H    1.005 --    93 C    0.973
   113   6 C    3.936 --   114 C    2.584    14 C    1.176
   114   6 C    3.936 --   113 C    2.584    70 C    1.176
 ---------------------------------------------------------------------------

Topologies differ in total number of bonds
Writing topology from bond orders to xtbtopo.mol

 dipole moment from electron density (au)
     X       Y       Z   
  -0.0003   0.0001   0.0040  total (Debye):    0.010

           -------------------------------------------------
          |                Geometry Summary                 |
           -------------------------------------------------

      molecular mass/u    :     1070.1560235
   center of mass at/Å    :       20.7696269      -0.0000018      -0.0003035
  moments of inertia/u·Å² :        0.1677054E+05   0.3546210E+05   0.5166705E+05
rotational constants/cm⁻¹ :        0.1005193E-02   0.4753704E-03   0.3262744E-03

 * 119 selected distances

     #   Z          #   Z                                           value/Å
     2   6 C        3   6 C                                       1.3866804
     3   6 C        4   6 C                                       1.4351254
     4   6 C        5   6 C                                       1.3560433
     5   6 C        6   6 C                                       1.4378673 (max)
     3   6 C        7   7 N                                       1.3656401
     6   6 C        7   7 N                                       1.3648486
     6   6 C        8   6 C                                       1.3960777
     8   6 C        9   6 C                                       1.3960635
     9   6 C       10   6 C                                       1.4345994
    10   6 C       11   6 C                                       1.3564231
     9   6 C       12   7 N                                       1.3704618
    11   6 C       13   6 C                                       1.4310161
    12   7 N       13   6 C                                       1.3627156
    13   6 C       14   6 C                                       1.4072177
    14   6 C       15   6 C                                       1.4074244
    15   6 C       16   6 C                                       1.4309149
    16   6 C       17   6 C                                       1.3565648
    17   6 C       18   6 C                                       1.4345621
    18   6 C       19   6 C                                       1.3965687
    20   6 C       21   6 C                                       1.3953986
    21   6 C       22   6 C                                       1.3869054
    22   6 C       23   6 C                                       1.3882426
    23   6 C       24   6 C                                       1.3882927
    20   6 C       25   6 C                                       1.3956695
    24   6 C       25   6 C                                       1.3867154
    19   6 C       26   6 C                                       1.3963358
    26   6 C       27   6 C                                       1.4378116
    27   6 C       28   6 C                                       1.3561004
     2   6 C       29   6 C                                       1.3868244
    28   6 C       29   6 C                                       1.4349734
    26   6 C       30   7 N                                       1.3651481
    29   6 C       30   7 N                                       1.3656767
    15   6 C       31   7 N                                       1.3626710
    18   6 C       31   7 N                                       1.3702001
    32   6 C       33   6 C                                       1.3952895
    33   6 C       34   6 C                                       1.3868549
    34   6 C       35   6 C                                       1.3882409
    35   6 C       36   6 C                                       1.3882609
    32   6 C       37   6 C                                       1.3951320
    36   6 C       37   6 C                                       1.3869703
     2   6 C       38   1 H                                       1.0851498
     4   6 C       39   1 H                                       1.0787145
     5   6 C       40   1 H                                       1.0781919
    10   6 C       41   1 H                                       1.0778757
    11   6 C       42   1 H                                       1.0764120
    16   6 C       43   1 H                                       1.0764409
    17   6 C       44   1 H                                       1.0779059
    21   6 C       45   1 H                                       1.0843819
    22   6 C       46   1 H                                       1.0844183
    23   6 C       47   1 H                                       1.0841398
    24   6 C       48   1 H                                       1.0844310
    25   6 C       49   1 H                                       1.0844015
    27   6 C       50   1 H                                       1.0781482
    28   6 C       51   1 H                                       1.0787151
    33   6 C       52   1 H                                       1.0843858
    34   6 C       53   1 H                                       1.0844497
    35   6 C       54   1 H                                       1.0841415
    36   6 C       55   1 H                                       1.0844436
    37   6 C       56   1 H                                       1.0843905
    58   6 C       59   6 C                                       1.3866808
    59   6 C       60   6 C                                       1.4351274
    60   6 C       61   6 C                                       1.3560473
    61   6 C       62   6 C                                       1.4378620
    59   6 C       63   7 N                                       1.3656268
    62   6 C       63   7 N                                       1.3648620
    62   6 C       64   6 C                                       1.3960611
    64   6 C       65   6 C                                       1.3960984
    65   6 C       66   6 C                                       1.4346065
    66   6 C       67   6 C                                       1.3564177
    65   6 C       68   7 N                                       1.3704498
    67   6 C       69   6 C                                       1.4310105
    68   7 N       69   6 C                                       1.3627261
    69   6 C       70   6 C                                       1.4072307
    70   6 C       71   6 C                                       1.4074024
    71   6 C       72   6 C                                       1.4309042
    72   6 C       73   6 C                                       1.3565666
    73   6 C       74   6 C                                       1.4345581
    74   6 C       75   6 C                                       1.3965746
    76   6 C       77   6 C                                       1.3954271
    77   6 C       78   6 C                                       1.3868836
    78   6 C       79   6 C                                       1.3882463
    79   6 C       80   6 C                                       1.3883042
    76   6 C       81   6 C                                       1.3956413
    80   6 C       81   6 C                                       1.3867288
    75   6 C       82   6 C                                       1.3963752
    82   6 C       83   6 C                                       1.4378309
    83   6 C       84   6 C                                       1.3560990
    58   6 C       85   6 C                                       1.3868242
    84   6 C       85   6 C                                       1.4349654
    82   6 C       86   7 N                                       1.3651258
    85   6 C       86   7 N                                       1.3656816
    71   6 C       87   7 N                                       1.3626698
    74   6 C       87   7 N                                       1.3702254
    88   6 C       89   6 C                                       1.3952678
    89   6 C       90   6 C                                       1.3868778
    90   6 C       91   6 C                                       1.3882420
    91   6 C       92   6 C                                       1.3882644
    88   6 C       93   6 C                                       1.3951654
    92   6 C       93   6 C                                       1.3869473
    58   6 C       94   1 H                                       1.0851469
    60   6 C       95   1 H                                       1.0787169
    61   6 C       96   1 H                                       1.0781899
    66   6 C       97   1 H                                       1.0778701
    67   6 C       98   1 H                                       1.0764093 (min)
    72   6 C       99   1 H                                       1.0764400
    73   6 C      100   1 H                                       1.0779120
    77   6 C      101   1 H                                       1.0843573
    78   6 C      102   1 H                                       1.0844342
    79   6 C      103   1 H                                       1.0841340
    80   6 C      104   1 H                                       1.0844657
    81   6 C      105   1 H                                       1.0843972
    83   6 C      106   1 H                                       1.0781480
    84   6 C      107   1 H                                       1.0787171
    89   6 C      108   1 H                                       1.0843871
    90   6 C      109   1 H                                       1.0844477
    91   6 C      110   1 H                                       1.0841430
    92   6 C      111   1 H                                       1.0844449
    93   6 C      112   1 H                                       1.0843895
   113   6 C      114   6 C                                       1.2182723

 * 3 distinct bonds (by element types)

   Z      Z             #   av. dist./Å        max./Å        min./Å
   1 H    6 C          38     1.0816392     1.0851498     1.0764093
   6 C    6 C          65     1.3958874     1.4378673     1.2182723
   6 C    7 N          16     1.3659206     1.3704618     1.3626698


optimized geometry written to: xtbopt.xyz


           -------------------------------------------------
          | TOTAL ENERGY             -194.499068764318 Eh   |
          | GRADIENT NORM               0.000417904594 Eh/α |
          | HOMO-LUMO GAP               0.002319891759 eV   |
           -------------------------------------------------

------------------------------------------------------------------------
 * finished run on 2022/07/30 at 08:33:02.907     
------------------------------------------------------------------------
 total:
 * wall-time:     0 d,  0 h,  0 min, 51.327 sec
 *  cpu-time:     0 d,  0 h,  0 min, 50.989 sec
 * ratio c/w:     0.993 speedup
 SCF:
 * wall-time:     0 d,  0 h,  0 min,  1.680 sec
 *  cpu-time:     0 d,  0 h,  0 min,  1.669 sec
 * ratio c/w:     0.993 speedup
 ANC optimizer:
 * wall-time:     0 d,  0 h,  0 min, 49.449 sec
 *  cpu-time:     0 d,  0 h,  0 min, 49.131 sec
 * ratio c/w:     0.994 speedup

