120
 energy: -215.375147870615 gnorm: 0.529973353369 xtb: 6.5.1 (b24c23e)
Co          16.72044600000000       -0.03046100000000       -0.00246500000000
C           13.38244900000000        0.09269400000000        0.06961300000000
C           14.04442400000000        1.24213800000000        0.23053500000000
C           13.39355300000000        2.53944500000000        0.36771000000000
C           14.33352200000000        3.45010300000000        0.54039700000000
C           15.63859900000000        2.77468700000000        0.53440100000000
N           15.46181400000000        1.37266900000000        0.32731600000000
C           16.83053300000000        3.38054100000000        0.71605400000000
C           16.87974400000000        4.83900600000000        0.96832500000000
C           16.39706500000000        5.36814900000000        2.17603200000000
C           16.46001800000000        6.74399600000000        2.41651700000000
C           17.01085400000000        7.60054000000000        1.45485600000000
C           17.07686600000000        9.01676200000000        1.70356900000000
N           17.12992500000000       10.15533800000000        1.90361600000000
C           17.49996200000000        7.07553700000000        0.25192200000000
C           17.43664500000000        5.69988100000000        0.01012900000000
C           18.12196700000000        2.64481700000000        0.68453800000000
C           19.40530800000000        3.22989700000000        1.09183200000000
C           20.34011000000000        2.32000200000000        0.90702200000000
N           18.26499500000000        1.42297100000000        0.27094700000000
C           19.66032600000000        1.14226800000000        0.38183800000000
C           20.25488600000000        0.00023400000000        0.00006600000000
C           19.49167300000000       -1.15985800000000       -0.51136100000000
C           20.02259100000000       -2.15237700000000       -1.21421800000000
C           18.97997400000000       -3.13817400000000       -1.42371200000000
C           17.88206700000000       -2.68428100000000       -0.83019700000000
N           18.11546200000000       -1.41095600000000       -0.22629200000000
C           16.60357300000000       -3.43561800000000       -0.74407600000000
C           16.62683200000000       -4.90115700000000       -0.97161800000000
C           15.94266100000000       -5.46519900000000       -2.06106300000000
C           15.98454300000000       -6.84519600000000       -2.28142700000000
C           16.71619700000000       -7.67207200000000       -1.41982100000000
C           16.76021300000000       -9.09263500000000       -1.64785700000000
N           16.79563700000000      -10.23471800000000       -1.83111300000000
C           17.40792900000000       -7.11312300000000       -0.33790400000000
C           17.36601200000000       -5.73329500000000       -0.11618600000000
C           15.44125200000000       -2.81648400000000       -0.46139200000000
C           14.13396300000000       -3.45425000000000       -0.31441400000000
C           13.27198300000000       -2.47929800000000       -0.09901800000000
C           14.02019200000000       -1.22332000000000       -0.09410800000000
N           15.28521800000000       -1.40764000000000       -0.30436100000000
H           12.29908900000000        0.12052000000000        0.06025600000000
H           12.33020300000000        2.73858600000000        0.33050300000000
H           14.14548700000000        4.50885900000000        0.66165700000000
H           15.97475900000000        4.71437000000000        2.92930400000000
H           16.08193500000000        7.13905100000000        3.35181800000000
H           17.93079100000000        7.72868200000000       -0.49741900000000
H           17.81969100000000        5.30465100000000       -0.92275100000000
H           19.57597500000000        4.22599900000000        1.47861500000000
H           21.39388800000000        2.45199900000000        1.11324500000000
H           21.04836000000000       -2.23277600000000       -1.54825100000000
H           19.08908800000000       -4.08063200000000       -1.94458300000000
H           15.38130700000000       -4.83514900000000       -2.74009500000000
H           15.44981800000000       -7.26643000000000       -3.12428400000000
H           17.97985000000000       -7.74311800000000        0.33276900000000
H           17.90638100000000       -5.31272800000000        0.72312800000000
H           13.89236700000000       -4.50771800000000       -0.36554400000000
H           12.20736400000000       -2.60217500000000        0.05083200000000
Co          30.50425700000000        0.03074600000000       -0.00412300000000
C           33.84225400000000       -0.08832600000000        0.07451700000000
C           33.18028000000000       -1.22737300000000        0.29742900000000
C           33.83115000000000       -2.51535200000000        0.50463400000000
C           32.89118100000000       -3.41532500000000        0.72636800000000
C           31.58610400000000       -2.74122400000000        0.68381600000000
N           31.76289000000000       -1.35247300000000        0.40113500000000
C           30.39417000000000       -3.33635600000000        0.89800200000000
C           30.34496000000000       -4.77902500000000        1.22885800000000
C           30.82763800000000       -5.24201100000000        2.46344100000000
C           30.76468500000000       -6.60282100000000        2.77805600000000
C           30.21384900000000       -7.51017000000000        1.86417600000000
C           30.14783700000000       -8.91085100000000        2.18919400000000
N           30.09477800000000      -10.03692700000000        2.45058500000000
C           29.72474100000000       -7.05105900000000        0.63458400000000
C           29.78805800000000       -5.69051000000000        0.31867300000000
C           29.10273700000000       -2.60341700000000        0.82670300000000
C           27.81939500000000       -3.16558900000000        1.26507300000000
C           26.88459300000000       -2.26703400000000        1.03127600000000
N           28.95970800000000       -1.40575300000000        0.34757200000000
C           27.56437700000000       -1.11945800000000        0.44310300000000
C           26.96981700000000        0.00023400000000        0.00006600000000
C           27.73303000000000        1.13093700000000       -0.57341500000000
C           27.20211200000000        2.08395100000000       -1.32897200000000
C           28.24472900000000        3.05696100000000       -1.59152700000000
C           29.34263600000000        2.63586400000000       -0.97431000000000
N           29.10924100000000        1.39710000000000       -0.30235700000000
C           30.62113000000000        3.39076100000000       -0.92898900000000
C           30.59787200000000        4.84183300000000       -1.23553700000000
C           31.28204200000000        5.34607000000000       -2.35391900000000
C           31.24016000000000        6.71211300000000       -2.64866800000000
C           30.50850600000000        7.58442000000000       -1.83309000000000
C           30.46449000000000        8.99055600000000       -2.13769600000000
N           30.42906600000000       10.12104200000000       -2.38251100000000
C           29.81677400000000        7.08486200000000       -0.72250000000000
C           29.85869100000000        5.71906100000000       -0.42640800000000
C           31.78345100000000        2.78783900000000       -0.61320200000000
C           33.09074000000000        3.43262700000000       -0.50096600000000
C           33.95272100000000        2.47076500000000       -0.23310500000000
C           33.20451100000000        1.21689500000000       -0.16020900000000
N           31.93948500000000        1.38956300000000       -0.38013200000000
H           34.92561400000000       -0.11661800000000        0.06668000000000
H           34.89450000000000       -2.71621500000000        0.47826300000000
H           33.07921600000000       -4.46596400000000        0.90476800000000
H           31.24994400000000       -4.54841200000000        3.18021400000000
H           31.14276800000000       -6.94666300000000        3.73337300000000
H           29.29391200000000       -7.74381400000000       -0.07829900000000
H           29.40501200000000       -5.34636300000000       -0.63423600000000
H           27.64872800000000       -4.13929100000000        1.70521400000000
H           25.83081500000000       -2.38767300000000        1.24434200000000
H           26.17634300000000        2.14614900000000       -1.66686700000000
H           28.13561500000000        3.96983800000000       -2.16265500000000
H           31.84339599999999        4.68018300000000       -2.99784700000000
H           31.77488500000000        7.08710000000000       -3.51309400000000
H           29.24485400000000        7.75024100000000       -0.08691600000000
H           29.31832199999999        5.34454900000000        0.43444300000000
H           33.33233600000000        4.48178200000000       -0.60905200000000
H           35.01733900000000        2.60157500000000       -0.09012700000000
C           22.87686000000000        0.01240500000000        0.00243300000000
C           21.62459000000000       -0.00677600000000       -0.00191600000000
C           24.19052800000000        0.01163900000000        0.00436500000000
C           25.69366200000000       -0.00677600000000       -0.00191600000000
120
 energy: -215.508949205564 gnorm: 0.297310770347 xtb: 6.5.1 (b24c23e)
Co          16.73241830970024       -0.01813480139714        0.00430741268204
C           13.38329283566090        0.07267510574264        0.06797131461309
C           14.05278340280082        1.23813755147200        0.22935199562391
C           13.39730188498556        2.52834109408522        0.36563282052446
C           14.34953894767167        3.44777268099409        0.54088106644699
C           15.64199850687449        2.76248593597954        0.53132944094009
N           15.44940694173943        1.38119023383998        0.32058547977522
C           16.84859151055579        3.37598822478781        0.71783840232628
C           16.88866768186466        4.83970510609506        0.97186873455279
C           16.39801465651562        5.37270811120119        2.17068311023841
C           16.46039826536996        6.74094902917966        2.41251455774065
C           17.01085696579140        7.60059091519956        1.45484477094604
C           17.07668719710614        9.01154398763410        1.70270149275524
N           17.12931498596358       10.14379191456510        1.90161259374815
C           17.49821265294647        7.07189502678187        0.25401893389583
C           17.43803713130027        5.70298008934982        0.01691603679408
C           18.11000079962911        2.66238548088291        0.68779992589141
C           19.38377914895703        3.24615441192635        1.09046631999827
C           20.32930324007278        2.31372176890354        0.90334103619493
N           18.26645933664393        1.41037954260711        0.28793248787645
C           19.65021774574165        1.14691760921385        0.38318436193418
C           20.26108692332749       -0.01368268746876       -0.01237058893859
C           19.47991194767625       -1.15680653246893       -0.49738126249663
C           20.02397011625721       -2.17662949498271       -1.22008184099213
C           19.00202719761585       -3.14204029861319       -1.42357535966513
C           17.87190125316801       -2.67302719367838       -0.81531785489972
N           18.10658144354012       -1.39725004280153       -0.24987957484733
C           16.62110389593917       -3.42352618084422       -0.74112911521605
C           16.63963909822071       -4.89521046214896       -0.97696155494683
C           15.94597802286284       -5.46649599267792       -2.05462394245662
C           15.98599962214496       -6.84000049284176       -2.27677751489849
C           16.71620781581332       -7.67122146398179       -1.41961808307819
C           16.76014404169046       -9.08683576729346       -1.64707739530699
N           16.79511686433576      -10.22264307798330       -1.82920344610453
C           17.40524894652613       -7.10801895555272       -0.33938767872169
C           17.36707547597945       -5.73427051654164       -0.12305219949745
C           15.44534009682042       -2.80842211303068       -0.45873718003330
C           14.14530205782409       -3.44674607083796       -0.31571402978618
C           13.26219384913763       -2.46215635061028       -0.09868747876220
C           14.00328068727536       -1.21120275897763       -0.09236961851292
N           15.29392341080567       -1.40856423288183       -0.28925031354595
H           12.29996640645273        0.10909025309908        0.06047653530799
H           12.33335145936745        2.72275350835785        0.32863799781618
H           14.16663005893905        4.50713533721800        0.66313958203054
H           15.97712417634829        4.71591765011250        2.92496710625589
H           16.08331541792056        7.13821201876232        3.34872516693631
H           17.92897243997689        7.72735471048731       -0.49500703739338
H           17.81809139960310        5.30521726845069       -0.91829176927930
H           19.55836760090690        4.23642932670406        1.47826231767785
H           21.38590674481020        2.43561489918972        1.10657780459891
H           21.04778510375165       -2.24231598270012       -1.55354040524806
H           19.09865906921252       -4.08018443402363       -1.94740213461369
H           15.38466344529013       -4.83548334373422       -2.73582664617323
H           15.45195789159757       -7.26414533552041       -3.12078758829098
H           17.97730242369017       -7.74097844755968        0.33061139109625
H           17.90461308885681       -5.31292216424877        0.71956001075873
H           13.91132898332231       -4.50232093304203       -0.36792087822637
H           12.20160135218204       -2.58784460501061        0.05225589202198
Co          30.49158424942924        0.01862868449191        0.00344758824355
C           33.84137684938615       -0.06848621645512        0.07183788251092
C           33.17189456855854       -1.22349050655241        0.29606506797155
C           33.82741345046215       -2.50434993216568        0.50194924344197
C           32.87505218232113       -3.41290168513400        0.72671724862697
C           31.58271070865793       -2.72900130000771        0.68004779434033
N           31.77505326183401       -1.36124989821627        0.39430887953595
C           30.37566680045127       -3.33138470760792        0.89954904184754
C           30.33600683252303       -4.77934264865414        1.23240663121560
C           30.82669794694087       -5.24676918590957        2.45831207204059
C           30.76428838138705       -6.59993936993761        2.77387072733180
C           30.21384882912472       -7.51018797505650        1.86415963218586
C           30.14801045634557       -8.90567317736491        2.18804401009053
N           30.09539752939273      -10.02548819014105        2.44795433019949
C           29.72652768385283       -7.04725279552263        0.63647474207762
C           29.78667869551185       -5.69315031103411        0.32561202088778
C           29.11397386837912       -2.62127382804723        0.83108207678029
C           27.84205089034044       -3.18304695357586        1.26483888338942
C           26.89544350346073       -2.26170212158380        1.02804789929434
N           28.95430378227265       -1.39148635533161        0.36319539711103
C           27.57111258914690       -1.12710640086247        0.44668557276884
C           26.94386948507668        0.01509371316483       -0.01213638688217
C           27.74228878447768        1.13064645537787       -0.55997502943503
C           27.20055557023885        2.10798112935211       -1.33718301813235
C           28.22320500693469        3.06108198924070       -1.59168542962189
C           29.35248384780236        2.62525599863982       -0.95863745614065
N           29.11613030251136        1.38190997797463       -0.32448928622397
C           30.60368052044151        3.37870205614740       -0.92535063482696
C           30.58507279000519        4.83551649741014       -1.24050002931994
C           31.27872860265725        5.34767083742190       -2.34753217159528
C           31.23868919451460        6.70714632412445       -2.64373249513005
C           30.50849438692494        7.58356495070316       -1.83283677027312
C           30.46455779347809        8.98480287263549       -2.13660357502410
N           30.42958914186116       10.10907793075361       -2.37994792497948
C           29.81946111167211        7.07966099462948       -0.72370057086552
C           29.85761092641236        5.71962735385765       -0.43331140570909
C           31.77942154618843        2.77991327696885       -0.61020217059697
C           33.07941711133211        3.42511148081323       -0.50185006950534
C           33.96251253891852        2.45371936574101       -0.23185267741579
C           33.22131798682820        1.20501311047354       -0.15779406137053
N           31.93076311019914        1.39122135118381       -0.36485311634493
H           34.92471298022988       -0.10523342205215        0.06623790740519
H           34.89135379289441       -2.70049436434138        0.47556980979217
H           33.05799223676625       -4.46410449099510        0.90616650123132
H           31.24757318065527       -4.55016444341247        3.17598111158909
H           31.14137931240196       -6.94595520937445        3.73021630798251
H           29.29573815773421       -7.74231292469232       -0.07595346619429
H           29.40659459721262       -5.34665293821711       -0.62975325363230
H           27.66696181053155       -4.15044889302950        1.70563340711426
H           25.83865920165186       -2.37179073378812        1.23689372879481
H           26.17657188849557        2.15565205055039       -1.67292324178197
H           28.12640051556087        3.96942163740605       -2.16545452256597
H           31.84003818066824        4.68073243600844       -2.99360157366330
H           31.77273749527591        7.08498476176185       -3.50946614514811
H           29.24740706362123        7.74797100794800       -0.08895486147523
H           29.32008248184460        5.34454223850785        0.43088376765620
H           33.31338770136219        4.47629380339084       -0.61114357093162
H           35.02310585654757        2.58735268321542       -0.08793485496037
C           22.92012401301657        0.00354149022890        0.00221433143716
C           21.65967894950071       -0.02490350281820       -0.00594774960850
C           24.25661040717237        0.01682885293898        0.00336246964093
C           25.58141638152096        0.01531510945042       -0.01085517324796
120
 energy: -215.548866919085 gnorm: 0.296390001638 xtb: 6.5.1 (b24c23e)
Co          16.75388270758825       -0.00807165746512        0.01334612256735
C           13.38956228818938        0.05142991613887        0.06599680785365
C           14.06678428514861        1.23747496334516        0.22439291514182
C           13.40596428374542        2.51535570860005        0.36313688749652
C           14.36917629598878        3.44161969144632        0.54049671541145
C           15.64411168560829        2.74708294957138        0.52469018395830
N           15.43607006767607        1.39245357607003        0.31625588538998
C           16.87013051126597        3.36483376785579        0.71933652185792
C           16.89642778117647        4.83542343200965        0.97505341121397
C           16.39990261093638        5.37374674839107        2.16636917486563
C           16.46036682592734        6.73620369523401        2.40867666428607
C           17.01070717404246        7.59900861855189        1.45458238627551
C           17.07635214406210        9.00370624210986        1.70144061121898
N           17.12892701356624       10.13669346955743        1.90041996930703
C           17.49707071036422        7.06679637957458        0.25567107718905
C           17.44011373967357        5.70285330838708        0.02321038671637
C           18.09643074855131        2.67537009774530        0.69141688930373
C           19.36121758432464        3.25345174811931        1.08218166555585
C           20.31240029554693        2.30325247877385        0.89613689620824
N           18.27007773250491        1.38577336612396        0.30583523084101
C           19.63767688227631        1.14204738012209        0.39047180014441
C           20.26951823531146       -0.03231398777972       -0.02492099414574
C           19.47231243556204       -1.14569434248933       -0.48701608037071
C           20.02389103772511       -2.20774034752261       -1.21962512320969
C           19.03260337847911       -3.14165273623661       -1.41447416932003
C           17.86330457877034       -2.65429929714967       -0.80292731433496
N           18.11019017970739       -1.38308206790589       -0.27923906162316
C           16.64924078163962       -3.40183609082067       -0.73901135481601
C           16.65658685901370       -4.88128983618482       -0.98422708167968
C           15.95204792715451       -5.46204361718927       -2.04914633643046
C           15.98718564763466       -6.83077437535574       -2.27117703123466
C           16.71628370547233       -7.66741347681293       -1.41892095168567
C           16.75963079248183       -9.07721121991654       -1.64564498086947
N           16.79474081135582      -10.21381070477866       -1.82794462800335
C           17.40364086137804       -7.09998383728663       -0.34066438680887
C           17.37094152251674       -5.73046804535915       -0.13075023511314
C           15.45102028533800       -2.79142823393060       -0.44776296208109
C           14.16193885310241       -3.43065763662009       -0.31656746038395
C           13.25986316607613       -2.44278279907194       -0.10215096106315
C           13.98683847085856       -1.19630428795853       -0.08837325344224
N           15.30867073106002       -1.40962325050904       -0.26858941133169
H           12.30512353645855        0.09953518495734        0.06498412316956
H           12.34110305826321        2.70199427517236        0.32676367487920
H           14.19447066165172        4.50146147252808        0.66484285572729
H           15.97900587141970        4.71556359130439        2.92050183814980
H           16.08416327579175        7.13720152597239        3.34451157775382
H           17.92617981190088        7.72579759821488       -0.49227395136952
H           17.81775910088840        5.30368130414400       -0.91336360274462
H           19.53769951951621        4.24137727157586        1.47314719864320
H           21.37108230634833        2.41541525077091        1.09650825639195
H           21.04702467818198       -2.25260241614988       -1.55471769636700
H           19.10715055233401       -4.07771265994105       -1.94448041367003
H           15.38828818145873       -4.83264420922222       -2.73110295380786
H           15.45363815251817       -7.25933858058788       -3.11482253424937
H           17.97311543380242       -7.73745492448811        0.32878836228693
H           17.90517960725380       -5.31046381595104        0.71554533285483
H           13.93756328070777       -4.48897197791074       -0.37106167934583
H           12.20083061128264       -2.57138121582381        0.05075193516841
Co          30.46913746969658        0.00929785392174        0.01312017727018
C           33.83503788869437       -0.04734075962207        0.06863764566097
C           33.15767521068895       -1.22297732562458        0.29095753347149
C           33.81836949864122       -2.49145610146108        0.49878014313379
C           32.85488000700100       -3.40663572746179        0.72602764481074
C           31.57994559248751       -2.71367544851867        0.67240278612545
N           31.78805243213285       -1.37237454531630        0.39077188182118
C           30.35292866369730       -3.31890967630933        0.89992589735413
C           30.32759654746976       -4.77415982465902        1.23528584503392
C           30.82461159012648       -5.24769610440950        2.45385459419482
C           30.76433622550298       -6.59516652165213        2.76960778826690
C           30.21400241396720       -7.50848751488336        1.86376155428697
C           30.14836230024051       -8.89781186722697        2.18632961298755
N           30.09579392622329      -10.01837489958945        2.44635229261637
C           29.72770681076897       -7.04188553120419        0.63781315821196
C           29.78448501926327       -5.69242829480805        0.33187339505765
C           29.12569069130134       -2.63144131517751        0.83456214035570
C           27.86330636003531       -3.18921360570881        1.25670638459247
C           26.91005221014058       -2.25104231528800        1.02000404618204
N           28.94683347513328       -1.36322496460108        0.37879932475833
C           27.57795286019088       -1.11878699650666        0.45025608751421
C           26.92416597182969        0.02924377973478       -0.02606348139110
C           27.74353350070861        1.11635274220147       -0.54643217336481
C           27.19807021070137        2.13797596965633       -1.33732119583564
C           28.19158901893827        3.05971463782952       -1.58244554092007
C           29.35912945818378        2.60520312653680       -0.94419689851321
N           29.10796643034388        1.36331508088427       -0.35168021687743
C           30.57433065446422        3.35618073414075       -0.92166828215762
C           30.56753549001585        4.82062037868578       -1.24704154930953
C           31.27245247192507        5.34322463063694       -2.34169060115447
C           31.23747422909551        6.69802957665278       -2.63752698832856
C           30.50840907427338        7.57969358258095       -1.83191539584385
C           30.46508376662713        8.97519036047598       -2.13464281241717
N           30.42996778283378       10.10025981715200       -2.37821183616715
C           29.82108854198801        7.07143674819249       -0.72452624715778
C           29.85363721753551        5.71523008545027       -0.44078985374177
C           31.77321383684800        2.76334046230356       -0.59823210195943
C           33.06245025379736        3.40894786180627       -0.50196620457365
C           33.96466730187228        2.43423590259672       -0.23430144836473
C           33.23766659631128        1.19035719533523       -0.15307930624761
N           31.91596304612973        1.39323606041722       -0.34459754862422
H           34.91949695322255       -0.09543061755638        0.07023233591755
H           34.88327935390655       -2.67988198938319        0.47256894047923
H           33.02983681548992       -4.45821355832261        0.90753789138876
H           31.24563531044062       -4.54991401264488        3.17141666051507
H           31.14053454326728       -6.94498120646908        3.72581147959406
H           29.29858602913161       -7.74048490591846       -0.07332432828244
H           29.40685213036531       -5.34481278498220       -0.62500185478654
H           27.68724249033886       -4.15471974774628        1.70061084899767
H           25.85192138863204       -2.35326831003590        1.22646181196886
H           26.17583336633262        2.16642636073592       -1.67532542951986
H           28.11780010405897        3.96615852537767       -2.16226373726542
H           31.83633876945870        4.67802908134364       -2.98866727737503
H           31.77103217300544        7.08034392934904       -3.50315729209586
H           29.25162998844522        7.74427530530578       -0.09058617888905
H           29.31942978212615        5.34184808198521        0.42706617731761
H           33.28692220780029        4.46275831015594       -0.61361526637189
H           35.02373000914461        2.57090225365111       -0.08855832895608
C           22.94679448402135       -0.00512427747678       -0.00061398840445
C           21.70512489880523       -0.04362952419464       -0.01844528999102
C           24.33781003670784        0.02468823462835       -0.00629844505039
C           25.48425684889259        0.03707624108474       -0.01722872827354
120
 energy: -215.575350930791 gnorm: 0.064985263326 xtb: 6.5.1 (b24c23e)
Co          16.76503184322558       -0.00202042102891        0.02009419892768
C           13.39251405581875        0.04659969302178        0.06689001773122
C           14.07297513272529        1.23602691692080        0.21999108713377
C           13.41440324625744        2.50848168652956        0.35993057294330
C           14.38146888788145        3.43602814073392        0.53826879058423
C           15.64742498639222        2.74120654352372        0.52008189470594
N           15.43535684953807        1.39474514281071        0.31025650638731
C           16.87471311992760        3.36091622073834        0.72085299727506
C           16.90255631866762        4.83141185186390        0.97768266602706
C           16.40136560890114        5.37120316550285        2.16477562292187
C           16.45971369605052        6.73246825917934        2.40649822704911
C           17.01037893096421        7.59486876752670        1.45384050816667
C           17.07564294506701        8.99682579576210        1.70023439685928
N           17.12855382359941       10.12880640372249        1.89909015929719
C           17.49730545020186        7.06287539520759        0.25636300079044
C           17.44480247702231        5.69954739848591        0.02697902000611
C           18.08725289479031        2.67430982554655        0.69775098457529
C           19.34745014470527        3.25437689845787        1.07532891655088
C           20.29511966029064        2.29561168380406        0.89152183018581
N           18.25940080697641        1.37166569460027        0.32581048816743