126
 energy: -247.332419853754 gnorm: 0.514651952864 xtb: 6.5.1 (b24c23e)
Fe          14.44809900000000        0.02866900000000        0.00196400000000
C           11.11135300000000       -0.09632800000000       -0.07573200000000
C           11.77455000000000       -1.24766200000000       -0.21845100000000
C           11.12384300000000       -2.54619300000000       -0.34448400000000
C           12.06433200000000       -3.45930000000000       -0.49891500000000
C           13.36975000000000       -2.78466800000000       -0.49008600000000
N           13.19274300000000       -1.37990200000000       -0.30272900000000
C           14.56221800000000       -3.39472700000000       -0.65270000000000
C           14.60960200000000       -4.85662100000000       -0.88195400000000
C           15.12490200000000       -5.70606000000000        0.10614600000000
C           15.18366300000000       -7.08514300000000       -0.11129700000000
C           14.73087500000000       -7.63730400000000       -1.32403700000000
N           14.78674000000000       -9.05749400000000       -1.55067800000000
O           14.34229000000000       -9.59477900000000       -2.73757500000000
O           15.22637600000000       -9.82573400000000       -0.66956500000000
C           14.22163200000000       -6.77875800000000       -2.31437200000000
C           14.16359600000000       -5.39956400000000       -2.09564100000000
C           15.85523100000000       -2.66153700000000       -0.62358700000000
C           17.14181100000000       -3.26062800000000       -1.00014600000000
C           18.07615500000000       -2.34611300000000       -0.83592500000000
N           15.99598100000000       -1.42759400000000       -0.24597900000000
C           17.39317200000000       -1.15221900000000       -0.35229300000000
C           17.98659000000000       -0.00019600000000        0.00005400000000
C           17.22329600000000        1.17474200000000        0.47774500000000
C           17.75572700000000        2.18761600000000        1.14974900000000
C           16.71213700000000        3.17663100000000        1.33787900000000
C           15.61165300000000        2.70417400000000        0.76372700000000
N           15.84455600000000        1.41525700000000        0.19282600000000
C           14.32971400000000        3.44934400000000        0.66967600000000
C           14.34720900000000        4.91704100000000        0.88152200000000
C           13.68506600000000        5.48554400000000        1.97978100000000
C           13.72215800000000        6.86689700000000        2.18827700000000
C           14.42651800000000        7.70349600000000        1.30483700000000
N           14.46128800000000        9.12598500000000        1.52150900000000
O           13.85618400000000        9.67969600000000        2.62699100000000
O           15.04501100000000        9.87915000000000        0.71429700000000
C           15.09708000000000        7.12701500000000        0.21004800000000
C           15.06012400000000        5.74512600000000        0.00318500000000
C           13.16759300000000        2.82322400000000        0.40247900000000
C           11.85743000000000        3.45614000000000        0.25943500000000
C           10.99597600000000        2.47659600000000        0.06626600000000
C           11.74738800000000        1.22246200000000        0.07091200000000
N           13.01390300000000        1.41221400000000        0.26523800000000
H           10.02787100000000       -0.12450800000000       -0.06988500000000
H           10.05969900000000       -2.74407000000000       -0.31534100000000
H           11.87646100000000       -4.51928800000000       -0.61064800000000
H           15.47885900000000       -5.29925900000000        1.04565000000000
H           15.58422900000000       -7.71910300000000        0.66879600000000
H           13.86918700000000       -7.17243500000000       -3.25911900000000
H           13.77229800000000       -4.75366900000000       -2.87197700000000
H           17.31467600000000       -4.26871100000000       -1.35407300000000
H           19.13174700000000       -2.48537800000000       -1.02890200000000
H           18.78232800000000        2.27886800000000        1.47717000000000
H           16.82229100000000        4.13313800000000        1.83303400000000
H           13.14403400000000        4.85703200000000        2.67688800000000
H           13.20021600000000        7.27993200000000        3.04195200000000
H           15.65534800000000        7.74328700000000       -0.48226200000000
H           15.58701200000000        5.31933900000000       -0.84228800000000
H           11.61406000000000        4.50970500000000        0.29977000000000
H            9.92945000000000        2.59486800000000       -0.07391800000000
Fe          30.87986000000000       -0.02767100000000       -0.00899900000000
C           34.21660600000000        0.11734000000000       -0.03415700000000
C           33.55340900000000        1.23818700000000        0.26523900000000
C           34.20411600000000        2.48923700000000        0.63529700000000
C           33.26362700000000        3.39363000000000        0.83451100000000
C           31.95820900000000        2.76490800000000        0.58973600000000
N           32.13521500000000        1.39238000000000        0.23669500000000
C           30.76574100000000        3.39143100000000        0.66773400000000
C           30.71835700000000        4.83262800000000        1.00335600000000
C           30.20305700000000        5.24959600000000        2.23787000000000
C           30.14429600000000        6.60959600000000        2.55339000000000
C           30.59708300000000        7.57620000000000        1.63616800000000
N           30.54121900000000        8.97775600000000        1.95857500000000
O           30.98566900000000        9.92087900000000        1.05973200000000
O           30.10158300000000        9.35956400000000        3.06346200000000
C           31.10632700000000        7.15162600000000        0.39616600000000
C           31.16436200000000        5.79104100000000        0.08179900000000
C           29.47272800000000        2.70081700000000        0.41980700000000
C           28.18614700000000        3.39739400000000        0.29535500000000
C           27.25180400000000        2.48802400000000        0.10468900000000
N           29.33197800000000        1.41531400000000        0.30718600000000
C           27.93478700000000        1.19989300000000        0.10537500000000
C           27.34136800000000       -0.00019600000000        0.00005400000000
C           28.10466200000000       -1.26852700000000        0.00234000000000
C           27.57223200000000       -2.45947700000000        0.24553000000000
C           28.61582200000000       -3.44687600000000        0.04909300000000
C           29.71630600000000       -2.79360500000000       -0.30601700000000
N           29.48340200000000       -1.38466100000000       -0.35197500000000
C           30.99824500000000       -3.44914400000000       -0.67261400000000
C           30.98075000000000       -4.88919300000000       -1.02655000000000
C           31.64289300000000       -5.82802000000000       -0.22158400000000
C           31.60580100000000       -7.18676900000000       -0.54625000000000
C           30.90144099999999       -7.63107700000000       -1.67892500000000
N           30.86667100000000       -9.03102700000000       -2.01143600000000
O           31.47177400000000       -9.95885000000000       -1.19422700000000
O           30.28294800000000       -9.42657100000000       -3.04216100000000
C           30.23087900000000       -6.68615500000000       -2.47768300000000
C           30.26783400000000       -5.32752100000000       -2.15130300000000
C           32.16036600000000       -2.76851600000000       -0.68554700000000
C           33.47052900000000       -3.30162000000000       -1.05547300000000
C           34.33198300000000       -2.32111200000000       -0.86726000000000
C           33.58057100000000       -1.16021900000000       -0.39270400000000
N           32.31405600000000       -1.40899200000000       -0.28370500000000
H           35.30008800000000        0.14127100000000       -0.01817100000000
H           35.26826000000000        2.66174900000000        0.73650900000000
H           33.45149800000000        4.41817800000000        1.12838100000000
H           29.84910000000000        4.52020000000000        2.95629600000000
H           29.74373000000000        6.90480000000000        3.51427800000000
H           31.45877200000000        7.87082200000000       -0.33204000000000
H           31.55566000000000        5.48336500000000       -0.88008100000000
H           28.01328200000000        4.46463600000000        0.34523900000000
H           26.19621100000000        2.68948700000000       -0.02199000000000
H           26.54563000000000       -2.66684100000000        0.51484700000000
H           28.50566700000000       -4.51926000000000        0.14947200000000
H           32.18392400000000       -5.50675000000000        0.66032900000000
H           32.12774200000000       -7.88976300000000        0.09027100000000
H           29.67261000000000       -6.99787700000000       -3.35056000000000
H           29.74094700000000       -4.61578200000000       -2.77543800000000
H           33.71389900000000       -4.29344200000000       -1.41312400000000
H           35.39850899999999       -2.37819200000000       -1.04156400000000
C           23.26790000000000        0.00111600000000        0.00848600000000
C           22.05896000000000       -0.01233900000000        0.00003900000000
C           20.63743100000000       -0.00352000000000       -0.01194400000000
C           19.42576200000000        0.00391900000000       -0.00108100000000
C           24.68450400000000       -0.00555900000000        0.00901900000000
C           25.90520000000000        0.00391900000000       -0.00108100000000
126
 energy: -247.479547952300 gnorm: 0.312528874569 xtb: 6.5.1 (b24c23e)
Fe          14.46152652391166        0.01633635955466       -0.00285389109720
C           11.11228927047950       -0.07681610608041       -0.07443031941307
C           11.78216442404925       -1.24401072634108       -0.21789712690848
C           11.12709515921846       -2.53527006498157       -0.34273241048240
C           12.07969867552815       -3.45775545311107       -0.49947850263090
C           13.37235919076237       -2.77384808124863       -0.48923208504231
N           13.18091639760788       -1.38799616291205       -0.29689949001778
C           14.57915760246163       -3.39088934396286       -0.65443929307016
C           14.61790442543754       -4.85872759102275       -0.88565771664105
C           15.12647784528733       -5.71562722084692        0.09768437419990
C           15.18163805435428       -7.08978928780804       -0.11736528079047
C           14.72875245078339       -7.64081238632768       -1.33017802578099
N           14.78111420366993       -9.06451794633459       -1.55919352584956
O           14.36245040216458       -9.54466644400775       -2.67923628196711
O           15.21583415529923       -9.79971653131206       -0.69140498992405
C           14.22088553495896       -6.78055635401845       -2.31418483428596
C           14.16393525282793       -5.40827034197271       -2.09170779035003
C           15.84551988472834       -2.67876223083045       -0.62526739776342
C           17.12352919942172       -3.27577580605885       -0.99919124348098
C           18.06798268703832       -2.34069546936325       -0.83261940047834
N           15.99903804919694       -1.41962668153766       -0.26109334791879
C           17.38626243510416       -1.15403240826756       -0.35414832393744
C           17.98623772087619        0.01192445800309        0.01030651549055
C           17.21355260790457        1.16939254562751        0.46363935702898
C           17.75817198867776        2.21049744679623        1.15415862351641
C           16.73338834272028        3.18038261040433        1.33803497989643
C           15.60313150906416        2.69430550843098        0.74785642717095
N           15.83719758810351        1.40250087275612        0.21712686892040
C           14.34600207856510        3.43835798839475        0.66719746874005
C           14.35939080942964        4.91300805980899        0.88685189377490
C           13.68776448302884        5.49119969830587        1.97478761736887
C           13.72188971140813        6.86690315346053        2.18719775922707
C           14.42353437435222        7.70624605836789        1.31031656118651
N           14.45810546373571        9.13233460524685        1.53125964904178
O           13.88251270498103        9.62874429244082        2.57165073027189
O           15.02996076458463        9.85315342562435        0.73399890216722
C           15.09341963240888        7.13023152857476        0.21535609589832
C           15.06086866019229        5.75274540105345        0.01164096838097
C           13.17014025003321        2.81673577574892        0.40174943361018
C           11.86701698231828        3.45041609827990        0.26087885023387
C           10.98541010039081        2.46135862796545        0.06578539185457
C           11.72972335108614        1.21147673714413        0.06927579003077
N           13.01946278667429        1.41497956872842        0.25326489542253
H           10.02890538458213       -0.11382589694883       -0.07009546221251
H           10.06272838227715       -2.72900108456946       -0.31342345598980
H           11.89625440873546       -4.51805480651733       -0.61162732754490
H           15.47741656870403       -5.30465059388544        1.03966416023471
H           15.58208378111326       -7.72551059902951        0.66376985556779
H           13.87010715811309       -7.17799286823965       -3.25868793456875
H           13.77439026773178       -4.75782593507310       -2.86814815739844
H           17.29889696208578       -4.27820665125710       -1.35405688318977
H           19.12540214152013       -2.47037246583662       -1.02335343103335
H           18.78234060072716        2.28768597662145        1.48262933119459
H           16.83104786976073        4.13222011217177        1.83666698159336
H           13.14708831727205        4.86027118150893        2.67296982715563
H           13.20160344420529        7.28425341652666        3.04110483738562
H           15.65190250264749        7.74889911547065       -0.47786882646302
H           15.58476380118745        5.32449976289323       -0.83740649151569
H           11.63137143132505        4.50565802203042        0.30176360265590
H            9.92331278951980        2.58186211239643       -0.07530202550048
Fe          30.86638037078333       -0.01441381386500       -0.00884127553574
C           34.21566866790845        0.09876437768354       -0.04026728703567
C           33.54579193728768        1.23459475113489        0.26438238675653
C           34.20086402801779        2.47845204850003        0.63282464315402
C           33.24825919523062        3.39240692332654        0.83340868848948
C           31.95560239644687        2.75455234763287        0.58647230975061
N           32.14703289510501        1.39768694009362        0.24514363578273
C           30.74880211625242        3.38852369393824        0.66468818646020
C           30.71006146977598        4.83596821228058        1.00071455263900
C           30.20148318190884        5.26163732101207        2.23361340711322
C           30.14632142466421        6.61617795573527        2.54950653657460
C           30.59920575857009        7.58175463075260        1.63179015320979
N           30.54684427775367        8.98745998050385        1.95331413955681
O           30.96550889966622        9.85254796367541        1.09502439655141
O           30.11212524158968        9.34363405305430        3.03346007959261
C           31.10707237768733        7.15322276516356        0.39701375940889
C           31.16402367999777        5.79763698973635        0.08870935485940
C           29.48243160328598        2.71746194820702        0.42470396390465
C           28.20448787313402        3.41119698296465        0.30192611072502
C           27.25997899898495        2.48195624453292        0.10570414236621
N           29.32875707824300        1.41362151166603        0.29013703910748
C           27.94146887068324        1.20259203191807        0.10435627437889
C           27.34038973386917       -0.01482311965524        0.00535809715013
C           28.11396033448019       -1.25806128809379       -0.00877145701340
C           27.56968215474898       -2.48225415306861        0.24103895851321
C           28.59453777616717       -3.45032381670328        0.04783442069583
C           29.72474277065590       -2.77837431235294       -0.31703197815728
N           29.49047590364154       -1.38176165283321       -0.32467286822857
C           30.98191700210728       -3.43798025887609       -0.67078069867562
C           30.96855081739802       -4.88742919080907       -1.02008677941922
C           31.64018907694419       -5.83137962706344       -0.22833415669346
C           31.60606823635380       -7.18636323393578       -0.54725349677736
C           30.90442443208113       -7.63567865576000       -1.67487603197424
N           30.86985346457716       -9.04056819933053       -2.00477719871825
O           31.44544545990143       -9.89086440667536       -1.22642468368048
O           30.29799835632842       -9.40985744117560       -3.01414852800316
C           30.23454033084764       -6.69112310003711       -2.47396684675071
C           30.26708760685892       -5.33774887296392       -2.14631759251514
C           32.15780272245632       -2.76221715693158       -0.68378445366269
C           33.46093096832150       -3.29685377305608       -1.05198593046431
C           34.34254226918234       -2.30680711656138       -0.86199114797299
C           33.59822918901134       -1.14942145663162       -0.39010293684179
N           32.30848813343935       -1.40705065122556       -0.29584479041423
H           35.29905284420243        0.13144693432637       -0.02237019641706
H           35.26523070184171        2.64705935588010        0.73263561671012
H           33.43170363252687        4.41740039678202        1.12700992072991
H           29.85054235851731        4.52744225343600        2.95276814829295
H           29.74587492128703        6.91262422942433        3.51202056437456
H           31.45785177921557        7.87581269943912       -0.32955654740137
H           31.55356784605599        5.48578274037144       -0.87497345509001
H           28.02910249682730        4.47351495061771        0.34882514268756
H           26.20254419741457        2.67356817623249       -0.02247000326448
H           26.54556728730121       -2.67709853434404        0.51661794033247
H           28.49691797318055       -4.51971295861881        0.15318313403039
H           32.18086864169739       -5.50828055767433        0.65548231188550
H           32.12635399766604       -7.89344699887226        0.08786452267727
H           29.67605681811606       -7.00472497352274       -3.34859027824283
H           29.74319313282569       -4.62239508287745       -2.77284918605514
H           33.69658184206672       -4.29043665776334       -1.40975691766949
H           35.40464145864192       -2.36561732944481       -1.03796972658513
C           23.27952857573938        0.00092374609259        0.00701812156988
C           22.04899195651464       -0.01059669615513        0.00028336323846
C           20.65196076804558        0.00063546645767       -0.00904938751140
C           19.42494578787916        0.02281220100790        0.00033989142584
C           24.67466262004352       -0.01025256758557        0.01075068829561
C           25.90247973370947       -0.01791014975054       -0.00756024219349
126
 energy: -247.546266531318 gnorm: 0.137585952541 xtb: 6.5.1 (b24c23e)
Fe          14.48375594233714        0.00636825592876       -0.00644457205712
C           11.11842409421703       -0.05535498402021       -0.07273157780045
C           11.79484784920779       -1.24440581008285       -0.21468573379444
C           11.13391123886640       -2.52290302647031       -0.34086448639044
C           12.09756735636439       -3.45313190810059       -0.49995265466712
C           13.37284331557431       -2.76087633382070       -0.48446278522020
N           13.16714608230407       -1.40020289700078       -0.29473432409836
C           14.60027122814803       -3.38245100275191       -0.65562998383604
C           14.62422112588213       -4.85795083840631       -0.88907735942354
C           15.12727984303531       -5.72348387866501        0.08907507666855
C           15.17874928396229       -7.09380676751493       -0.12498522740365
C           14.72583616103645       -7.63995160865437       -1.33684286336317
N           14.77574175509666       -9.08067219263508       -1.58036147350673
O           14.38338359306431       -9.48769922271288       -2.61143946773754
O           15.20790563852378       -9.77298982415235       -0.70349907777678
C           14.21982206965558       -6.78009475484203       -2.31389942962863
C           14.16555740966103       -5.41314125364981       -2.08882071855987
C           15.83363921817133       -2.69681954501677       -0.62904047411864
C           17.10361623206380       -3.28552975304071       -0.99305654619603
C           18.05363127065095       -2.33271729521703       -0.82763878269648
N           16.00508412905194       -1.40325555099164       -0.27675196015348
C           17.37400163292866       -1.15476362450697       -0.36222497500193
C           17.98988359563445        0.03044800922537        0.02068595685350
C           17.20407622463503        1.15910327513839        0.45324965579324
C           17.75624824102235        2.23936202727248        1.15510140811945
C           16.76130375333084        3.17965848775629        1.33124354418449
C           15.59284063787003        2.67834881913079        0.73518518778572
N           15.84023709866392        1.39463192902320        0.24177147175881
C           14.37138191732529        3.42045647856860        0.66622102759205
C           14.37374632934679        4.90397383343825        0.89363587019483
C           13.69235629202499        5.49179482453387        1.97060695223620
C           13.72148685895830        6.86306641554694        2.18538578645839
C           14.41994674584896        7.70386629738737        1.31622492547968
N           14.44730924419248        9.14806215266713        1.54973618268418
O           13.91436296369530        9.56982068090925        2.50925155125871
O           15.02085419670843        9.82556446957789        0.74549548971043
C           15.08962371500468        7.13189165585540        0.22256441049527
C           15.06263334385858        5.75772649543937        0.02127528778939
C           13.17171930286466        2.80425103036397        0.39487633791862
C           11.87973717326610        3.43876840929230        0.26254570623795
C           10.98055718810842        2.44551712684552        0.06844098420103
C           11.71039585429933        1.19901034973216        0.06664166767368
N           13.02907591057562        1.42145964277751        0.23878695650236
H           10.03371232421744       -0.10621665172387       -0.07351057370241
H           10.06909507844489       -2.71106411197021       -0.31143982861616
H           11.91946433280689       -4.51362066978063       -0.61279321763741
H           15.47669776421945       -5.30976653661726        1.03249501306400
H           15.57844455922180       -7.73311953168227        0.65574001848706
H           13.87046561513801       -7.18344940088953       -3.25739741669051
H           13.77592015340461       -4.75998638103640       -2.86449983039374
H           17.28240491792262       -4.28439371380090       -1.35110480062011
H           19.11336807905893       -2.45282300004263       -1.01604192400511
H           18.78090457032228        2.29507288161951        1.48410082989553
H           16.83762406296833        4.12963005721934        1.83531279880345
H           13.14985323268614        4.86096228860262        2.66906628967266
H           13.20250431296857        7.28695655687809        3.03848713390782
H           15.64577987069591        7.75507893761322       -0.47130193843325
H           15.58362165302368        5.32919728792309       -0.83151407990179
H           11.65222004923085        4.49634480310313        0.30424936624063
H            9.92069083435030        2.56890617979187       -0.07510725161064
Fe          30.84417594001983       -0.00384561278470       -0.00843366625920
C           34.20953335344579        0.07823075377333       -0.04673858453544
C           33.53311250314604        1.23375624988947        0.26750688568617
C           34.19405539085649        2.46628606847988        0.62991946966963
C           33.23040591482314        3.38830135919762        0.83123904230712
C           31.95513946755510        2.74075125070536        0.58603488986300
N           32.16080808177989        1.40819801487133        0.25172036951190
C           30.72774302215668        3.38120337421605        0.66042044579603
C           30.70376094330446        4.83656003531264        0.99725970720315
C           30.20068358032827        5.27215820511087        2.22858183681842
C           30.14920863323967        6.62276578127620        2.54395172693303
C           30.60212252908571        7.58345960397237        1.62528984653289
N           30.55221762498680        9.01037558737965        1.93974872312794
O           30.94457477709035        9.77431635240962        1.13651461781248
O           30.12005311747408        9.32339357907573        3.01222667515113
C           31.10813711912741        7.15269776058433        0.39710552301325
C           31.16240815430099        5.80108458088078        0.09321123592654
C           29.49442546258391        2.73570188974800        0.42797606581310
C           28.22444453131154        3.41795700502209        0.31125365718138
C           27.27448168185611        2.47258471596921        0.10736303211231
N           29.32312116234296        1.40442399123182        0.26958148234510
C           27.95441052596172        1.20623250584298        0.09727085722126
C           27.33774331464544       -0.03556083420590        0.00921064118842
C           28.12351366514379       -1.24463304145924       -0.01435478244902
C           27.57157799631511       -2.50933465014447        0.23110792297611
C           28.56659396708654       -3.44709565071012        0.04180399005500
C           29.73498677674496       -2.75882999148419       -0.32281034821335
N           29.48746656582373       -1.38369007817526       -0.29892400621136
C           30.95651957233429       -3.42100378955637       -0.66497422642497
C           30.95417435354292       -4.88158744463653       -1.01040330137966
C           31.63558843104722       -5.83035376059289       -0.23243199495038
C           31.60647061182953       -7.18211761150593       -0.54749522091533
C           30.90801151850011       -7.63568494325657       -1.66850555795794
N           30.88064877111808       -9.06207504157466       -1.99354335023019
O           31.41359545305544       -9.81283984660093       -1.26217567846070
O           30.30710592507352       -9.38859029792661       -2.99314354365469
C           30.23833735928250       -6.69536177304106       -2.46790652588566
C           30.26531728880325       -5.34597624893912       -2.13925123695991
C           32.15621479353926       -2.74807977814973       -0.68547043325053
C           33.44820925271245       -3.28668971663836       -1.04606850880492
C           34.34739153187667       -2.29312604800200       -0.85359119150518
C           33.61755406453216       -1.13688437581069       -0.38787028244109
N           32.29888315575957       -1.40764183635145       -0.31168906480916
H           35.29424555577457        0.12567205466807       -0.02838788474675
H           35.25887018314852        2.62968533196317        0.72774968702970
H           33.40850321755814        4.41372888294448        1.12426818310663
H           29.85126377231022        4.53487550091599        2.94803900294755
H           29.74951243604857        6.92269227107405        3.50743168870580
H           31.45749309770089        7.88039392874188       -0.32631598568688
H           31.55204001195655        5.48642184672176       -0.87078153470709
H           28.04555823140750        4.47816677824651        0.35386390501623
H           26.21466440098099        2.65440437018542       -0.02225622855739
H           26.54696840443022       -2.68448732372677        0.51523914622375
H           28.49030968477375       -4.51677984306324        0.15290226139915
H           32.17810042060619       -5.50745361363774        0.65160632389321
H           32.12545318364922       -7.89496283000858        0.08442436248967
H           29.68218097361943       -7.01291393727444       -3.34481877082170
H           29.74433073164422       -4.62895854494573       -2.76914998557476
H           33.67573404230966       -4.28273930727333       -1.40395994039377
H           35.40725926459127       -2.35368346181843       -1.03293277277182
C           23.28470671960818       -0.00117622221985        0.00530239965787
C           22.04119897362706       -0.00821990638769       -0.00211024510446
C           20.66735704851715        0.00714481729014       -0.00287062848015
C           19.42981704885504        0.04189764305568        0.01138286115242
C           24.65967936573457       -0.01795778179322        0.00956487546191
C           25.89732087788568       -0.03982253642568       -0.00438041181197
126
 energy: -247.565074106221 gnorm: 0.055331104290 xtb: 6.5.1 (b24c23e)
Fe          14.50075996423677       -0.00000243178107       -0.00739319226920
C           11.12495987224663       -0.05304672418077       -0.07538965307574