254
 energy: -460.332398137498 gnorm: 1.597562906350 xtb: 6.5.1 (b24c23e)
Fe          42.03917600000000       -0.01592000000000       -0.00819800000000
C           38.70117900000000        0.10723500000000        0.06388100000000
C           39.36315299999999        1.25667900000000        0.22480200000000
C           38.71228299999999        2.55398600000000        0.36197700000000
C           39.65225199999999        3.46464400000000        0.53466400000000
C           40.95732899999999        2.78922800000000        0.52866800000000
N           40.78054300000000        1.38721000000000        0.32158300000000
C           42.14926300000000        3.39508200000000        0.71032200000000
C           42.19847300000000        4.85354700000000        0.96259200000000
C           41.71579500000000        5.38269000000000        2.17030000000000
C           41.77874800000000        6.75853600000000        2.41078400000000
C           42.32958400000000        7.61508000000000        1.44912300000000
C           42.39559600000000        9.03130300000000        1.69783700000000
N           42.44865500000000       10.16987800000000        1.89788400000000
C           42.81869200000000        7.09007700000000        0.24619000000000
C           42.75537500000000        5.71442100000000        0.00439700000000
C           43.44069600000000        2.65935800000000        0.67880600000000
C           44.72403800000000        3.24443700000000        1.08610000000000
C           45.65884000000000        2.33454300000000        0.90129000000000
N           43.58372500000000        1.43751200000000        0.26521500000000
C           44.97905600000000        1.15680800000000        0.37610500000000
C           45.57361599999999        0.01477400000000       -0.00566600000000
C           44.81040300000000       -1.14531700000000       -0.51709400000000
C           45.34132099999999       -2.13783700000000       -1.21995000000000
C           44.29870400000000       -3.12363400000000       -1.42944500000000
C           43.20079700000000       -2.66974000000000       -0.83593000000000
N           43.43419200000000       -1.39641600000000       -0.23202400000000
C           41.92230300000000       -3.42107700000000       -0.74980800000000
C           41.94556100000000       -4.88661600000000       -0.97735000000000
C           41.26139100000000       -5.45065900000000       -2.06679500000000
C           41.30327299999999       -6.83065600000000       -2.28715900000000
C           42.03492700000000       -7.65753100000000       -1.42555300000000
C           42.07894300000000       -9.07809400000000       -1.65359000000000
N           42.11436700000000      -10.22017700000000       -1.83684600000000
C           42.72665900000000       -7.09858200000000       -0.34363700000000
C           42.68474200000000       -5.71875500000000       -0.12191800000000
C           40.75998200000000       -2.80194300000000       -0.46712400000000
C           39.45269300000000       -3.43971000000000       -0.32014600000000
C           38.59071200000000       -2.46475800000000       -0.10475000000000
C           39.33892200000000       -1.20877900000000       -0.09984100000000
N           40.60394800000000       -1.39310000000000       -0.31009400000000
H           37.61781900000000        0.13506100000000        0.05452400000000
H           37.64893299999999        2.75312700000000        0.32477000000000
H           39.46421700000000        4.52339900000000        0.65592500000000
H           41.29348900000000        4.72891100000000        2.92357100000000
H           41.40066500000000        7.15359100000000        3.34608600000000
H           43.24952100000000        7.74322300000000       -0.50315100000000
H           43.13842100000000        5.31919100000000       -0.92848300000000
H           44.89470500000000        4.24053900000000        1.47288300000000
H           46.71261800000000        2.46654000000000        1.10751300000000
H           46.36709000000000       -2.21823500000000       -1.55398300000000
H           44.40781799999999       -4.06609100000000       -1.95031600000000
H           40.70003700000000       -4.82060800000000       -2.74582700000000
H           40.76854800000000       -7.25189000000000       -3.13001700000000
H           43.29857899999999       -7.72857700000000        0.32703600000000
H           43.22511100000000       -5.29818800000000        0.71739600000000
H           39.21109700000000       -4.49317700000000       -0.37127700000000
H           37.52609400000000       -2.58763500000000        0.04510000000000
Fe          99.65435900000000        0.04528700000000       -0.00985600000000
C          102.99235500000000       -0.07378600000000        0.06878400000000
C          102.33038099999999       -1.21283200000000        0.29169700000000
C          102.98125100000000       -2.50081100000000        0.49890200000000
C          102.04128200000000       -3.40078400000000        0.72063500000000
C          100.73620499999998       -2.72668400000000        0.67808300000000
N          100.91299100000001       -1.33793200000000        0.39540200000000
C           99.54427099999999       -3.32181500000000        0.89227000000000
C           99.49506100000001       -4.76448400000000        1.22312600000000
C           99.97774000000000       -5.22747000000000        2.45770800000000
C           99.91478600000001       -6.58828000000000        2.77232400000000
C           99.36395100000000       -7.49562900000000        1.85844300000000
C           99.29793900000000       -8.89631000000000        2.18346100000000
N           99.24487999999998      -10.02238700000000        2.44485300000000
C           98.87484299999998       -7.03651900000000        0.62885200000000
C           98.93815999999998       -5.67597000000000        0.31294000000000
C           98.25283800000000       -2.58887600000000        0.82097000000000
C           96.96949600000001       -3.15104800000000        1.25934100000000
C           96.03469499999999       -2.25249300000000        1.02554400000000
N           98.10980900000000       -1.39121200000000        0.34184000000000
C           96.71447899999998       -1.10491700000000        0.43737100000000
C           96.11991900000000        0.01477400000000       -0.00566600000000
C           96.88313200000000        1.14547800000000       -0.57914700000000
C           96.35221400000000        2.09849200000000       -1.33470400000000
C           97.39482999999998        3.07150200000000       -1.59725900000000
C           98.49273800000000        2.65040500000000       -0.98004200000000
N           98.25934200000000        1.41164100000000       -0.30808900000000
C           99.77123199999998        3.40530200000000       -0.93472200000000
C           99.74797299999999        4.85637300000000       -1.24126900000000
C          100.43214399999999        5.36061000000000       -2.35965100000000
C          100.39026100000000        6.72665400000000       -2.65440000000000
C           99.65860699999999        7.59896100000000       -1.83882200000000
C           99.61459100000000        9.00509600000000       -2.14342800000000
N           99.57916799999998       10.13558300000000       -2.38824400000000
C           98.96687599999998        7.09940300000000       -0.72823300000000
C           99.00879299999998        5.73360200000000       -0.43214000000000
C          100.93355300000000        2.80238000000000       -0.61893500000000
C          102.24084100000000        3.44716800000000       -0.50669800000000
C          103.10282200000000        2.48530600000000       -0.23883800000000
C          102.35461200000000        1.23143500000000       -0.16594100000000
N          101.08958699999999        1.40410300000000       -0.38586500000000
H          104.07571599999999       -0.10207800000000        0.06094800000000
H          104.04460200000000       -2.70167400000000        0.47253000000000
H          102.22931699999998       -4.45142300000000        0.89903500000000
H          100.40004600000000       -4.53387100000000        3.17448200000000
H          100.29286999999998       -6.93212200000000        3.72764000000000
H           98.44401299999998       -7.72927300000000       -0.08403100000000
H           98.55511400000000       -5.33182200000000       -0.63996800000000
H           96.79882900000000       -4.12475000000000        1.69948200000000
H           94.98091700000001       -2.37313200000000        1.23861000000000
H           95.32644500000001        2.16068900000000       -1.67260000000000
H           97.28571599999999        3.98437900000000       -2.16838700000000
H          100.99349700000000        4.69472400000000       -3.00357900000000
H          100.92498600000000        7.10164100000000       -3.51882600000000
H           98.39495500000000        7.76478200000000       -0.09264900000000
H           98.46842400000000        5.35908900000000        0.42871100000000
H          102.48243700000000        4.49632200000000       -0.61478500000000
H          104.16744000000000        2.61611500000000       -0.09586000000000
C           48.05330100000000        0.02946400000000        0.00461000000000
C           49.51152699999999        0.00762800000000       -0.01326400000000
C           50.64545500000000       -0.01312600000000       -0.01475500000000
C           52.00683700000000       -0.02571600000000       -0.01694600000000
C           53.28105499999999       -0.01540900000000       -0.02171100000000
C           54.46951800000000        0.00338900000000       -0.02786700000000
C           55.82187900000000        0.02817300000000       -0.01199900000000
C           56.92214599999999        0.02946400000000        0.00461000000000
C           66.35032600000000        0.02946400000000        0.00461000000000
C           67.80855200000001        0.00762800000000       -0.01326400000000
C           68.94248000000000       -0.01312600000000       -0.01475500000000
C           70.30386200000000       -0.02571600000000       -0.01694600000000
C           71.57808100000000       -0.01540900000000       -0.02171100000000
C           72.76654300000000        0.00338900000000       -0.02786700000000
C           74.11890400000000        0.02817300000000       -0.01199900000000
C           75.21917200000000        0.02946400000000        0.00461000000000
C           84.64735199999998        0.02946400000000        0.00461000000000
C           86.10557799999999        0.00762800000000       -0.01326400000000
C           87.23950600000001       -0.01312600000000       -0.01475500000000
C           88.60088799999998       -0.02571600000000       -0.01694600000000
C           89.87510700000000       -0.01540900000000       -0.02171100000000
C           91.06356900000000        0.00338900000000       -0.02786700000000
C           92.41593000000000        0.02817300000000       -0.01199900000000
C           93.51619700000001        0.02946400000000        0.00461000000000
Fe          61.68122799999999        0.02548300000000       -0.01876700000000
C           58.24468399999999       -0.02123700000000        0.00479500000000
C           58.90025300000000       -1.13067300000000       -0.38310500000000
C           58.25953000000000       -2.40172000000000       -0.72689000000000
C           59.19602800000000       -3.24888300000000       -1.10492300000000
C           60.49317300000000       -2.56906100000000       -1.02922800000000
N           60.31523799999999       -1.22905900000000       -0.56340100000000
C           61.67760000000000       -3.12489100000000       -1.36251800000000
C           61.71320299999999       -4.50824300000000       -1.89110200000000
C           61.19196899999999       -4.79645200000000       -3.16257500000000
C           61.24074100000000       -6.10061500000000       -3.66402000000000
C           61.81529900000000       -7.12526500000000       -2.90125500000000
C           61.86665200000000       -8.46756300000000       -3.41844400000000
N           61.90806700000000       -9.54671200000000       -3.83424600000000
C           62.34210100000000       -6.84038300000000       -1.63507600000000
C           62.29303699999999       -5.53667800000000       -1.13236300000000
C           62.97455200000000       -2.41561000000000       -1.21909200000000
C           64.24317000000001       -2.91211100000000       -1.76759500000000
C           65.19538300000001       -2.07849200000000       -1.40084200000000
N           63.14232899999999       -1.31868900000000       -0.54825200000000
C           64.54049000000001       -1.03845400000000       -0.61808700000000
C           65.15550000000000       -0.02123700000000        0.00479500000000
C           64.40454099999999        1.00652600000000        0.75563500000000
C           64.93728299999999        1.81084700000000        1.66660500000000
C           63.90501100000000        2.74804400000000        2.06770000000000
C           62.81358500000000        2.45404000000000        1.37032600000000
N           63.03893100000000        1.33879600000000        0.50987200000000
C           61.56039899999999        3.24599300000000        1.39684300000000
C           61.62256100000000        4.65349000000000        1.86186500000000
C           60.91333099999999        5.05951700000000        3.00442400000000
C           60.99009600000000        6.38302200000000        3.44828800000000
C           61.78155799999999        7.31015200000000        2.75895500000000
C           61.86041100000000        8.67263500000000        3.21648400000000
N           61.92377800000000        9.76803500000000        3.58429700000000
C           62.49850200000000        6.90785400000000        1.62517800000000
C           62.42198200000000        5.58465900000000        1.18011700000000
C           60.38891600000000        2.71885500000000        0.99129400000000
C           59.11363200000000        3.42313800000000        0.90575700000000
C           58.22554500000000        2.52776400000000        0.52449300000000
C           58.92267500000000        1.24778100000000        0.35716400000000
N           60.18720799999999        1.35359900000000        0.62499500000000
H           57.20484600000000       -2.63859200000000       -0.68544800000000
H           59.00979100000000       -4.27110300000000       -1.40753400000000
H           60.75060900000000       -4.01070800000000       -3.76339800000000
H           60.83300699999999       -6.30935500000000       -4.64580200000000
H           62.79087600000000       -7.62491800000000       -1.03772400000000
H           62.70473900000000       -5.32756600000000       -0.15254200000000
H           64.39276900000000       -3.80156100000000       -2.36544300000000
H           66.24468500000000       -2.17524400000000       -1.64612200000000
H           65.95913800000000        1.79946000000000        2.02147500000000
H           64.01941200000000        3.56094400000000        2.77309300000000
H           60.30525300000000        4.34977100000000        3.55185100000000
H           60.43521900000000        6.68223400000000        4.32944400000000
H           63.11638600000000        7.61609000000000        1.08631400000000
H           62.98186900000000        5.28568900000000        0.30237900000000
H           58.91003599999999        4.46798300000000        1.10014800000000
H           57.17544400000000        2.72897000000000        0.36108900000000
Fe          79.97825400000001        0.02548300000000       -0.01876700000000
C           76.54170999999999       -0.02123700000000        0.00479500000000
C           77.19727899999999       -1.13067300000000       -0.38310500000000
C           76.55655600000000       -2.40172000000000       -0.72689000000000
C           77.49305399999999       -3.24888300000000       -1.10492300000000
C           78.79019800000000       -2.56906100000000       -1.02922800000000
N           78.61226300000000       -1.22905900000000       -0.56340100000000
C           79.97462499999999       -3.12489100000000       -1.36251800000000
C           80.01022900000000       -4.50824300000000       -1.89110200000000
C           79.48899499999999       -4.79645200000000       -3.16257500000000
C           79.53776699999999       -6.10061500000000       -3.66402000000000
C           80.11232500000000       -7.12526500000000       -2.90125500000000
C           80.16367800000000       -8.46756300000000       -3.41844400000000
N           80.20509199999999       -9.54671200000000       -3.83424600000000
C           80.63912699999999       -6.84038300000000       -1.63507600000000
C           80.59006200000000       -5.53667800000000       -1.13236300000000
C           81.27157699999999       -2.41561000000000       -1.21909200000000
C           82.54019599999998       -2.91211100000000       -1.76759500000000
C           83.49240899999999       -2.07849200000000       -1.40084200000000
N           81.43935500000001       -1.31868900000000       -0.54825200000000
C           82.83751500000000       -1.03845400000000       -0.61808700000000
C           83.45252600000001       -0.02123700000000        0.00479500000000
C           82.70156700000000        1.00652600000000        0.75563500000000
C           83.23430900000000        1.81084700000000        1.66660500000000
C           82.20203599999999        2.74804400000000        2.06770000000000
C           81.11061100000001        2.45404000000000        1.37032600000000
N           81.33595600000000        1.33879600000000        0.50987200000000
C           79.85742500000001        3.24599300000000        1.39684300000000
C           79.91958699999999        4.65349000000000        1.86186500000000
C           79.21035700000000        5.05951700000000        3.00442400000000
C           79.28712200000000        6.38302200000000        3.44828800000000
C           80.07858400000001        7.31015200000000        2.75895500000000
C           80.15743699999999        8.67263500000000        3.21648400000000
N           80.22080400000000        9.76803500000000        3.58429700000000
C           80.79552800000000        6.90785400000000        1.62517800000000
C           80.71900699999999        5.58465900000000        1.18011700000000
C           78.68594199999998        2.71885500000000        0.99129400000000
C           77.41065700000000        3.42313800000000        0.90575700000000
C           76.52257000000000        2.52776400000000        0.52449300000000
C           77.21970099999999        1.24778100000000        0.35716400000000
N           78.48423400000000        1.35359900000000        0.62499500000000
H           75.50187199999999       -2.63859200000000       -0.68544800000000
H           77.30681599999998       -4.27110300000000       -1.40753400000000
H           79.04763499999999       -4.01070800000000       -3.76339800000000
H           79.13003200000000       -6.30935500000000       -4.64580200000000
H           81.08790199999999       -7.62491800000000       -1.03772400000000
H           81.00176500000001       -5.32756600000000       -0.15254200000000
H           82.68979400000001       -3.80156100000000       -2.36544300000000
H           84.54171100000001       -2.17524400000000       -1.64612200000000
H           84.25616400000000        1.79946000000000        2.02147500000000
H           82.31643699999998        3.56094400000000        2.77309300000000
H           78.60227900000000        4.34977100000000        3.55185100000000
H           78.73224399999999        6.68223400000000        4.32944400000000
H           81.41341100000000        7.61609000000000        1.08631400000000
H           81.27889500000001        5.28568900000000        0.30237900000000
H           77.20706100000000        4.46798300000000        1.10014800000000
H           75.47247000000000        2.72897000000000        0.36108900000000
254
 energy: -460.840661346173 gnorm: 0.650114237902 xtb: 6.5.1 (b24c23e)
Fe          42.04834453694323       -0.01174379406923       -0.00649035515953
C           38.70225679816114        0.09420560298395        0.06260624612930
C           39.36938433641889        1.25739796650317        0.22506076232995
C           38.71184995411854        2.54848316638462        0.36097169838747
C           39.65991256335666        3.46590563753900        0.53518987901468
C           40.95628252425408        2.78211435851544        0.52743645669367
N           40.77167059501944        1.39363671839097        0.32019674078100
C           42.16060468923127        3.39145290863741        0.71161574863165
C           42.20159504456262        4.85459295930087        0.96385502429749
C           41.71638277672709        5.38564882446656        2.16780740417331
C           41.77907068779162        6.75646847772630        2.40894330398449
C           42.32965107513630        7.61630976978214        1.44933771726542
C           42.39558885637250        9.03045861726667        1.69770438329584
N           42.44839365931886       10.16457932006749        1.89695097873476
C           42.81784479149557        7.08768426108318        0.24704261512650
C           42.75513487568549        5.71671207823037        0.00757474559618
C           43.43490931201622        2.66997965939638        0.68059259981806
C           44.71478306835767        3.25183218216669        1.08581145316237
C           45.65918451034702        2.32914032515392        0.90041364375634
N           43.58643894318999        1.43077156774269        0.26558471657653
C           44.98626297611160        1.15338687622867        0.37535554145200
C           45.56569643307424        0.00477914839668       -0.01068378142555
C           44.80949777552756       -1.13365043295539       -0.50624262254740
C           45.34262672476256       -2.15286289939090       -1.22756925899873
C           44.31495113940979       -3.12399323383454       -1.43215116885422
C           43.19127020764410       -2.66207771510623       -0.82573284237958
N           43.43116321365517       -1.39387221404305       -0.23690678845588
C           41.93176843025771       -3.41505050379165       -0.74938670251156
C           41.94967841779149       -4.88556318609086       -0.97928156048842
C           41.26257543560852       -5.45291216485996       -2.06410960097483
C           41.30394869644405       -6.82823856112592       -2.28533629441096
C           42.03496788784470       -7.65871065688572       -1.42573973448248
C           42.07897371837995       -9.07724733488082       -1.65349893807544
N           42.11417201354219      -10.21484144758509       -1.83598124723162
C           42.72545743311257       -7.09594162186840       -0.34426524271518
C           42.68407303425568       -5.72061653232478       -0.12492391419809
C           40.75932556278725       -2.79946247738731       -0.46664652570528
C           39.45882358996295       -3.43961641828410       -0.32110197756836
C           38.58446583523269       -2.45602932550379       -0.10368572886328
C           39.32591368696396       -1.20084876515288       -0.09870259914477
N           40.60863751495287       -1.39715588566081       -0.30725297157486
H           37.61833652854391        0.13212785385765        0.05464906610918
H           37.64926880920864        2.74857618669077        0.32417107290059
H           39.46988322096032        4.52354059165385        0.65634285388911
H           41.29419567826601        4.72930627908375        2.92232258369211
H           41.40112738823164        7.15347966158720        3.34520014150647
H           43.24902568161598        7.74291074112521       -0.50237079580560
H           43.13781833314545        5.31926697114228       -0.92719693911353
H           44.89019421779395        4.24282563761661        1.47280411901728
H           46.71229862392581        2.46127559088956        1.10556630701008
H           46.36730961033265       -2.22063849402593       -1.55542025860362
H           44.41045728288737       -4.06547035498610       -1.95132028054342
H           40.70096096347686       -4.82087453016070       -2.74473424167424
H           40.76918355636483       -7.25163176938561       -3.12917719939868
H           43.29792084537269       -7.72817030848558        0.32632524835856
H           43.22435608535466       -5.29824372295608        0.71627061223564
H           39.21632794450180       -4.49257196545924       -0.37195488476451
H           37.52437049418187       -2.58374589775001        0.04568737481884
Fe          99.64560267105119        0.04115993296036       -0.00794914608802
C          102.99131097783292       -0.06091085427704        0.06684359226554
C          102.32425201779633       -1.21347453903506        0.29210230163981
C          102.98166975354135       -2.49530922613292        0.49759393689290
C          102.03356069293069       -3.40199306354330        0.72123644291961
C          100.73716844040840       -2.71982126831023        0.67649499775589
N          100.92162133154463       -1.34414493154358        0.39418259850223
C           99.53311392302786       -3.31826124541302        0.89322069850029
C           99.49199021574269       -4.76547691117512        1.22445250522658
C           99.97715689014935       -5.23057153627555        2.45538736621705
C           99.91445960837603       -6.58631898231833        2.77038182039917
C           99.36388442265215       -7.49684696163664        1.85872605578916
C           99.29794681130168       -8.89546999212918        2.18328169664888
N           99.24514025084112      -10.01714870620406        2.44363585026305
C           98.87569026310909       -7.03407836970585        0.62957189283968
C           98.93840222517930       -5.67808493888676        0.31624216713860
C           98.25851135589784       -2.59936255096247        0.82322279690263
C           96.97880642913123       -3.15841204566753        1.25953086944535
C           96.03440097857552       -2.24709304846031        1.02414614852596
N           98.10689103277790       -1.38456308611670        0.34246248858242
C           96.70745532227781       -1.10130354470227        0.43654039680909
C           96.12573581227002        0.02411659389183       -0.01139201245740
C           96.88433913080659        1.13456202367818       -0.56740350268667
C           96.35092475308539        2.11272422398851       -1.34267202142188
C           97.37907210806247        3.07183068676246       -1.60001658068950
C           98.50220370970965        2.64362433669160       -0.96951048848250
N           98.26219788553665        1.40846357397496       -0.31340975689008
C           99.76192534705265        3.39943555818426       -0.93399087967490
C           99.74390637293455        4.85526083198553       -1.24307808434071
C          100.43096167250842        5.36300776716645       -2.35708427967269
C          100.38957761692717        6.72433738011953       -2.65245314325280
C           99.65856636132776        7.60013163123121       -1.83907310497172
C           99.61456408943594        9.00425298249660       -2.14328861643753
N           99.57936047445847       10.13030393353676       -2.38709427734792
C           98.96806863388842        7.09673514946110       -0.72871832521824
C           99.00945690066098        5.73531550581275       -0.43523592888679
C          100.93418374450273        2.80002333763022       -0.61840333811336
C          102.23473373723239        3.44704054720791       -0.50764813055401
C          103.10906868111957        2.47668309372928       -0.23731691943434
C          102.36757423538427        1.22363409826884       -0.16436707002585
N          101.08502244716176        1.40830876449229       -0.38325117296486
H          104.07520996540025       -0.09915447082084        0.06088499215828
H          104.04425790032748       -2.69715562982557        0.47167134063454
H          102.22365121159089       -4.45153067285030        0.89945624488460
H          100.39933930066343       -4.53433519939352        3.17325774776877
H          100.29240815904319       -6.93206261745483        3.72675240914706
H           98.44450875111212       -7.72891840146097       -0.08326945231553
H           98.55571774308446       -5.33182803539574       -0.63867786595590
H           96.80337199725385       -4.12704196060838        1.69955012732097
H           94.98135880749683       -2.36807893958040        1.23644038728845
H           95.32630529784133        2.16294519505693       -1.67414915850945
H           97.28316091359477        3.98372529372457       -2.16941130793748
H          100.99257426581283        4.69504860349340       -3.00249889635143
H          100.92435029148471        7.10142797883304       -3.51797370130501
H           98.39561262893633        7.76434028171548       -0.09333579914572
H           98.46917968081458        5.35908550289244        0.42758495258619
H          102.47721676272650        4.49568767429269       -0.61543124742897
H          104.16916345329265        2.61226556044163       -0.09505558046183
C           48.07209135406044        0.02967710259197        0.00419624170076
C           49.42597509042994        0.00731625403111       -0.01315861114532
C           50.68670549483524       -0.01363128888517       -0.01458138611468
C           51.97678455255195       -0.02553726179890       -0.01692221335999
C           53.25571115800043       -0.01562654627383       -0.02182299979646
C           54.47165471746848        0.00388034893836       -0.02806077788164
C           55.76565195464903        0.02784241647907       -0.01307261574264
C           56.96207302814958        0.03149432585142        0.00730274639473
C           66.41655125974239        0.03689995943876        0.00752825997755
C           67.74618000429780        0.00896440881960       -0.01287334365626
C           68.98758552408638       -0.01350083953679       -0.01470071163906
C           70.28047587985532       -0.02590336653772       -0.01710564745994