114
 energy: -201.501465469255 gnorm: 1.302459972260 xtb: 6.5.1 (b24c23e)
Fe          11.25491200000000        0.00863300000000        0.00087600000000
C            7.88887800000000       -0.10551900000000       -0.03106100000000
C            8.55181600000000       -1.26394500000000        0.02649200000000
C            7.90018100000000       -2.56687500000000        0.08530300000000
C            8.84003900000000       -3.48724700000000        0.19223000000000
C           10.14620100000000       -2.81447200000000        0.20618200000000
N            9.97004100000000       -1.40155800000000        0.09624700000000
C           11.33509600000000       -3.43240400000000        0.35972300000000
C           11.37087100000000       -4.90359600000000        0.51006800000000
C           11.57614400000000       -5.48005600000000        1.77060600000000
C           11.60481400000000       -6.87135900000000        1.89160500000000
N           11.43215200000000       -7.65518700000000        0.79388000000000
C           11.23021200000000       -7.12023600000000       -0.43987600000000
C           11.19687300000000       -5.73356600000000       -0.60564400000000
C           12.62933800000000       -2.70165400000000        0.39961300000000
C           13.91935400000000       -3.33934600000000        0.68907800000000
C           14.85398300000000       -2.41510500000000        0.60529900000000
N           12.77119500000000       -1.43749200000000        0.14046500000000
C           14.17035700000000       -1.17737500000000        0.25232300000000
C           14.76674300000000       -0.00020600000000        0.00005700000000
C           14.00888000000000        1.21566000000000       -0.37324300000000
C           14.55217400000000        2.28911300000000       -0.93310600000000
C           13.50950200000000        3.28868600000000       -1.05120100000000
C           12.39784700000000        2.76191400000000       -0.55217200000000
N           12.62259700000000        1.42485900000000       -0.10170700000000
C           11.11274000000000        3.49516800000000       -0.41526300000000
C           11.13558800000000        4.97780900000000       -0.46245800000000
C           10.47387500000000        5.67174200000000       -1.48600400000000
C           10.51808500000000        7.06764900000000       -1.50879300000000
N           11.20472000000000        7.74483400000000       -0.55004100000000
C           11.86392200000000        7.09695100000000        0.44649300000000
C           11.84502100000000        5.70161700000000        0.50695000000000
C            9.94584900000000        2.84638900000000       -0.23794300000000
C            8.63364200000000        3.46268500000000       -0.04807900000000
C            7.77140200000000        2.46915400000000        0.04572800000000
C            8.52379300000000        1.22120800000000       -0.06964900000000
N            9.79215600000000        1.42837600000000       -0.23513400000000
H            6.80572800000000       -0.13350100000000       -0.03125600000000
H            6.83579500000000       -2.76141100000000        0.06015500000000
H            8.65150300000000       -4.55022800000000        0.26982400000000
H           11.71254600000000       -4.85864500000000        2.64705000000000
H           11.76362800000000       -7.32850300000000        2.85906500000000
H           11.09503900000000       -7.77179700000000       -1.29280300000000
H           11.03543800000000       -5.31057500000000       -1.58937500000000
H           14.09744900000000       -4.38006800000000        0.92381500000000
H           15.91174000000000       -2.57823000000000        0.75933700000000
H           15.58535300000000        2.41421800000000       -1.22676300000000
H           13.62748600000000        4.28779900000000       -1.44897700000000
H            9.93323100000000        5.13706900000000       -2.25627500000000
H           10.00742600000000        7.61311400000000       -2.29111600000000
H           12.40217900000000        7.66520200000000        1.19363300000000
H           12.37051500000000        5.19051600000000        1.30418500000000
H            8.38911800000000        4.51502500000000        0.01274800000000
H            6.70428200000000        2.57366400000000        0.19197300000000
Fe          26.93523200000000       -0.00842400000000        0.00341000000000
C           30.30126600000000        0.09151100000000       -0.06033500000000
C           29.63832800000000        1.21663000000000       -0.34206300000000
C           30.28996400000000        2.48037700000000       -0.66460000000000
C           29.35010600000000        3.39207900000000       -0.82987700000000
C           28.04394300000000        2.75242300000000       -0.62092800000000
N           28.22010300000000        1.36858000000000       -0.31533100000000
C           26.85504800000000        3.38830200000000       -0.65367400000000
C           26.81927300000000        4.83965400000000       -0.93755100000000
C           26.61400000000000        5.75769600000000        0.10093900000000
C           26.58533000000000        7.12407800000000       -0.18779000000000
N           26.75799200000000        7.55490000000000       -1.46598300000000
C           26.95993300000000        6.68436000000000       -2.49091600000000
C           26.99327200000000        5.30939500000000       -2.24636900000000
C           25.56080700000000        2.70071500000000       -0.40305200000000
C           24.27079000000000        3.39501900000000       -0.31149200000000
C           23.33616200000000        2.48634400000000       -0.12294200000000
N           25.41895000000000        1.41581700000000       -0.28347000000000
C           24.01978700000000        1.19945700000000       -0.10081900000000
C           23.42340100000000       -0.00020600000000        0.00005700000000
C           24.18126500000000       -1.27208100000000       -0.00362300000000
C           23.63797100000000       -2.46193700000000       -0.22721100000000
C           24.68064300000000       -3.45266600000000       -0.04959400000000
C           25.79229800000000       -2.80356400000000        0.27472800000000
N           25.56754700000000       -1.39329800000000        0.31700500000000
C           27.07740400000000       -3.46534000000000        0.61890500000000
C           27.05455700000000       -4.89765700000000        1.00480500000000
C           27.71626900000000       -5.85919500000000        0.22722300000000
C           27.67205900000000       -7.20143000000000        0.61125800000000
N           26.98542500000000       -7.57062000000000        1.72547700000000
C           26.32622300000000       -6.66099500000000        2.49060200000000
C           26.34512400000000       -5.30835800000000        2.14277400000000
C           28.24429500000000       -2.79303200000000        0.59994300000000
C           29.55650199999999       -3.32750600000000        0.96078500000000
C           30.41874300000000       -2.34962000000000        0.76168500000000
C           29.66635100000000       -1.18912400000000        0.28847000000000
N           28.39798800000000       -1.43545600000000        0.19036400000000
H           31.38441600000000        0.11822800000000       -0.06865700000000
H           31.35434900000000        2.65919900000000       -0.74522100000000
H           29.53864200000000        4.43170300000000       -1.06468000000000
H           26.47759800000000        5.41794100000000        1.12019000000000
H           26.42651600000000        7.84275000000000        0.60497200000000
H           27.09510500000000        7.05980100000000       -3.49643200000000
H           27.15470699999999        4.61867100000000       -3.06462900000000
H           24.09269600000000        4.45903200000000       -0.38946800000000
H           22.27840399999999        2.68720700000000       -0.02298400000000
H           22.60479200000000       -2.66701400000000       -0.47181100000000
H           24.56265800000000       -4.52426800000000       -0.13971000000000
H           28.25691300000000       -5.57156300000000       -0.66522300000000
H           28.18271900000000       -7.95078100000000        0.02131400000000
H           25.78796600000000       -6.98748000000000        3.37067900000000
H           25.81963000000000       -4.58755100000000        2.75697700000000
H           29.80102600000000       -4.31670500000000        1.32493600000000
H           31.48586200000000       -2.40709700000000        0.93199700000000
C           19.69891600000000        0.00089700000000        0.00854700000000
C           18.48997700000000       -0.01255800000000        0.00009900000000
C           17.06844800000000       -0.00373900000000       -0.01188400000000
C           15.85677800000000        0.00370000000000       -0.00102100000000
C           21.11552000000000       -0.00577800000000        0.00908000000000
C           22.33621600000000        0.00370000000000       -0.00102100000000
114
 energy: -201.815092323724 gnorm: 0.322360864705 xtb: 6.5.1 (b24c23e)
Fe          11.25736639203534        0.00587760965264       -0.00175629887414
C            7.89008483732827       -0.09132120433145       -0.03119531682766
C            8.55852317729033       -1.26403403102198        0.02684281080624
C            7.90013047681059       -2.56020321734188        0.08455153284961
C            8.84919813709885       -3.48827006846553        0.19259655809035
C           10.14542520027005       -2.80668833804675        0.20494772730972
N            9.96156171465974       -1.40862769224700        0.09648614749652
C           11.34744060233957       -3.42932300665160        0.36049873218176
C           11.37339496218235       -4.90410382038958        0.51042011152820
C           11.57661069491320       -5.48238897616583        1.76684290592567
C           11.60251121699666       -6.86944792440140        1.87788084793575
N           11.43213732454710       -7.65421752230826        0.79376336994311
C           11.23214234595104       -7.11524627604230       -0.42675688771583
C           11.19692722620665       -5.73462034948067       -0.60109261792853
C           12.61879570247556       -2.72100814974610        0.40194337321673
C           13.90557322118903       -3.35056498037508        0.68871757752500
C           14.84788715148564       -2.40736320030224        0.60293778557144
N           12.76328296493622       -1.43852504210579        0.14614840088766
C           14.13109471565850       -1.19505552002037        0.25758954366085
C           14.67177475583735        0.00951394055825       -0.00268722614505
C           13.97314447111502        1.21696980310251       -0.36882179106610
C           14.54988246453463        2.30519315075551       -0.93701347007629
C           13.52448935974940        3.29187089272532       -1.05322350905697
C           12.38528395306801        2.75581074885265       -0.54273140768567
N           12.61012455665443        1.42678861131254       -0.11179947912637
C           11.12255615501231        3.48868830614067       -0.41486245041956
C           11.14052024977373        4.97483206695881       -0.46443036135646
C           10.47570199104442        5.67231093473609       -1.48144996275612
C           10.52573607181541        7.06376103402920       -1.49723743384903
N           11.20465410485702        7.74372897318055       -0.55020486095942
C           11.85571677551876        7.09279816343031        0.43555143164572
C           11.84363883917827        5.70240825392036        0.50304861156382
C            9.94542004680255        2.84352847515040       -0.23757226175652
C            8.64045307032897        3.46209542754572       -0.04917141438108
C            7.76415646683995        2.45908219793640        0.04551224596535
C            8.51012760521834        1.21290732767242       -0.06913350795359
N            9.79661473571126        1.43235882462636       -0.22901968781308
H            6.80629578984338       -0.12960714156418       -0.03115150964618
H            6.83627264158394       -2.75522841590821        0.05949168552829
H            8.65916024639857       -4.55029248036289        0.26989948367714
H           11.71224381681427       -4.85936538185299        2.64536234117230
H           11.76234185146475       -7.33063628899772        2.85164111112984
H           11.09636752815892       -7.77219442240832       -1.28507309092054
H           11.03595072116134       -5.31077169604952       -1.58746573714842
H           14.09169544846743       -4.38423803706282        0.92402634188036
H           15.90876105113586       -2.56910452351786        0.75735567988881
H           15.58441757793452        2.41537707539810       -1.22768709925736
H           13.63116220705221        4.28811816384514       -1.45063382318763
H            9.93429498865515        5.13729848767540       -2.25490228398257
H           10.01194747234618        7.61423042060803       -2.28472168071737
H           12.39773404635572        7.66612340041008        1.18709790991849
H           12.36963993075353        5.19078801459841        1.30272265606865
H            8.39608337690465        4.51420619458585        0.01174751658543
H            6.70178058474437        2.56838845910136        0.19205344494613
Fe          26.93278191467555       -0.00654640432765        0.00009275453675
C           30.30005894808321        0.07789025407826       -0.05633618128641
C           29.63162167391622        1.21682053395884       -0.34175336725838
C           30.29001710954727        2.47377500608752       -0.66337978714443
C           29.34094706945061        3.39316401228963       -0.82982253317486
C           28.04472612507297        2.74461481884799       -0.61984472367721
N           28.22857927669698        1.37541048194107       -0.31716618159852
C           26.84270175104357        3.38559111197134       -0.65203317942738
C           26.81675227896140        4.84024411952432       -0.93736175251770
C           26.61353394051883        5.75883407767843        0.09666055351556
C           26.58763298158367        7.11825935260380       -0.20036563321973
N           26.75800707625901        7.55393828982107       -1.46581283364126
C           26.95800199637957        6.68340015199768       -2.47691302563257
C           26.99321805030975        5.31172698071377       -2.24232158756921
C           25.57136459100106        2.71998894636577       -0.40644780486290
C           24.28464333227566        3.40568665112047       -0.31510192591293
C           23.34233782332618        2.47822325698828       -0.12294538907038
N           25.42689639818200        1.41847615358339       -0.27836214312875
C           24.05924907483892        1.21804875479922       -0.10105636327603
C           23.51796813565084       -0.01058949747835       -0.00027638098839
C           24.21685802179005       -1.27223076706387        0.00087952460648
C           23.64021012753909       -2.47850462207324       -0.22628507254381
C           24.66566289945161       -3.45631128020360       -0.05059537235055
C           25.80483443408971       -2.79496224270129        0.28198413633526
N           25.57991319818565       -1.39804538803858        0.30791107333836
C           27.06759196294270       -3.45901619471273        0.61740453165145
C           27.04962374484557       -4.89537895417041        1.00205174935890
C           27.71444211314830       -5.85841436912259        0.23174580275225
C           27.66440792263422       -7.19434993112452        0.62118405495665
N           26.98549084256195       -7.56960964147202        1.72499874244912
C           26.33442842454998       -6.66020254571843        2.47892573948382
C           26.34650553540767       -5.31024864931347        2.13927116474868
C           28.24472307533149       -2.79019063404368        0.59946455347016
C           29.54969170344827       -3.32726099123911        0.95956931574400
C           30.42598759120837       -2.34004791244536        0.75855112461106
C           29.68001244180799       -1.18103589983284        0.28655101703859
N           28.39353139992416       -1.43748394030207        0.19737184153393
H           31.38384807515502        0.11453291871719       -0.06742545485489
H           31.35387260613687        2.65309040951908       -0.74405796068274
H           29.53098443945593        4.43178612032210       -1.06462622827203
H           26.47790004363217        5.41813940122843        1.11836567922772
H           26.42780201711777        7.84263243416917        0.59724838074016
H           27.09377650211807        7.06242833789303       -3.48915126490496
H           27.15419422574121        4.61941422719280       -3.06285957987922
H           24.09845519567864        4.46309401007755       -0.39047769514221
H           22.28141717222203        2.67787700595849       -0.02223081016607
H           22.60569683779897       -2.66839608353466       -0.47236205010246
H           24.55898619042578       -4.52505845625898       -0.14119938498874
H           28.25584899330264       -5.57138338834785       -0.66384307248061
H           28.17819738131661       -7.94998984075314        0.02775676494705
H           25.79241109052168       -6.99026139347903        3.36469389074680
H           25.82050490938781       -4.58823629674982        2.75565708219671
H           29.79406104243863       -4.31621288573603        1.32374088289217
H           31.48836335033601       -2.40202611370430        0.93054022743349
C           19.70320890532864        0.00080370306162        0.00794408188518
C           18.48603571563733       -0.01210830889215        0.00039789817757
C           17.14265759110576       -0.00092186285873       -0.01121908461294
C           15.95282873939631        0.01724725405328       -0.00465969510907
C           21.04511901507992       -0.00961642271827        0.01187352030790
C           22.23629595681676       -0.00908410948751       -0.00050128349980
114
 energy: -201.884128466430 gnorm: 0.164489316149 xtb: 6.5.1 (b24c23e)
Fe          11.25601679118893       -0.00209467388177       -0.01153307470355
C            7.89217664441760       -0.07368443286266       -0.03031111306730
C            8.56525520093743       -1.25926212228635        0.02704432873907
C            7.90671594343351       -2.54766440982370        0.08303475144101
C            8.86480268496141       -3.48261369877822        0.19173487553938
C           10.14640640550031       -2.79651144841959        0.20255099555396
N            9.94896552345500       -1.41771633586298        0.09713993194234
C           11.35702807231590       -3.42658862501288        0.36153287392081
C           11.37672343269040       -4.90184815833008        0.51094361447432
C           11.57882806938323       -5.48476633567306        1.76000447076059
C           11.59955601816220       -6.86850325650107        1.85867983888557
N           11.43218871393288       -7.65726044754620        0.79411173754305
C           11.23431255985187       -7.10913667072275       -0.40756887333037
C           11.19694093839414       -5.73423988798982       -0.59265308697740
C           12.59839246328194       -2.74620947942333        0.40926738736712
C           13.87996841956579       -3.36577501960101        0.68539481199538
C           14.82002057191790       -2.40035268674537        0.60010076687970
N           12.74416813635817       -1.44198551554734        0.16945468705850
C           14.09502699074613       -1.19833009031947        0.26428475641345
C           14.62748288096798        0.03038727733789       -0.01063887273258
C           13.93716220579907        1.21964910661813       -0.36490072661616
C           14.53897969735088        2.32884918700919       -0.93460974406438
C           13.54022768029453        3.29906994841958       -1.04580718811838
C           12.37305259265827        2.75232461466674       -0.53447438770376
N           12.58628206067016        1.42670142787167       -0.14628395167958
C           11.13714989252940        3.47386919411767       -0.41230879988954
C           11.15478073954045        4.96125688589086       -0.47115342966831
C           10.48139781655131        5.66653711516917       -1.47310285141542
C           10.53627901911879        7.05474906593442       -1.47934347018799
N           11.20463093134032        7.74286820779468       -0.55040914153810
C           11.84380808796964        7.08465290937303        0.41970090078478
C           11.84499551565372        5.69799351546235        0.49344056535369
C            9.94702054038268        2.83093631134492       -0.23072074127635
C            8.64961666911503        3.44913784721470       -0.05114728095091
C            7.75644138099272        2.44375502831474        0.04196258917593
C            8.49470332238226        1.20311341770696       -0.06513721263791
N            9.80025846342668        1.43252678338491       -0.20769423717652
H            6.80837998798836       -0.11720899634217       -0.02965321702673
H            6.84187229458602       -2.73400657962344        0.05699990321511
H            8.68636416124339       -4.54619670936348        0.26936141959429
H           11.71204475271312       -4.86334287603086        2.64004418109521
H           11.75816423144875       -7.33767179623488        2.82927308026619
H           11.10025248577840       -7.77302120270666       -1.26145626080302
H           11.03760836932116       -5.31232172115537       -1.58028055186217
H           14.07027070036253       -4.39820657980001        0.92197544246561
H           15.88485063862785       -2.54275144619780        0.75005524942149
H           15.57463146988893        2.42131609330982       -1.22778375232678
H           13.64048766607640        4.29152550965930       -1.45192925407548
H            9.93842527898075        5.13661331980479       -2.24924467855686
H           10.02556534716822        7.61393175580215       -2.26407874945885
H           12.38323245228588        7.66677486045272        1.16734397272169
H           12.36854134162802        5.19123595569705        1.29753765886194
H            8.41947957098543        4.50453316678572        0.00743312526573
H            6.69461516848991        2.55167061783760        0.18979124273037
Fe          26.93409566836555       -0.00180102252706       -0.01156935923687
C           30.29796720889139        0.06126272592006       -0.05035974896701
C           29.62489329018689        1.21230653110169       -0.34017406299317
C           30.28344740495106        2.46132698935538       -0.66118102262256
C           29.32536968822859        3.38749994884384       -0.82900156707293
C           28.04378969696933        2.73418746604218       -0.61917436327133
N           28.24118102495799        1.38429742830267       -0.31916707294460
C           26.83320528082297        3.38333890021373       -0.65023710476203
C           26.81346997000756        4.83827664473600       -0.93620604096242
C           26.61132730163843        5.75913923578793        0.08942891102149
C           26.59058598744453        7.11178683513108       -0.21846103958836
N           26.75795529625698        7.55696190436189       -1.46636459483618
C           26.95583039635687        6.68314665509040       -2.45678166859464
C           26.99321454461103        5.31383449190473       -2.23414189484330
C           25.59194840440450        2.74630014109843       -0.40672459761707
C           24.31036895129050        3.41929269904123       -0.32269715585144
C           23.37043903078192        2.47063912955542       -0.12380405541738
N           25.44636745591698        1.42864447254189       -0.25705339076670
C           24.09574438795157        1.22299991623592       -0.09584720467451
C           23.56221656130849       -0.03250677352226       -0.00261775272729
C           24.25215820649423       -1.27344629026945        0.00514332530139
C           23.65074583313764       -2.50049739436582       -0.21718371240798
C           24.64974251298918       -3.46097511825135       -0.04140493458792
C           25.81682535297083       -2.78903318957770        0.28888746762272
N           25.60323536630760       -1.40775810113778        0.27479445267984
C           27.05285754016692       -3.44398264909940        0.61553855400757
C           27.03530166743341       -4.88428839925731        0.99164624751916
C           27.70872462662515       -5.85042553644674        0.23805501521666
C           27.65386351425484       -7.18049612183839        0.63568816867344
N           26.98551423558227       -7.56882926787460        1.72455187336154
C           26.34633874684468       -6.65700247582467        2.46139058666888
C           26.34513626820832       -5.30879904115901        2.12879045853775
C           28.24305251128680       -2.77611700815834        0.60235847642880
C           29.54048164732264       -3.31543284738728        0.95390274745341
C           30.43367499008411       -2.32642108636528        0.75069952090026
C           29.69542583467669       -1.17049899961593        0.28752473941716
N           28.38986953058689       -1.43142875444567        0.21781899026186
H           31.38176397297532        0.10309872558684       -0.06237796902540
H           31.34828737034574        2.63205141376235       -0.74026682962993
H           29.50379783850935        4.42771056769659       -1.06394708508729
H           26.47810309928231        5.42040562994673        1.11212002211084
H           26.43197638572947        7.84287028654601        0.57380395599712
H           27.08989077575682        7.07009516468228       -3.46679813189356
H           27.15254089748635        4.62299366089360       -3.05643437913781
H           24.11990437087521        4.47587876542375       -0.39647315307785
H           22.30554878293412        2.65047698784146       -0.02164745763766
H           22.61519741139871       -2.67428980545559       -0.47081862486663
H           24.54964592262041       -4.52866286684912       -0.14143012884848
H           28.25171078465098       -5.56906418821905       -0.65862557188319
H           28.16457850102220       -7.94367960496198        0.04742552728146
H           25.80691608660000       -6.99662012523049        3.34598170778466
H           25.82159305637793       -4.59016626111061        2.75083471376246
H           29.77063172741519       -4.30820607411329        1.31679859921618
H           31.49550568146710       -2.38669888087614        0.92352016448865
C           19.70228144106438       -0.00119227219767        0.00912549511103
C           18.48613192580506       -0.00990561010761        0.00363136055859
C           17.17291035688782        0.00818204306075       -0.01212790987682
C           15.95611761907764        0.04461455181917       -0.01762120909967
C           21.01623943819228       -0.01998003034875        0.01940380855040
C           22.23346562239839       -0.03810103612820       -0.00619460674523
114
 energy: -201.914915666535 gnorm: 0.057008966796 xtb: 6.5.1 (b24c23e)
Fe          11.25036263890805       -0.00569091254310       -0.01396075767914
C            7.89306578676062       -0.06140259434267       -0.02691075392267
C            8.56984614949837       -1.25996428189837        0.02495192722207
C            7.91040359404046       -2.53696595683411        0.08031211486551
C            8.87538260248320       -3.47656130744044        0.18854370893105
C           10.13901097151931       -2.78644701982409        0.19790958428613
N            9.93443263605390       -1.42839253299698        0.09442214590986
C           11.35814593872267       -3.42517289447234        0.36503261087369
C           11.37171965880119       -4.90033730935699        0.51305945470407
C           11.57882777421297       -5.48789815394204        1.75676087588565
C           11.59794757843840       -6.87021030801657        1.84575938080544
N           11.43221349770600       -7.66348729058393        0.79474372742527
C           11.23604516655553       -7.10639777831149       -0.39397531609591
C           11.19495040017585       -5.73473199506503       -0.58643867141126
C           12.57268982217395       -2.76601283338774        0.42053624585575
C           13.85018737149746       -3.37333369698701        0.68051932882479
C           14.78111990583425       -2.38684600345268        0.59795127540200
N           12.71665221586619       -1.43572758420753        0.19657577360640
C           14.05077881198408       -1.19470657806003        0.27544697251674
C           14.58668325706574        0.05124730643448       -0.02439939820458
C           13.89680384316929        1.22044142912603       -0.37123384896650
C           14.52515799464396        2.35792054316544       -0.92786078041453
C           13.55729682936993        3.31320452939590       -1.03209311870105
C           12.35600762081637        2.75047208844260       -0.53636062713540
N           12.56133157487723        1.43256294759147       -0.18760178439443
C           11.15007191190279        3.45704105444096       -0.41244930223641
C           11.16595002665922        4.94434107147205       -0.47824117273376
C           10.48731410982260        5.65669494693291       -1.46893627591228
C           10.54423165996438        7.04307093483997       -1.46701035237266
N           11.20443236992175        7.73999944426146       -0.55064001371424
C           11.83741237933529        7.07406341503893        0.40681970790781
C           11.84960337894004        5.68926358877712        0.48349852690871
C            9.94732426201980        2.81108086774801       -0.21488525765440
C            8.66017668952338        3.43166415915886       -0.05098451819372
C            7.75174899371221        2.42904635666686        0.03656325861608
C            8.48044699005377        1.19317527508918       -0.05660310563377
N            9.80702794570509        1.43113791000235       -0.17917854187363
H            6.80931801084948       -0.10899714584088       -0.02431779086649