494
 energy: -861.136435560196 gnorm: 3.269398462250 xtb: 6.5.1 (b24c23e)
C          114.72800099999999        0.08446900000000        0.28323000000000
C          115.46144600000000        1.25713700000000       -0.43746700000000
C          114.86447900000000        2.38485200000000       -0.95290900000000
C          115.88872200000000        3.15413400000000       -1.56416600000000
C          117.07641899999999        2.46507900000000       -1.40738700000000
N          116.81006400000000        1.33438000000000       -0.67638400000000
C          118.48991200000000        2.87711000000000       -1.98172200000000
C          118.51910400000000        3.93547400000000       -2.94841100000000
C          118.52926100000001        4.82234000000000       -3.75926900000000
C          118.53941700000000        5.87382900000000       -4.72562600000000
C          117.74094100000001        5.78574100000000       -5.86054800000000
C          117.78535300000000        6.83024600000000       -6.76742300000000
N          118.55719199999999        7.93069900000000       -6.61667800000000
C          119.32083900000001        7.98079800000000       -5.50133000000000
C          119.34744199999999        6.98930300000000       -4.53594000000000
C          119.61800499999998        2.22359200000000       -1.59886700000000
C          120.91375200000000        2.55918200000000       -2.15397100000000
C          121.82078999999999        1.74955900000000       -1.61993400000000
N          119.82463099999998        1.19673500000000       -0.71515800000000
C          121.15410700000000        0.86300000000000       -0.68631300000000
C          121.82832100000000       -0.08187200000000        0.02180400000000
C          121.05935900000000       -1.01324500000000        1.05060200000000
C          121.60962899999998       -1.65338900000000        2.14371200000000
C          120.58220999999999       -2.41532800000000        2.75422800000000
C          119.43147399999999       -2.21167800000000        2.02249100000000
N          119.72025199999999       -1.31735300000000        1.01886200000000
C          118.01903399999999       -2.86358100000000        2.29920300000000
C          117.98803900000000       -4.10407500000000        3.01353100000000
C          117.97267200000000       -5.14822800000000        3.60779700000000
C          117.94920399999999       -6.39309300000000        4.30751200000000
C          118.98942500000000       -6.73311700000000        5.16514100000000
C          118.91922699999999       -7.95125000000000        5.81878200000000
N          117.90125099999999       -8.83001000000000        5.67445900000000
C          116.90833600000001       -8.46571300000000        4.83126600000000
C          116.88558100000000       -7.27149200000000        4.13204300000000
C          116.89150400000000       -2.25656200000000        1.85192800000000
C          115.56490200000000       -2.79428900000000        2.09845800000000
C          114.67369100000001       -1.97360900000000        1.54979500000000
C          115.39600500000000       -0.89164300000000        0.92630900000000
N          116.72290599999999       -1.10644100000000        1.13223500000000
H          113.64572499999998        0.05740300000000        0.23884200000000
H          113.81202800000000        2.61978600000000       -0.90771400000000
H          115.76830299999999        4.09472000000000       -2.08015400000000
H          117.50205000000000        0.65765500000000       -0.36301400000000
H          117.10345299999999        4.92514700000000       -6.03159800000000
H          117.18076099999999        6.80775000000000       -7.66858700000000
H          119.93383999999999        8.87078900000000       -5.39893200000000
H          119.97988499999998        7.08062600000000       -3.65949100000000
H          121.11558200000000        3.32445100000000       -2.88189400000000
H          122.87003899999999        1.76975800000000       -1.85170000000000
H          122.63853799999998       -1.58890800000000        2.46370700000000
H          120.67158800000000       -3.04218200000000        3.62832600000000
H          119.03450800000000       -0.90098600000000        0.39434800000000
H          119.83104700000000       -6.06634500000000        5.31773800000000
H          119.70703000000000       -8.26205000000000        6.49805800000000
H          116.10116100000000       -9.18426800000000        4.72684300000000
H          116.06333900000000       -7.02971000000000        3.46708500000000
H          115.33832400000000       -3.69530600000000        2.63890000000000
H          113.60513400000001       -2.09048500000000        1.56180300000000
C          217.52269699999999        0.15989600000000        0.21561100000000
C          216.78925199999998       -0.68415100000000        1.30287300000000
C          217.38621900000001       -1.31927000000000        2.36778800000000
C          216.36197599999997       -2.01062300000000        3.06597200000000
C          215.17427900000001       -1.77977900000000        2.39807400000000
N          215.44063399999996       -0.93005500000000        1.35365300000000
C          213.76078599999997       -2.39554800000000        2.74514700000000
C          213.73159399999997       -3.47168500000000        3.69201200000000
C          213.72143700000001       -4.37425000000000        4.48535600000000
C          213.71127999999999       -5.44931000000000        5.42542200000000
C          214.50975699999998       -6.56790300000000        5.21433400000000
C          214.46534500000001       -7.58307200000000        6.15393200000000
N          213.69350600000001       -7.55299500000000        7.26425400000000
C          212.92985899999996       -6.44972500000000        7.43544800000000
C          212.90325600000000       -5.38215700000000        6.55491500000000
C          212.63269299999999       -1.94383900000000        2.13718100000000
C          211.33694499999996       -2.53217100000000        2.41036100000000
C          210.42990800000001       -1.91318800000000        1.66367200000000
N          212.42606599999996       -0.95361800000000        1.21260600000000
C          211.09659099999996       -0.88862200000000        0.88399300000000
C          210.42237700000001       -0.08187200000000        0.02180400000000
C          211.19133899999997        1.04218300000000       -0.79206300000000
C          210.64106799999999        2.19847100000000       -1.30943100000000
C          211.66848700000000        2.88828900000000       -2.00039600000000
C          212.81922399999996        2.13873400000000       -1.87759700000000
N          212.53044600000001        1.04373100000000       -1.09781900000000
C          214.23166399999999        2.48475400000000       -2.49551100000000
C          214.26265900000001        3.32985200000000       -3.65088900000000
C          214.27802600000001        4.03423200000000       -4.62416000000000
C          214.30149399999996        4.86528000000000       -5.78547500000000
C          213.26127299999996        5.75482100000000       -6.03013500000000
C          213.33147099999999        6.53716000000000       -7.16989000000000
N          214.34944700000000        6.48933700000000       -8.05913800000000
C          215.34236199999998        5.61150300000000       -7.78877700000000
C          215.36511700000000        4.78645700000000       -6.67775200000000
C          215.35919400000000        1.97406900000000       -1.94077900000000
C          216.68579600000001        2.27766000000000       -2.44848000000000
C          217.57700700000001        1.64293500000000       -1.69239000000000
C          216.85469299999997        0.90539400000000       -0.68471100000000
N          215.52779199999998        1.13347500000000       -0.87582000000000
H          218.60497300000000        0.11871800000000        0.18387400000000
H          218.43866900000000       -1.29991300000000        2.60624500000000
H          216.48239399999997       -2.62591800000000        3.94481100000000
H          214.74864800000000       -0.54489400000000        0.71505500000000
H          215.14724499999997       -6.64427000000000        4.34023500000000
H          215.06993700000001       -8.47643400000000        6.03348800000000
H          212.31685700000000       -6.44480100000000        8.33129600000000
H          212.27081300000000       -4.52085400000000        6.74108600000000
H          211.13511600000001       -3.33906000000000        3.09185800000000
H          209.38065900000001       -2.14577500000000        1.65852500000000
H          209.61215899999999        2.50954800000000       -1.21050600000000
H          211.57910899999996        3.82542000000000       -2.52839100000000
H          213.21619000000001        0.37760900000000       -0.75189600000000
H          212.41965099999999        5.83394200000000       -5.35071600000000
H          212.54366800000000        7.24622800000000       -7.40491200000000
H          216.14953599999998        5.58590700000000       -8.51442800000000
H          216.18735899999999        4.09913400000000       -6.50978000000000
H          216.91237400000000        2.91295700000000       -3.28532300000000
H          218.64556299999998        1.66759300000000       -1.80726500000000
C          125.16781600000000       -0.06943600000000        0.02424600000000
C          123.91554600000001       -0.08861700000000        0.01989700000000
C          126.48148399999999       -0.07020200000000        0.02617800000000
C          127.98461800000000       -0.08861700000000        0.01989700000000
C          138.57457299999999       -0.06943600000000        0.02424600000000
C          137.32230200000001       -0.08861700000000        0.01989700000000
C          139.88824099999999       -0.07020200000000        0.02617800000000
C          141.39137500000001       -0.08861700000000        0.01989700000000
C          151.98133000000001       -0.06943600000000        0.02424600000000
C          150.72905900000001       -0.08861700000000        0.01989700000000
C          153.29499799999996       -0.07020200000000        0.02617800000000
C          154.79813100000001       -0.08861700000000        0.01989700000000
C          165.38808599999999       -0.06943600000000        0.02424600000000
C          164.13581600000001       -0.08861700000000        0.01989700000000
C          166.70175399999999       -0.07020200000000        0.02617800000000
C          168.20488800000001       -0.08861700000000        0.01989700000000
C          178.79484299999999       -0.06943600000000        0.02424600000000
C          177.54257200000001       -0.08861700000000        0.01989700000000
C          180.10851099999996       -0.07020200000000        0.02617800000000
C          181.61164500000001       -0.08861700000000        0.01989700000000
C          192.20160000000001       -0.06943600000000        0.02424600000000
C          190.94932900000001       -0.08861700000000        0.01989700000000
C          193.51526799999999       -0.07020200000000        0.02617800000000
C          195.01840100000001       -0.08861700000000        0.01989700000000
C          205.60835599999999       -0.06943600000000        0.02424600000000
C          204.35608599999998       -0.08861700000000        0.01989700000000
C          206.92202499999999       -0.07020200000000        0.02617800000000
C          208.42515800000001       -0.08861700000000        0.01989700000000
C          129.03932300000000        0.03489100000000       -0.00899400000000
C          129.83693700000001        0.10199100000000       -1.37596800000000
C          129.34740099999999        0.50920000000000       -2.59960500000000
C          130.38977900000000        0.34446800000000       -3.54794200000000
C          131.48365699999999       -0.15391200000000       -2.87236700000000
N          131.15871400000000       -0.22949700000000       -1.54157600000000
C          132.86831100000001       -0.56695400000000       -3.50274400000000
C          132.85642200000001       -1.04749200000000       -4.85209600000000
C          132.83000899999999       -1.45891900000000       -5.98077500000000
C          132.80103800000001       -1.96407600000000       -7.31611900000000
C          133.55879200000001       -3.07990300000000       -7.65439700000000
C          133.49604800000000       -3.53514000000000       -8.95958500000000
N          132.74326700000000       -2.96083900000000       -9.92536700000000
C          132.01898399999999       -1.87919500000000       -9.55926300000000
C          132.01338200000001       -1.34718300000000       -8.28158500000000
C          134.00504699999999       -0.50215000000000       -2.76448600000000
C          135.29360900000000       -0.88664400000000       -3.30304700000000
C          136.20865499999996       -0.72410200000000       -2.35339100000000
N          134.22028700000001       -0.11462400000000       -1.47056800000000
C          135.54960000000000       -0.22762900000000       -1.16166700000000
C          136.22004000000001        0.03489100000000       -0.00899400000000
C          135.42587800000001        0.56562000000000        1.25724900000000
C          135.93493200000000        1.32094500000000        2.29381600000000
C          134.89417900000001        1.49529500000000        3.24177700000000
C          133.77903900000001        0.84826500000000        2.75101400000000
N          134.09315900000001        0.35023300000000        1.51094600000000
C          132.38609000000000        0.69885300000000        3.47762900000000
C          132.37962600000000        0.77057700000000        4.90832800000000
C          132.37129600000000        0.85367400000000        6.10732400000000
C          132.34432400000000        0.97026100000000        7.53060800000000
C          131.25285299999999        1.56063200000000        8.15897100000000
C          131.27324700000000        1.65809600000000        9.53954300000000
N          132.28956299999999        1.21447600000000       10.31402000000000
C          133.33292000000000        0.64472300000000        9.66797200000000
C          133.40778900000001        0.50017900000000        8.29314500000000
C          131.25205399999999        0.49334000000000        2.76125900000000
C          129.96123700000001        0.32790800000000        3.39866100000000
C          129.04780500000001        0.14201600000000        2.45189700000000
C          129.70931999999999        0.18535800000000        1.16343000000000
N          131.04013000000000        0.39101500000000        1.41435400000000
H          128.34826000000001        0.86818200000000       -2.79323900000000
H          130.34374900000000        0.55127100000000       -4.60614000000000
H          131.80809500000001       -0.44214700000000       -0.79005600000000
H          134.17930699999999       -3.58002900000000       -6.91838200000000
H          134.06879499999999       -4.40284700000000       -9.27171000000000
H          131.42010400000001       -1.43427700000000      -10.34775400000000
H          131.41194100000001       -0.47713600000000       -8.04257800000000
H          135.48412800000000       -1.24238300000000       -4.29976000000000
H          137.25733199999999       -0.93339200000000       -2.46804400000000
H          136.94702899999999        1.68915900000000        2.37179800000000
H          134.95639299999999        2.02021500000000        4.18316100000000
H          133.43526499999999       -0.08156700000000        0.86722200000000
H          130.41146699999999        1.93589200000000        7.58593800000000
H          130.44468499999999        2.11152200000000       10.07538200000000
H          134.13795999999999        0.29416700000000       10.30696100000000
H          134.27008200000000        0.03539600000000        7.82725600000000
H          129.76778200000001        0.34574200000000        4.45602300000000
H          127.99888100000000       -0.01052300000000        2.63023800000000
C          142.44607900000000        0.03489100000000       -0.00899400000000
C          143.24369400000000        0.10199100000000       -1.37596800000000
C          142.75415699999999        0.50920000000000       -2.59960500000000
C          143.79653500000001        0.34446800000000       -3.54794200000000
C          144.89041399999999       -0.15391200000000       -2.87236700000000
N          144.56547000000000       -0.22949700000000       -1.54157600000000
C          146.27506800000000       -0.56695400000000       -3.50274400000000
C          146.26317899999998       -1.04749200000000       -4.85209600000000
C          146.23676499999999       -1.45891900000000       -5.98077500000000
C          146.20779399999998       -1.96407600000000       -7.31611900000000
C          146.96554900000001       -3.07990300000000       -7.65439700000000
C          146.90280400000000       -3.53514000000000       -8.95958500000000
N          146.15002400000000       -2.96083900000000       -9.92536700000000
C          145.42574099999999       -1.87919500000000       -9.55926300000000
C          145.42013900000001       -1.34718300000000       -8.28158500000000
C          147.41180299999996       -0.50215000000000       -2.76448600000000
C          148.70036500000001       -0.88664400000000       -3.30304700000000
C          149.61541099999999       -0.72410200000000       -2.35339100000000
N          147.62704399999998       -0.11462400000000       -1.47056800000000
C          148.95635699999997       -0.22762900000000       -1.16166700000000
C          149.62679700000001        0.03489100000000       -0.00899400000000
C          148.83263500000001        0.56562000000000        1.25724900000000
C          149.34168900000000        1.32094500000000        2.29381600000000
C          148.30093600000001        1.49529500000000        3.24177700000000
C          147.18579600000001        0.84826500000000        2.75101400000000
N          147.49991600000001        0.35023300000000        1.51094600000000
C          145.79284699999997        0.69885300000000        3.47762900000000
C          145.78638200000000        0.77057700000000        4.90832800000000
C          145.77805200000000        0.85367400000000        6.10732400000000
C          145.75108000000000        0.97026100000000        7.53060800000000
C          144.65960899999996        1.56063200000000        8.15897100000000
C          144.68000400000000        1.65809600000000        9.53954300000000
N          145.69631999999999        1.21447600000000       10.31402000000000
C          146.73967700000000        0.64472300000000        9.66797200000000
C          146.81454500000001        0.50017900000000        8.29314500000000
C          144.65881099999999        0.49334000000000        2.76125900000000
C          143.36799300000001        0.32790800000000        3.39866100000000
C          142.45456200000001        0.14201600000000        2.45189700000000
C          143.11607699999996        0.18535800000000        1.16343000000000
N          144.44688600000001        0.39101500000000        1.41435400000000
H          141.75501699999998        0.86818200000000       -2.79323900000000
H          143.75050600000000        0.55127100000000       -4.60614000000000
H          145.21485200000001       -0.44214700000000       -0.79005600000000
H          147.58606399999999       -3.58002900000000       -6.91838200000000
H          147.47555199999999       -4.40284700000000       -9.27171000000000
H          144.82686099999998       -1.43427700000000      -10.34775400000000
H          144.81869699999999       -0.47713600000000       -8.04257800000000
H          148.89088500000000       -1.24238300000000       -4.29976000000000
H          150.66408899999999       -0.93339200000000       -2.46804400000000
H          150.35378600000001        1.68915900000000        2.37179800000000
H          148.36314999999996        2.02021500000000        4.18316100000000
H          146.84202199999999       -0.08156700000000        0.86722200000000
H          143.81822399999999        1.93589200000000        7.58593800000000
H          143.85144199999999        2.11152200000000       10.07538200000000
H          147.54471699999999        0.29416700000000       10.30696100000000
H          147.67683900000000        0.03539600000000        7.82725600000000
H          143.17453799999998        0.34574200000000        4.45602300000000
H          141.40563699999998       -0.01052300000000        2.63023800000000
C          155.85283600000000        0.03489100000000       -0.00899400000000
C          156.65045000000001        0.10199100000000       -1.37596800000000
C          156.16091399999996        0.50920000000000       -2.59960500000000
C          157.20329200000000        0.34446800000000       -3.54794200000000
C          158.29717099999999       -0.15391200000000       -2.87236700000000
N          157.97222700000000       -0.22949700000000       -1.54157600000000
C          159.68182399999998       -0.56695400000000       -3.50274400000000
C          159.66993600000001       -1.04749200000000       -4.85209600000000
C          159.64352199999999       -1.45891900000000       -5.98077500000000
C          159.61455100000001       -1.96407600000000       -7.31611900000000
C          160.37230500000001       -3.07990300000000       -7.65439700000000
C          160.30956099999997       -3.53514000000000       -8.95958500000000
N          159.55677999999997       -2.96083900000000       -9.92536700000000
C          158.83249799999999       -1.87919500000000       -9.55926300000000
C          158.82689599999998       -1.34718300000000       -8.28158500000000
C          160.81855999999999       -0.50215000000000       -2.76448600000000
C          162.10712200000000       -0.88664400000000       -3.30304700000000
C          163.02216799999997       -0.72410200000000       -2.35339100000000
N          161.03380000000001       -0.11462400000000       -1.47056800000000
C          162.36311300000000       -0.22762900000000       -1.16166700000000
C          163.03355399999998        0.03489100000000       -0.00899400000000
C          162.23939199999998        0.56562000000000        1.25724900000000
C          162.74844499999998        1.32094500000000        2.29381600000000
C          161.70769199999998        1.49529500000000        3.24177700000000
C          160.59255299999998        0.84826500000000        2.75101400000000
N          160.90667199999996        0.35023300000000        1.51094600000000
C          159.19960300000000        0.69885300000000        3.47762900000000
C          159.19313899999997        0.77057700000000        4.90832800000000
C          159.18480900000000        0.85367400000000        6.10732400000000
C          159.15783700000000        0.97026100000000        7.53060800000000
C          158.06636599999999        1.56063200000000        8.15897100000000
C          158.08676100000000        1.65809600000000        9.53954300000000
N          159.10307700000001        1.21447600000000       10.31402000000000
C          160.14643299999997        0.64472300000000        9.66797200000000
C          160.22130199999998        0.50017900000000        8.29314500000000
C          158.06556699999999        0.49334000000000        2.76125900000000
C          156.77475000000001        0.32790800000000        3.39866100000000
C          155.86131900000001        0.14201600000000        2.45189700000000
C          156.52283299999999        0.18535800000000        1.16343000000000
N          157.85364300000001        0.39101500000000        1.41435400000000
H          155.16177300000001        0.86818200000000       -2.79323900000000
H          157.15726300000000        0.55127100000000       -4.60614000000000
H          158.62160800000001       -0.44214700000000       -0.79005600000000
H          160.99281999999999       -3.58002900000000       -6.91838200000000
H          160.88230799999999       -4.40284700000000       -9.27171000000000
H          158.23361800000001       -1.43427700000000      -10.34775400000000
H          158.22545399999998       -0.47713600000000       -8.04257800000000
H          162.29764199999997       -1.24238300000000       -4.29976000000000
H          164.07084599999996       -0.93339200000000       -2.46804400000000
H          163.76054300000001        1.68915900000000        2.37179800000000
H          161.76990599999999        2.02021500000000        4.18316100000000
H          160.24877799999996       -0.08156700000000        0.86722200000000
H          157.22498100000001        1.93589200000000        7.58593800000000
H          157.25819899999999        2.11152200000000       10.07538200000000
H          160.95147299999999        0.29416700000000       10.30696100000000
H          161.08359500000000        0.03539600000000        7.82725600000000
H          156.58129500000001        0.34574200000000        4.45602300000000
H          154.81239400000001       -0.01052300000000        2.63023800000000
C          169.25959299999997        0.03489100000000       -0.00899400000000
C          170.05720700000001        0.10199100000000       -1.37596800000000
C          169.56767099999999        0.50920000000000       -2.59960500000000
C          170.61004900000000        0.34446800000000       -3.54794200000000
C          171.70392699999999       -0.15391200000000       -2.87236700000000
N          171.37898399999997       -0.22949700000000       -1.54157600000000
C          173.08858100000000       -0.56695400000000       -3.50274400000000
C          173.07669199999998       -1.04749200000000       -4.85209600000000
C          173.05027899999996       -1.45891900000000       -5.98077500000000
C          173.02130800000000       -1.96407600000000       -7.31611900000000
C          173.77906200000001       -3.07990300000000       -7.65439700000000
C          173.71631800000000       -3.53514000000000       -8.95958500000000
N          172.96353700000000       -2.96083900000000       -9.92536700000000
C          172.23925399999999       -1.87919500000000       -9.55926300000000
C          172.23365200000001       -1.34718300000000       -8.28158500000000
C          174.22531699999999       -0.50215000000000       -2.76448600000000
C          175.51387900000000       -0.88664400000000       -3.30304700000000
C          176.42892499999999       -0.72410200000000       -2.35339100000000
N          174.44055699999998       -0.11462400000000       -1.47056800000000
C          175.76986999999997       -0.22762900000000       -1.16166700000000
C          176.44031099999998        0.03489100000000       -0.00899400000000
C          175.64614800000001        0.56562000000000        1.25724900000000
C          176.15520200000000        1.32094500000000        2.29381600000000
C          175.11444900000001        1.49529500000000        3.24177700000000
C          173.99930900000001        0.84826500000000        2.75101400000000
N          174.31342900000001        0.35023300000000        1.51094600000000
C          172.60635999999997        0.69885300000000        3.47762900000000
C          172.59989600000000        0.77057700000000        4.90832800000000
C          172.59156600000000        0.85367400000000        6.10732400000000
C          172.56459400000000        0.97026100000000        7.53060800000000
C          171.47312299999999        1.56063200000000        8.15897100000000
C          171.49351799999999        1.65809600000000        9.53954300000000
N          172.50983299999999        1.21447600000000       10.31402000000000
C          173.55319000000000        0.64472300000000        9.66797200000000
C          173.62805900000001        0.50017900000000        8.29314500000000
C          171.47232399999999        0.49334000000000        2.76125900000000
C          170.18150699999998        0.32790800000000        3.39866100000000
C          169.26807600000001        0.14201600000000        2.45189700000000
C          169.92958999999996        0.18535800000000        1.16343000000000
N          171.26040000000000        0.39101500000000        1.41435400000000
H          168.56852999999998        0.86818200000000       -2.79323900000000
H          170.56401900000000        0.55127100000000       -4.60614000000000
H          172.02836500000001       -0.44214700000000       -0.79005600000000
H          174.39957699999999       -3.58002900000000       -6.91838200000000
H          174.28906499999999       -4.40284700000000       -9.27171000000000
H          171.64037399999998       -1.43427700000000      -10.34775400000000
H          171.63221100000001       -0.47713600000000       -8.04257800000000
H          175.70439900000000       -1.24238300000000       -4.29976000000000
H          177.47760299999999       -0.93339200000000       -2.46804400000000
H          177.16729899999999        1.68915900000000        2.37179800000000
H          175.17666299999996        2.02021500000000        4.18316100000000
H          173.65553499999999       -0.08156700000000        0.86722200000000
H          170.63173799999998        1.93589200000000        7.58593800000000
H          170.66495499999999        2.11152200000000       10.07538200000000
H          174.35822999999999        0.29416700000000       10.30696100000000
H          174.49035200000000        0.03539600000000        7.82725600000000
H          169.98805200000001        0.34574200000000        4.45602300000000
H          168.21915100000001       -0.01052300000000        2.63023800000000
C          182.66634999999999        0.03489100000000       -0.00899400000000
C          183.46396400000000        0.10199100000000       -1.37596800000000
C          182.97442699999996        0.50920000000000       -2.59960500000000
C          184.01680599999997        0.34446800000000       -3.54794200000000
C          185.11068399999999       -0.15391200000000       -2.87236700000000