336
 energy: -575.252322383568 gnorm: 0.000402841399 xtb: 6.5.1 (b24c23e)
C           69.23147442401738        0.03475715847226        0.09269926716942
C           69.83855717687226        1.26970274695601        0.27983364697709
C           69.18589966602437        2.52201319865616        0.45723376857541
C           70.14760170975012        3.47875034806161        0.62028451062165
C           71.41907817578695        2.83969738117719        0.55853600250819
N           71.18183213715994        1.51239263718591        0.34054513847087
C           72.68191242561481        3.42953310888932        0.68178583958502
C           72.71176536288134        4.88790718008487        0.94404654866368
C           73.32538687089493        5.76922811550661        0.05431250740907
C           73.32313739030744        7.12594240606572        0.33685147550589
N           72.76322077885706        7.63767265916027        1.42840453895799
C           72.17985262585464        6.80444271944898        2.28384121863642
C           72.12584526821537        5.43370130319090        2.08575517442523
C           73.89972315787881        2.75238596068217        0.58100302028050
C           75.19177547887331        3.37743234289820        0.79946965319850
C           76.11745987542201        2.41323677685293        0.61811327069602
N           74.06213467014105        1.43172784576542        0.29325582504436
C           75.39123581780305        1.20124191780470        0.29205136186231
C           76.03367116118321       -0.02223045582265        0.01519695680405
C           75.39872488077685       -1.25081244847998       -0.24765121523206
C           76.03883808620317       -2.47503147357496       -0.57533949926486
C           75.07183159385804       -3.42724946139630       -0.74284223304442
C           73.80908829664878       -2.81306501664380       -0.51741562660672
N           74.05777713607623       -1.49659278559193       -0.23230023619281
C           72.54803036795384       -3.41422573636926       -0.59454464041991
C           72.52046273332806       -4.86729528165971       -0.88232461388819
C           73.12361979936800       -5.78834219877106       -0.02619689294056
C           73.06937814779862       -7.13765397310195       -0.33811992211484
N           72.47069708459790       -7.60565244899020       -1.42855190502282
C           71.89539392676022       -6.73449175613688       -2.25134232271075
C           71.89128698916468       -5.36780976586383       -2.02191526842119
C           71.32943223304541       -2.74924165631674       -0.42539047769387
C           70.02955317128315       -3.40204842732422       -0.45541105110566
C           69.11147990312531       -2.43371571913177       -0.26391588596053
C           69.84952414389697       -1.19252774614732       -0.10751901798075
N           71.18235267205280       -1.42245802728175       -0.19876118561873
H           68.14625806045514        0.03889364179459        0.10504459815232
H           68.11647064339051        2.66000227099018        0.45284840299650
H           69.99579595723998        4.53627101364589        0.76330686857431
H           71.90690585593705        0.81052543433368        0.23650906514679
H           73.78392117820293        5.39814873173291       -0.85449660815303
H           73.79033775849592        7.83191160989087       -0.34350861721546
H           71.73509504131943        7.25180035247933        3.16798281815565
H           71.65094081957658        4.79202582414705        2.81845851510521
H           75.34690553031027        4.40852456936611        1.07261583877161
H           77.18901097290822        2.48796831343134        0.70685763645552
H           77.10403493137883       -2.60104852345214       -0.68061961701114
H           75.21686573210974       -4.46086944036125       -1.01139634325999
H           73.33773146424235       -0.80600868590381       -0.04732762639602
H           73.61232519002704       -5.45435162018388        0.88141947848506
H           73.52680605030392       -7.87384676143272        0.31641791762531
H           71.41681681896789       -7.14696264624125       -3.13475294177853
H           71.42046920504606       -4.69391226556511       -2.72765190138076
H           69.86773587330372       -4.45917498534480       -0.59167078750562
H           68.03710925023481       -2.52025199968294       -0.22052772700768
C          130.58386013368832        0.01032835622186        0.06629393646574
C          130.00140304801556       -1.18588349614847       -0.33168090168314
C          130.67897521186981       -2.37039611744215       -0.73617880400652
C          129.73644693276157       -3.30757481698076       -1.05234186569533
C          128.45211749178819       -2.72954370883604       -0.83919392256659
N          128.66309702476090       -1.44918549934781       -0.41277301034761
C          127.20141070774687       -3.32203498909319       -1.04407587222918
C          127.20285815820334       -4.72821899561921       -1.51383607943480
C          126.64643079610966       -5.07926604937838       -2.74336994095860
C          126.67784623452390       -6.40502180691133       -3.14577970640276
N          127.21403334951802       -7.37305264644363       -2.40941057867410
C          127.74317568568972       -7.04775552851010       -1.23448160173723
C          127.76453148227588       -5.74970745454291       -0.74877095303808
C          125.96964019676749       -2.69446790384793       -0.84255687856587
C          124.68877908047706       -3.35755257729022       -1.00937129896182
C          123.74365016928898       -2.44043038704278       -0.71826743172486
N          125.78081835429126       -1.40687015480387       -0.44343091006843
C          124.44649152720991       -1.22194258101772       -0.36605075363347
C          123.78042010632467       -0.02908605238278       -0.02278228519218
C          124.39019335826873        1.19103453587263        0.32401465684482
C          123.72318679701594        2.40052173293023        0.65351985474020
C          124.67104631030431        3.34401697629871        0.93710558658317
C          125.94904974190993        2.73412137630182        0.80456664734415
N          125.72769911726259        1.43671046068875        0.42485469208653
C          127.19842401101954        3.33285867958396        0.99856723358227
C          127.19809842441546        4.75571314144350        1.41287753863889
C          126.61021567133247        5.16546640452137        2.60921204326332
C          126.63604282531418        6.50874186100530        2.94982931843758
N          127.19409377961121        7.44003102143433        2.18322331916437
C          127.75612004843494        7.05822130870498        1.04078316653942
C          127.78555680410295        5.73901343630191        0.61730951270782
C          128.43073399483799        2.69232130664232        0.83514997928084
C          129.71789740303416        3.31528598323418        1.10349379812776
C          130.65515807465570        2.38134974118758        0.84588692439365
C          129.94167108444711        1.18731850065399        0.42745203091308
N          128.60435845235367        1.40881770218375        0.44070567295722
H          131.66886641644098        0.01878154520631        0.08985892785012
H          131.75112581261882       -2.47570552754931       -0.78255784518351
H          129.90945291652883       -4.30976797632941       -1.40947616072141
H          127.92434962386280       -0.78896651211590       -0.19479917093650
H          126.20941309014096       -4.32139889141946       -3.38254056481177
H          126.25520220791446       -6.70167405498831       -4.10126039880591
H          128.16999822992551       -7.86072971545048       -0.65436978622848
H          128.19601871211245       -5.53416403821546        0.22152185815259
H          124.55301198214065       -4.38733538065695       -1.29728440621138
H          122.67193670891669       -2.55414345437084       -0.73471497535107
H          122.65301420568886        2.52618484319088        0.66990383091554
H          124.50235578713911        4.37318502547545        1.20874384989442
H          126.46246463241789        0.76048073273516        0.24456853383413
H          126.15510119925753        4.44004487199147        3.27308313485398
H          126.18874585161252        6.85083015382875        3.87855643652513
H          128.20211880684491        7.84197480791307        0.43547170419216
H          128.24417407536245        5.47587083040674       -0.32837815553654
H          129.85865122393838        4.32503720938101        1.45401802241737
H          131.72789691036130        2.45998830346987        0.92770137503904
C           77.44275925464883       -0.03140103974997       -0.00407390624049
C           78.65995931365623       -0.03671867395957       -0.02383412780391
C           88.36208712345345       -0.03134871395162       -0.05514936773479
C           89.58046190453902       -0.02720065445864       -0.05413767918638
C           99.29434306866814        0.01309334523332       -0.00276893338653
C          100.51307577029732        0.01726614654330        0.00021781678861
C          110.22657480946449        0.00243991186959       -0.05635833090649
C          111.44491392525305       -0.00206770572301       -0.05409969609762
C          121.15274021834695       -0.04248179107479       -0.02841978830996
C          122.36981822743915       -0.03934659240285       -0.02871929197275
C           80.06808473825674       -0.03975874665620       -0.04011411477203
C           80.69887284384691       -1.27991287891567        0.17561185533764
C           80.06283897084724       -2.51555498635265        0.45919250610946
C           81.03230292589086       -3.47606423854065        0.55981755873030
C           82.28991735410413       -2.85358892712917        0.33468650290818
N           82.03926446529333       -1.52434086614072        0.12465944185012
C           83.54901087613645       -3.46689909106640        0.32004991029280
C           83.56623395462162       -4.93843842490442        0.49689240733922
C           84.23972407400443       -5.52853414728579        1.56614825695862
C           84.22337419261528       -6.90803738307563        1.69710330112350
N           83.59553270508896       -7.70936046309726        0.84243048326715
C           82.95503464718639       -7.15576998070579       -0.18214326750952
C           82.90903749118739       -5.78680353811666       -0.39378567540964
C           84.77159339075685       -2.81361516740410        0.15717859421890
C           86.04519153025392       -3.50162505566057        0.04804659611951
C           86.98786290959156       -2.54294165998582       -0.06370375688339
N           84.96013573027280       -1.46694586075034        0.08319191859023
C           86.29055080178152       -1.27350637079333       -0.02333518357528
C           86.95494560894950       -0.03015073866045       -0.05731050085114
C           86.32230696265590        1.22827820942028       -0.09132427094250
C           86.95607180629835        2.49666749257239       -0.06280184144599
C           85.98608581654265        3.45621193478267       -0.16483316135917
C           84.72960720333043        2.79940141764325       -0.26259776138617
N           84.98178116917369        1.45539737047839       -0.19316254509733
C           83.47160646673933        3.39712198633050       -0.40912731244814
C           83.45758459389060        4.87190172768167       -0.55563923511309
C           82.78098881516715        5.68311767657105        0.35495599394486
C           82.80015283740372        7.05773433137686        0.18001291998281
N           83.43394470513461        7.65118997674913       -0.82641010937602
C           84.07802680645771        6.88550005375881       -1.70121118769376
C           84.12127080735112        5.50340264461555       -1.60725584876237
C           82.24781225617103        2.72575964864408       -0.42655538642125
C           80.97249689455339        3.37579286152384       -0.66992795921543
C           80.02946295591595        2.41667481205993       -0.56637282621215
C           80.72925378198207        1.18376578976202       -0.26561434817198
N           82.06075651138097        1.39455158030394       -0.21271034726817
H           78.99983891117638       -2.64524715688877        0.58065445874392
H           80.89045027558144       -4.52109828443080        0.78168509073331
H           82.75286192938681       -0.82188394030859       -0.03804783684798
H           84.75520399207960       -4.91357089771845        2.29415431603048
H           84.73575433558436       -7.38972455372274        2.52474183699252
H           82.45548770961193       -7.83651807148056       -0.86523802690067
H           82.38464129412139       -5.38157409457688       -1.25106271139071
H           86.17678452726589       -4.57141721992181        0.03911020034152
H           88.05297940454878       -2.66012991476304       -0.17922548768861
H           88.01779481950770        2.65067854692922        0.03562322575777
H           86.12658330926230        4.52468099756895       -0.16035582683763
H           84.26923264283495        0.73359179425623       -0.21180609242236
H           82.26098527692828        5.24377980904195        1.19782335040731
H           82.28496648168084        7.70999690837273        0.87904498186765
H           84.58283270115213        7.39902586069007       -2.51425373120006
H           84.64859837968666        4.91919870255390       -2.35208490991971
H           80.83989325187862        4.41923888154553       -0.90534982805969
H           78.96307091657373        2.50772910871576       -0.69380674792100
C           90.98733019092660       -0.02610654987409       -0.05011413030237
C           91.62392846086701       -1.23022705648119        0.31042734445622
C           90.99699828203200       -2.42943851280920        0.73397151870189
C           91.97177984144086       -3.37029514983817        0.92703700857251
C           93.22394839076800       -2.77204289926668        0.62111649468212
N           92.96519258604219       -1.47269820312834        0.27617788250161
C           94.48356470813104       -3.38440074637528        0.64235446721276
C           94.50467773280533       -4.83500661408612        0.94463532335772
C           95.20905871115596       -5.33420788721831        2.04009143169176
C           95.19647359151094       -6.69759757681794        2.28786937675420
N           94.54386043754008       -7.56689404160538        1.52287135399006
C           93.87332981559403       -7.10046750571931        0.47440571664136
C           93.82138803657631       -5.75428983457019        0.14885311929847
C           95.70362253097666       -2.74889605856431        0.40540377821522
C           96.97451434849945       -3.44599758809769        0.32801107429734
C           97.91729625282214       -2.49953970569765        0.13869878512019
N           95.89322067213524       -1.41158408379915        0.23227646967555
C           97.22310349301317       -1.22880267829986        0.10075456070458
C           97.88752980069076        0.01046869528213       -0.00988941844405
C           97.24775795803956        1.26069832078657       -0.12821610133005
C           97.87039792877671        2.53366544420479       -0.17181025769149
C           96.89541540727082        3.47502960664451       -0.36108069493477
C           95.64702158365859        2.80124267125081       -0.44290596993944
N           95.90781303390095        1.46808205449169       -0.27213394692101
C           94.38976126758152        3.37406610039520       -0.67403295062829
C           94.37144157417923        4.83124688555201       -0.94299322950960
C           93.65429912688964        5.70790949294814       -0.12911693898635
C           93.67136555148534        7.06364767311629       -0.41573221075316
N           94.34021854467180        7.57869112212945       -1.44243732115934
C           95.02297060159425        6.75010610556163       -2.22585859633344
C           95.07142746711762        5.38087532818430       -2.01690505046979
C           93.17070338712399        2.69420780032879       -0.67103824395661
C           91.90180793978479        3.30880459349741       -1.01668090455795
C           90.95906678241187        2.35869070639298       -0.84594223124289
C           91.65206625567593        1.16735920681465       -0.39977488152123
N           92.98075899795673        1.38898155027353       -0.33289493818217
H           89.93657803078619       -2.54909355320284        0.88196132253872
H           91.83681168807800       -4.38536839253806        1.26288124323035
H           93.67324592124328       -0.78851964039502        0.03209360010659
H           95.74547550832581       -4.66113253517567        2.69821549789981
H           95.73317543530459       -7.10879772839653        3.13781028255854
H           93.35361452626975       -7.83525112539118       -0.13349340416770
H           93.27237011984364       -5.42196843162709       -0.72422424683567
H           97.10425026514174       -4.51423723102930        0.39024988346415
H           98.98039228893406       -2.62721967333057        0.01739784410521
H           98.92811771335386        2.70423766920697       -0.06010032397703
H           97.02753384958416        4.54257166666792       -0.42629941708438
H           95.20208513779843        0.73959012845923       -0.25547711472518
H           93.10476979312013        5.33411955155799        0.72655595978878
H           93.12501290329186        7.76600329704277        0.20693141781025
H           95.55597718112246        7.20011736038182       -3.05829424701955
H           95.63107033211838        4.74271712605081       -2.69047432078494
H           91.77317353437593        4.32234978543806       -1.36024539686534
H           89.89706993544256        2.42957477838740       -1.01539628997626
C          101.91992452808880        0.01506510606973       -0.00100492429644
C          102.55528912714078       -1.19108986782231        0.35708382672253
C          101.92814983549509       -2.38500997226090        0.79442472625111
C          102.89983074662551       -3.33157926062764        0.97468159564882
C          104.15047545418274       -2.74232390502129        0.64649277209665
N          103.89439426193665       -1.44186965870950        0.30312051103356
C          105.40572701462409       -3.36398730503835        0.64719343418225
C          105.42138713054405       -4.81434066875327        0.95064357755180
C          106.14135557874251       -5.31731106366972        2.03417727742027
C          106.12236120855884       -6.68012616456836        2.28468058977428
N          105.44922424566572       -7.54547318029472        1.53313283380775
C          104.76403730667941       -7.07553805355064        0.49576080578095
C          104.71702382346493       -5.72955809586384        0.16864014471040
C          106.62615738804533       -2.73706237572179        0.39034232412249
C          107.89169539122005       -3.44158767376321        0.29410039393608
C          108.83742665022523       -2.50048999538129        0.09267836670358
N          106.82079501411340       -1.40094110966867        0.21479141057340
C          108.14970976536030       -1.22578637574653        0.06535367804021
C          108.81962796994861        0.00942883662430       -0.05318518968549
C          108.18816708209498        1.26415611110540       -0.16190349398849
C          108.81984416253735        2.53271380829307       -0.21037269509088
C          107.84844719199700        3.48243360442433       -0.37456932224043
C          106.59354138680615        2.81844899937480       -0.43668708542361
N          106.84750023213770        1.48224445722355       -0.28090893845296
C          105.33573342379678        3.40061077727649       -0.63877769352103
C          105.31889921860217        4.86190513402246       -0.88508362726608
C          104.62079329160423        5.72708519774004       -0.04273609348712
C          104.63754378903560        7.08744301990515       -0.30629317545039
N          105.28834852145469        7.61758221383863       -1.33694802799099
C          105.95253327671188        6.80008617624521       -2.14747246780860
C          106.00007342993158        5.42725456345316       -1.96279589979536
C          104.11331305526912        2.72669516580388       -0.62584489235894
C          102.84457129961741        3.35171455383247       -0.95261801985859
C          101.89859610927184        2.40461368630372       -0.78358368539187
C          102.58855619454432        1.20576479634302       -0.35359498882741
N          103.91921784492112        1.41951804019278       -0.29760944523068
H          100.86994739731547       -2.49734742773372        0.96149879076466
H          102.76384123686167       -4.34470339331044        1.31591173766377
H          104.60277470322151       -0.76288991772298        0.04578534558591
H          106.69475467655792       -4.64740179864123        2.68137284140984
H          106.67092901779071       -7.09407957736979        3.12566108638420
H          104.22751024962072       -7.80717669566863       -0.10122921955394
H          104.15522232402580       -5.39440279942252       -0.69517387466027
H          108.01600354403639       -4.51064061263466        0.35354867013879
H          109.89814900907020       -2.63405717880628       -0.04356697138672
H          109.88103134983045        2.69439717703661       -0.11875872276422
H          107.98736758495045        4.54936913945147       -0.43568803599237
H          106.13665504910608        0.75904725756355       -0.25424581041713
H          104.08607021297715        5.34043307627906        0.81661089809567
H          104.10610430887492        7.78095599276558        0.33880521616245
H          106.47066568049695        7.26239870180604       -2.98255734745339
H          106.54410328085608        4.79890547314610       -2.65801572733880
H          102.71845020278315        4.36938011341021       -1.28475074550105
H          100.83567222721429        2.48296428251697       -0.94253180924402
C          112.85218067463971       -0.01030093872658       -0.04466154851863
C          113.47624738145291       -1.19300493986377        0.39847578173871
C          112.83266828883423       -2.35451064968816        0.89671518302810
C          113.79731363345884       -3.27838786993739        1.19224843702569
C          115.06053849412798       -2.70813872021277        0.87713724889662
N          114.81661198369760       -1.44244622656481        0.41508622481578
C          116.31694758687200       -3.30961551462592        1.01831705152738
C          116.32047764893187       -4.71554107376050        1.49003364645040
C          116.93781784486920       -5.07512270402956        2.68757924616358
C          116.90877099647028       -6.40051595820032        3.09150818808927
N          116.31961286003583       -7.36024580832907        2.38546516925549
C          115.73218600295378       -7.02690466667849        1.24088014343587
C          115.70315034938957       -5.72841865299532        0.75687537588078
C          117.54727912200603       -2.70268413225612        0.76044094179789
C          118.82277704907591       -3.38903087783429        0.86373103884554
C          119.77183009409366       -2.47719121943955        0.56849934251787
N          117.74143910379203       -1.40895431029763        0.38516992941615
C          119.07602913959013       -1.23973717659785        0.27664453467810
C          119.74304877503961       -0.03736612376762       -0.02715046540607
C          119.12071271993715        1.19036394498373       -0.32240538219995
C          119.76886837877673        2.42043415326650       -0.60377584482351
C          118.80535979689016        3.35611026920757       -0.86388147216984
C          117.53883005392520        2.71868249419623       -0.76590410534177
N          117.77952514969897        1.41526075564584       -0.42302795589512
C          116.28156665530801        3.29499527597154       -0.98478488839658
C          116.27071497893466        4.72407597361350       -1.38007469057057
C          115.63784737634133        5.68271851791286       -0.58913847823483
C          115.65682653993011        7.00930022778768       -0.98931371260829
N          116.25043488167427        7.42058090100100       -2.10523727454880
C          116.85141618758161        6.51290218315017       -2.86758328268254
C          116.89080569506346        5.16451354238681       -2.54873013657555
C          115.05318230272044        2.64313466750224       -0.86715193285320
C          113.78247971024123        3.25423751866374       -1.21260190018490
C          112.83398681941198        2.32794623499605       -0.96337420013338
C          113.52444297124710        1.15592483599432       -0.46431986066803
N          114.85643243218344        1.36568290424753       -0.43855155225388
H          111.76813059341309       -2.45969495972186        1.02445288954915
H          113.64890602397813       -4.26342931173231        1.60339678417566
H          115.53477877247288       -0.78342078310372        0.13393127719621
H          117.41982089382836       -4.32395596076810        3.30179971303764
H          117.37796396230831       -6.70375148496215        4.02286743956691
H          115.26274141709608       -7.83326399470992        0.68503309482133
H          115.22189310457637       -5.50565016052963       -0.18803920982435
H          118.95221925794357       -4.42884778617085        1.11626884302985
H          120.84170729963694       -2.60596573176754        0.54549186979106
H          120.83666898298331        2.56544745318340       -0.60691359068212
H          118.95811137512449        4.39668405262098       -1.09879198683488
H          117.05935487458561        0.71801742484961       -0.26646089063218
H          115.15086070176660        5.39427306526674        0.33475076598644
H          115.17516766035436        7.77417751441011       -0.38722811493091
H          117.32361474503028        6.87897363214089       -3.77454768766610
H          117.38136082780707        4.45904143993093       -3.20880714699922
H          113.65671151726593        4.24823350637175       -1.61006256565726
H          111.76887080981449        2.40290569599365       -1.10948777492364
