634
 energy: -1009.137440381529 gnorm: 0.000679108396 xtb: 6.5.1 (b24c23e)
C          107.53842933400522        0.02291064557977        0.07767070877271
C          108.14668932166060       -0.12140565912136        1.31849018578581
C          107.49346676880928       -0.22230022536595        2.57805407028720
C          108.45390647691993       -0.36605304681600        3.54044488804156
C          109.72412931638942       -0.36984411173553        2.89809285016217
N          109.48854292870772       -0.20725397216934        1.56223328238250
C          110.98615389174398       -0.49769612615906        3.49337373614415
C          111.01511995962655       -0.70837288300485        4.95811248156947
C          111.69655900345238        0.17374303166231        5.79880661709862
C          111.71794316671813       -0.01286649890384        7.16883640137398
C          111.05875793516019       -1.10190511890231        7.75905347803987
N          111.12459003892684       -1.32887714814897        9.13017766921997
C          111.51495181471510       -0.20567256312038        9.98247011782839
C          110.10068112747510       -2.19452870163419        9.71708320155904
C          110.38844532330111       -1.99635532539725        6.91066070655072
C          110.36324083821080       -1.79590435796708        5.54263744282183
C          112.19982261429321       -0.44094349377006        2.80281621814974
C          113.49571888944244       -0.65006685447712        3.42236189956558
C          114.41525567426683       -0.50601135483525        2.44519713499154
N          112.35348349539397       -0.20190779511637        1.47044826371994
C          113.67937071561701       -0.22253830791509        1.22890747386863
C          114.31686526764466        0.00210037307687       -0.00926567126096
C          113.68218610621054        0.22193343163586       -1.24748972598805
C          114.32881368017262        0.48250518366909       -2.48400795907073
C          113.36395793866284        0.62157864869431       -3.44361922131374
C          112.09758087451675        0.43964943224413       -2.82304080682522
N          112.34210268802708        0.21140749287210       -1.49379671761134
C          110.83700993832117        0.50109181199621       -3.42880354991828
C          110.80677108385854        0.71437909962636       -4.89229807048509
C          110.13266813512101        1.80396888781990       -5.44741117287539
C          110.11113265635814        2.01397276526977       -6.81397037897765
C          110.76204690280949        1.13193511657228       -7.69003496622379
N          110.69633179773081        1.30519430562753       -9.06871885054352
C          111.70886583967150        0.62782519818373       -9.87991428467275
C          110.32297953056995        2.62969591775528       -9.56559125170889
C          111.42356582644690        0.02761512858032       -7.13127204501580
C          111.44974479010186       -0.16816431442275       -5.76273903216704
C          109.62095905783481        0.37674136113750       -2.74530941757800
C          108.31676626658454        0.37494167840202       -3.38865687095464
C          107.40412958965895        0.24744761473998       -2.40381569945572
C          108.14994464796554        0.15613672147555       -1.16178940165201
N          109.48199489994107        0.22638776401123       -1.40708781941888
H          106.45295553900590        0.02932925275000        0.08794922996465
H          106.42491821383504       -0.18097414915642        2.71795235687576
H          108.30033250443695       -0.45092851431299        4.60403281748507
H          110.21559619688530       -0.15199041054710        0.85677609662272
H          112.19895437735266        1.03575306826419        5.37338677103936
H          112.25779966443828        0.70426085508603        7.77358409827273
H          110.85712240029657        0.65842990650803        9.83673306769088
H          111.46626412495334       -0.52006988154148       11.02445617041735
H          112.54419379704416        0.07948072734959        9.76265767000872
H          109.09150518503641       -1.84660677361348        9.47037211210246
H          110.23148288755077       -3.21490010306325        9.35512688684990
H          110.22153770676434       -2.20146621449882       10.79971639780104
H          109.88425299485476       -2.86721043364211        7.30948910458536
H          109.84843009207434       -2.51279605278254        4.91188048141610
H          113.65882563532418       -0.89233795676489        4.45999542959601
H          115.48813404499336       -0.59037931549028        2.51320188770704
H          115.39648267593482        0.55943108868720       -2.61244459932260
H          113.51423792474395        0.84423917882917       -4.48739492906815
H          111.61807335841998        0.06878475842835       -0.79731268296493
H          109.63800923463285        2.51476500634494       -4.79429403589482
H          109.57814867018858        2.87783240159152       -7.18966411258826
H          111.58756581925644        0.92811479554728      -10.92003720122724
H          112.72245863485007        0.87959886595900       -9.54898502383393
H          111.56490314096439       -0.45149634527145       -9.81997635483004
H          109.29579361146628        2.85292409513545       -9.27562727721375
H          110.37397159841728        2.62552697596210      -10.65383961036788
H          110.98963759161832        3.40789580287742       -9.17760368093535
H          111.92076036973106       -0.69849488912861       -7.76148700689374
H          111.95817842472174       -1.03859507386928       -5.36198816536310
H          108.14629075842672        0.44462068836748       -4.45097218724316
H          106.32882139393459        0.20422336197867       -2.48083020722748
C          244.36772928374353        0.04538394441769       -0.08616210401117
C          243.75912063150483        0.19277967693812       -1.32645336571348
C          244.41180830416479        0.39054170584583       -2.57475698838164
C          243.45117671702732        0.47214731949702       -3.54421300316913
C          242.18141678631972        0.31440915692823       -2.92058598869061
N          242.41738300104868        0.16185234844519       -1.58360932207645
C          240.91938072572316        0.32405863934470       -3.52935499884788
C          240.88974683286770        0.46089939158938       -5.00277655544120
C          240.20341217018088        1.51189365152606       -5.61405876960294
C          240.18138364512041        1.65056217978214       -6.98974198923513
C          240.84489219866614        0.73272516082968       -7.81812387572788
N          240.77879355459623        0.83227884269687       -9.20431987325635
C          240.38193780064097        2.12161371766957       -9.77044826813442
C          241.80651598996823        0.13314402092890       -9.97711553590830
C          241.52004015324030       -0.33218802604768       -7.20226822777077
C          241.54579426892809       -0.45693587703976       -5.82528400024671
C          239.70611031202449        0.21390079975803       -2.84456571419598
C          238.41051876106744        0.14911882205729       -3.49583829680138
C          237.49118606002040        0.05987443727568       -2.51195912189788
N          239.55261042940080        0.13716098335869       -1.49309150395870
C          238.22695879552447        0.05690969769670       -1.26301607560063
C          237.58952113295541       -0.01078394785428       -0.00641472000449
C          238.22433493227408       -0.08088782104695        1.24913456836782
C          237.57788993905572       -0.11419881185222        2.51246254088686
C          238.54294848566875       -0.20034187918898        3.47807494696894
C          239.80927824810342       -0.23235793912116        2.83207578546399
N          239.56451898337372       -0.14660104372271        1.48616265681543
C          241.06998994457072       -0.31215335545973        3.43541098966565
C          241.10047444174242       -0.44557979457127        4.90831834364011
C          241.77390974234081        0.48512590230660        5.70207015123793
C          241.79588727574236        0.37064196812767        7.07991805317045
C          241.14614529718247       -0.69201024711440        7.72628042583787
N          241.21252515932008       -0.84510401085488        9.10730908367264
C          240.20130749819782       -1.69429665415366        9.73848683814906
C          241.58488498304843        0.32731276245024        9.89936823680810
C          240.48516291723848       -1.63608783880431        6.92555138129364
C          240.45850602174852       -1.50729804102738        5.54911247798579
C          242.28592611427428       -0.27256407612551        2.74161664337814
C          243.59041373667847       -0.42211834030801        3.36672785896614
C          244.50280848994325       -0.31490367804765        2.37924757240344
C          243.75657380585483       -0.11551333935416        1.15019019114955
N          242.42451694696541       -0.10680521332270        1.40517611670843
H          245.45317764985765        0.05678362309806       -0.09462705395905
H          245.48012406302973        0.46682681014873       -2.70107449233029
H          243.60432145902138        0.63823990323738       -4.59823630167834
H          241.69062675287589        0.04885992337461       -0.88476070983683
H          239.69761918799387        2.24827738953021       -4.99895204935746
H          239.63766201182011        2.48666911958651       -7.41012619776753
H          241.03568140904071        2.93101795341137       -9.42674425281970
H          240.43096169705348        2.05974222299738      -10.85705715613830
H          239.35156246164846        2.34227417732709       -9.49008791729382
H          242.81413957368531        0.41875095675725       -9.65544417914623
H          241.68109822190755       -0.94424280246373       -9.86402764543696
H          241.68482807344654        0.37913319265538      -11.03135847181531
H          242.02765009453410       -1.08340170525906       -7.79360310923528
H          242.06438276601702       -1.29908907861914       -5.37956832155393
H          238.24752982016904        0.15286234920218       -4.56139169087094
H          236.41856290337694       -0.01031227625316       -2.59776988017869
H          236.51018407415663       -0.07025053885033        2.65532624723905
H          238.39285135419675       -0.22573016534803        4.54506260240572
H          240.28842966901072       -0.12330400148691        0.77548840837997
H          242.26769657256958        1.32908809039802        5.23262191251482
H          242.32834031909812        1.12353107559194        7.64659678001165
H          240.32307980795051       -1.64493222983660       10.81991132254784
H          239.18720057360383       -1.37344550130143        9.47596539363188
H          240.34635350214285       -2.72964381663305        9.42820987184750
H          242.61170306353429        0.61311390936660        9.66918374679451
H          241.53447373154532        0.06931998092318       10.95662914546464
H          240.91727947960476        1.17385442340539        9.70383663721057
H          239.98879765420540       -2.48957409015660        7.36916157612929
H          239.95052936468326       -2.26067096772311        4.95653672800323
H          243.76127851608769       -0.60171103658575        4.41600450193918
H          245.57822316461522       -0.37301406164757        2.44400316856202
C          115.72128793584945        0.01058845227936       -0.02349121259502
C          116.94639909863656        0.02363129915446       -0.03758882137892
C          118.28803920220854        0.04068447767699       -0.04745746869199
C          119.51921999587603        0.05824360538789       -0.05625297615853
C          120.85608206520094        0.07822724226809       -0.06151732963800
C          122.08732633952174        0.09875821701142       -0.06409557205373
C          123.42871217963815        0.12044285847522       -0.06267767732199
C          124.65398858101810        0.14192428027914       -0.06209056566632
C          134.30884365428332        0.16977261090764       -0.00324647902684
C          135.53438358901244        0.15877081333248       -0.00254026241315
C          136.87565593868973        0.14906403874780        0.00027878363297
C          138.10724734680721        0.14256429889341        0.00004233120702
C          139.44393294127201        0.13822968729110       -0.00159614467987
C          140.67553854751517        0.13693296719511       -0.00326077968135
C          142.01685935363986        0.13829298584983       -0.00307455450662
C          143.24243101565122        0.14220771721203       -0.00608015647351
C          152.89767732096070        0.13213048146120        0.01077687509226
C          154.12323951331646        0.12563326947558        0.00712894578876
C          155.46454146240825        0.12127822096014        0.00657754619822
C          156.69614326078565        0.11985993756219        0.00097057416942
C          158.03283231276521        0.12036385707797       -0.00074346805420
C          159.26445231820597        0.12218623844544       -0.00542086620550
C          160.60577935817869        0.12545792300007       -0.00680309635515
C          161.83131518101609        0.13663856442265       -0.01017363660433
C          171.48653683725144        0.13714287652227        0.00701282283442
C          172.71210113839820        0.12942755389368        0.00332380795236
C          174.05340017292892        0.12424352522037        0.00178810221554
C          175.28500144521681        0.12172389467219       -0.00138562509964
C          176.62168552427227        0.12142923276484       -0.00450879720647
C          177.85329135836963        0.12454578676493       -0.00775114925505
C          179.19460062185667        0.12945247344275       -0.00947224701869
C          180.42018574591319        0.13675451411765       -0.01180975240275
C          190.07532892221911        0.13551455072487        0.00739110688807
C          191.30092255138979        0.12819661081153        0.00413552072532
C          192.64222904413901        0.12232919093493        0.00247097593418
C          193.87382559266442        0.11900613274536       -0.00224382503271
C          195.21050184523168        0.11947268036954       -0.00601690274990
C          196.44210159116787        0.12199035032282       -0.00925317085648
C          197.78339391468887        0.12680914592158       -0.01020052343116
C          199.00895624271661        0.13344163719645       -0.01376343304249
C          208.66403717060868        0.14394479860065        0.00394304161942
C          209.88960736489699        0.13963771031090        0.00101802732819
C          211.23092400251238        0.13832733854512        0.00022940057125
C          212.46252888778764        0.14015650068036       -0.00145907766026
C          213.79922858548414        0.14164662869419       -0.00187340954936
C          215.03083090397033        0.14644107336982       -0.00122385684939
C          216.37210480152095        0.15518516179767       -0.00038186415027
C          217.59765429985865        0.16438827290574        0.00136665112235
C          227.25230058208277        0.11478954773862        0.05882182653616
C          228.47757163301358        0.09318394777806        0.05809903234566
C          229.81895373228315        0.07154509133067        0.05820091164574
C          231.05022537403488        0.05016525818677        0.05306911836761
C          232.38705737190443        0.02918698533923        0.04518105850481
C          233.61833156756822        0.01344170722779        0.03821134906666
C          234.96002480994147        0.00372189389121        0.02549066512861
C          236.18512645417908       -0.00629997504989        0.00912039842651
C          126.05728906174691        0.16259390301126       -0.05309834088675
C          126.67515816318981        0.08962005487648        1.21144001211464
C          126.01684138515110       -0.03618856431459        2.46106434197725
C          126.97245255276086       -0.04115288009943        3.44121367673670
C          128.24181751424226        0.09130384919909        2.81712973070705
N          128.01198900302629        0.15323785788048        1.46834646523143
C          129.49471550765654        0.13808983521883        3.44434962792220
C          129.49385646778987        0.11968158185681        4.92445861835482
C          128.82101647375057        1.10057359724133        5.65580093563279
C          128.81786216698174        1.08819279858108        7.03841986622697
C          129.47827201664364        0.07670791142533        7.75274391647076
N          129.51407469917589        0.08846369287041        9.14300337174962
C          128.47784569142084        0.85529579488909        9.83591937066786
C          129.89082391466488       -1.15273189083943        9.81971413866732
C          130.15844287560535       -0.90476668989878        7.01558156121688
C          130.16653795009682       -0.87765089279947        5.63312927375191
C          130.72309856214378        0.19850954108352        2.78232291726036
C          132.00235919903864        0.31655308598447        3.45799128971632
C          132.94625108842783        0.32065766689763        2.49338137998607
N          130.90956008415435        0.16281563484868        1.43349268246775
C          132.24124001490819        0.22032968140466        1.23163736624311
C          132.90567350252738        0.18006717213317       -0.01157933453507
C          132.28804568979700        0.15408433689593       -1.27810334957565
C          132.94694001571762        0.07982906389218       -2.53161688674486
C          131.99128952649687        0.10697884368815       -3.51128265685114
C          130.72120524787843        0.20894797827535       -2.88277410690558
N          130.95099390964276        0.22046509985153       -1.53242265355162
C          129.46816700871338        0.27352435307136       -3.50761811422179
C          129.46826659648016        0.31040391659867       -4.98729008550156
C          130.13804709913245        1.31948244045906       -5.68223275269079
C          130.14044348294868        1.35815636747126       -7.06434852756218
C          129.48219570481336        0.37206114944909       -7.81527678009465
N          129.44575529063349        0.43542026325529       -9.20406355378067
C          129.06727947103599       -0.77913589035747       -9.92649857620218
C          130.48222821996404        1.22682933326048       -9.86845247978800
C          128.80497838391736       -0.63775661261633       -7.11457247965352
C          128.79774812320215       -0.66180415768921       -5.73207923794186
C          128.23941758248895        0.30325938914693       -2.84351742684160
C          126.95964987820442        0.44228858410708       -3.51410876011625
C          126.01578722750665        0.40397098176704       -2.55015922507948
C          126.72125195719165        0.25700788816496       -1.29338078882844
N          128.05345238160294        0.21387611650612       -1.49738446456070
H          124.94917060001445       -0.11785248052218        2.58610326235725
H          126.81254684809515       -0.14078746314218        4.50236089918819
H          128.73926830077400        0.22671765886040        0.76484266532262
H          128.31188904812245        1.90260976530586        5.13208577621650
H          128.29839909458011        1.88439647754019        7.55590498415088
H          128.57886876132366        0.69708816386407       10.90899869003976
H          128.61326203881802        1.91878330229985        9.63607701342755
H          127.47412254552580        0.54977923597072        9.52052840110318
H          130.92676538667874       -1.39803639216035        9.58376869907675
H          129.24189510625166       -1.98490923246886        9.52489900451918
H          129.81499966370131       -1.00462694108070       10.89638007713174
H          130.69182368022086       -1.70387357078153        7.51392619305313
H          130.68460511855318       -1.66094706507117        5.09048469138776
H          132.13897190517838        0.40227034804579        4.52377828654284
H          134.01679164513968        0.39559619778230        2.59891105908821
H          134.01500982534705        0.00848588472034       -2.65955115556707
H          132.15166862248032        0.04841017516792       -4.57541495705711
H          130.22343032117431        0.26290895674518       -0.82666645977481
H          130.64513943319679        2.10313000786575       -5.12951255559264
H          130.65737944798644        2.17434664678224       -7.55239663666440
H          129.71679092006636       -1.62198187997277       -9.66514946675871
H          128.03187171955045       -1.03312885806886       -9.69751959800205
H          129.14049887624734       -0.59017161750418      -10.99693483204084
H          131.48576306116769        0.91043119988029       -9.56339719547911
H          130.38206297454275        1.10701861890526      -10.94656761474507
H          130.34647138075047        2.28248118653098       -9.63083662630707
H          128.27346988267723       -1.41938570745879       -7.64179107806149
H          128.28219878263920       -1.46608882080291       -5.21851779443558
H          126.82252264275883        0.56968347803914       -4.57565119119973
H          124.94491652914137        0.47824156655064       -2.65272775855692
C          144.64568282378841        0.14793358426826       -0.00335990542206
C          145.26862607843893        0.07534615702509        1.25877627837144
C          144.61490882209236       -0.04369053335162        2.51146598525821
C          145.57478368713763       -0.05413758197990        3.48739049472106
C          146.84227187894015        0.06893798627108        2.85757156952281
N          146.60690288069733        0.13017145955966        1.50963213635910
C          148.09811694955221        0.10954287629871        3.47915811493799
C          148.10404233020006        0.09251508136958        4.95923092186337
C          147.43907425303917        1.07710158072474        5.69283755511162
C          147.44280121007125        1.06626268115149        7.07544209153836
C          148.10254610044365        0.05279922114996        7.78762306482667
N          148.14555713246551        0.06618102749561        9.17753872956769
C          147.11631081343688        0.83822695167289        9.87503376319682
C          148.52193406355545       -1.17511471704046        9.85420805719517
C          148.77471766420570       -0.93248385306485        7.04815135964156
C          148.77599177920010       -0.90692762546500        5.66566108072311
C          149.32391893173912        0.16456878516073        2.81167854342930
C          150.60631255598949        0.27974552435502        3.48183669706522
C          151.54604259892642        0.28229347363373        2.51316623358933
N          149.50447241549676        0.12805712934329        1.46213099753234
C          150.83545598888807        0.18322242403079        1.25448955978324
C          151.49447786135400        0.14197819353156        0.00846781976663
C          150.87145353431160        0.11349091409064       -1.25538396031080
C          151.52501933276864        0.03604795494572       -2.51144411226379
C          150.56517516789597        0.06049556060832       -3.48711546212539
C          149.29784059916028        0.16406103051447       -2.85343922304564
N          149.53330651688825        0.17903079063023       -1.50416217429289
C          148.04214945769095        0.22764484925033       -3.47323481685682
C          148.03624396669096        0.26132304165246       -4.95301667600870
C          148.70260753733666        1.26961279355681       -5.65236836233990
C          148.69881762106030        1.30636364189185       -7.03452107794088
C          148.03758905441600        0.31895249390012       -7.78109828342378
N          147.99450142523401        0.38033159816261       -9.16970745740001
C          147.61572551118621       -0.83611647040675       -9.88880982039401
C          149.02502650844275        1.17420313963618       -9.84029935697614
C          147.36410637071180       -0.69028139313114       -7.07591074100776
C          147.36290077152373       -0.71230154440261       -5.69335759284307
C          146.81634048891664        0.26170763733452       -2.80422586898819
C          145.53417618046583        0.40150424739856       -3.47007618011369
C          144.59442150303079        0.37284550550809       -2.50183782631855
C          145.30478507165262        0.23007139692612       -1.24727033263376
N          146.63574142616289        0.17972806161843       -1.45674406333196
H          143.54726451850385       -0.11798215253267        2.64125314779048
H          145.41883563534464       -0.15141817726329        4.54934066162947
H          147.33155742302657        0.19791988233528        0.80285010158295
H          146.93096134659629        1.88086043220263        5.17078905325054
H          146.92940860317265        1.86528239121143        7.59463218796648
H          147.22235327154240        0.68086100824455       10.94774740911775
H          147.25513667805416        1.90089809995034        9.67318156430800
H          146.10966101816763        0.53657290481764        9.56532900521538
H          149.55570196842240       -1.42430480906897        9.61283965291447
H          147.86856262568350       -2.00559353179502        9.56446808067500
H          148.45267204993164       -1.02494846291768       10.93102810701284
H          149.30712362009527       -1.73333894962591        7.54472684943025
H          149.28798845146130       -1.69302066838641        5.12129779465285
H          150.74770545219414        0.36513930732009        4.54701952172002
H          152.61715575779849        0.35521367714787        2.61412315899175
H          152.59254531207776       -0.03549866432789       -2.64372514211393
H          150.72098676664490       -0.00077617877328       -4.55177162143402
H          148.80875150742415        0.22383354884102       -0.79545471271691
H          149.21186232397417        2.05421591325277       -5.10300524310355
H          149.21329714187470        2.12206102209662       -7.52595978702304
H          148.26782112384925       -1.67724286644676       -9.62838883035913
H          146.58164733336832       -1.09178560128325       -9.65569341832670
H          147.68474556332069       -0.64880481937890      -10.95981001717539
H          150.03116407451338        0.86053389946409       -9.54104571468589
H          148.91886655079017        1.05383815415578      -10.91777962491169
H          148.88785698348818        2.22955739632162       -9.60217244340453
H          146.83060871208292       -1.47286238574834       -7.59970338502849
H          146.84983482791208       -1.51595402919080       -5.17632812018352
H          145.39292863055124        0.52304132895411       -4.53176003421810
H          143.52343074606304        0.45079484089415       -2.60027099289440
C          163.23453313142548        0.14550352812235       -0.00738615066176
C          163.85754753716358        0.07355923628236        1.25475713964556
C          163.20399135107240       -0.04655752877330        2.50744470611170
C          164.16385995455514       -0.05551964978757        3.48337630468483
C          165.43119129235302        0.06930375421308        2.85356800248265
N          165.19573404196657        0.13022705353994        1.50561415223019
C          166.68694539855946        0.11136778578185        3.47518344338733
C          166.69278892707470        0.09454723196239        4.95525064026462
C          166.02672027126411        1.07857635837431        5.68861451230367
C          166.03030236524930        1.06798406998332        7.07121612906867
C          166.69098980186652        0.05530338415141        7.78364882028089
N          166.73383933662495        0.06896080565746        9.17353859561708
C          165.70398139136074        0.84033644473734        9.87086041210363
C          167.11138946919718       -1.17180411423477        9.85051996507184
C          167.36421510865662       -0.92944753716783        7.04441394494162
C          167.36564719393633       -0.90411324817005        5.66192318390267
C          167.91273484758574        0.16746950513778        2.80772354507978
C          169.19502682092934        0.28362217493807        3.47789397794528
C          170.13477648630786        0.28665171819958        2.50924053680158
N          168.09331054297175        0.13094874809283        1.45820255352691
C          169.42428022208685        0.18699009611289        1.25057232586536
C          170.08332291178203        0.14607060653857        0.00457264344584
C          169.46031412734072        0.11766106764224       -1.25930013845513
C          170.11391506295345        0.04097879221322       -2.51537771824695
C          169.15405545812817        0.06528408003619       -3.49104763927051
C          167.88667835969008        0.16801781123464       -2.85733990691943
N          168.12212638266138        0.18267002905737       -1.50807542999670
C          166.63091937960144        0.23101857896646       -3.47714507620421
C          166.62503178232137        0.26508786321741       -4.95690600285142
C          167.29100557915791        1.27378814152199       -5.65604594027215
C          167.28735795069866        1.31072595048592       -7.03819173285741
C          166.62667403445755        0.32310806454921       -7.78498806976677
N          166.58376971538215        0.38458800893041       -9.17357744702098
C          166.20568518693469       -0.83196861299880       -9.89286148692784
C          167.61388389162093        1.17913911686682       -9.84398752911962
C          165.95354055363484       -0.68651293865400       -7.08001234075957
C          165.95219615323140       -0.70872824864204       -5.69746863718363