      -----------------------------------------------------------      
     |                   =====================                   |     
     |                           x T B                           |     
     |                   =====================                   |     
     |                         S. Grimme                         |     
     |          Mulliken Center for Theoretical Chemistry        |     
     |                    University of Bonn                     |     
      -----------------------------------------------------------      

   * xtb version 6.5.1 (b24c23e) compiled by 'conda@728c89f4b128' on 2022-07-12

   xtb is free software: you can redistribute it and/or modify it under
   the terms of the GNU Lesser General Public License as published by
   the Free Software Foundation, either version 3 of the License, or
   (at your option) any later version.
   
   xtb is distributed in the hope that it will be useful,
   but WITHOUT ANY WARRANTY; without even the implied warranty of
   MERCHANTABILITY or FITNESS FOR A PARTICULAR PURPOSE.  See the
   GNU Lesser General Public License for more details.
   
   Cite this work as:
   * C. Bannwarth, E. Caldeweyher, S. Ehlert, A. Hansen, P. Pracht,
     J. Seibert, S. Spicher, S. Grimme, WIREs Comput. Mol. Sci., 2020, 11,
     e01493. DOI: 10.1002/wcms.1493
   
   for GFN2-xTB:
   * C. Bannwarth, S. Ehlert and S. Grimme., J. Chem. Theory Comput., 2019,
     15, 1652-1671. DOI: 10.1021/acs.jctc.8b01176
   for GFN1-xTB:
   * S. Grimme, C. Bannwarth, P. Shushkov, J. Chem. Theory Comput., 2017,
     13, 1989-2009. DOI: 10.1021/acs.jctc.7b00118
   for GFN0-xTB:
   * P. Pracht, E. Caldeweyher, S. Ehlert, S. Grimme, ChemRxiv, 2019, preprint.
     DOI: 10.26434/chemrxiv.8326202.v1
   for GFN-FF:
   * S. Spicher and S. Grimme, Angew. Chem. Int. Ed., 2020, 59, 15665-15673.
     DOI: 10.1002/anie.202004239
   
   for ALPB and GBSA implicit solvation:
   * S. Ehlert, M. Stahn, S. Spicher, S. Grimme, J. Chem. Theory Comput.,
     2021, 17, 4250-4261. DOI: 10.1021/acs.jctc.1c00471
   
   for DFT-D4:
   * E. Caldeweyher, C. Bannwarth and S. Grimme, J. Chem. Phys., 2017,
     147, 034112. DOI: 10.1063/1.4993215
   * E. Caldeweyher, S. Ehlert, A. Hansen, H. Neugebauer, S. Spicher,
     C. Bannwarth and S. Grimme, J. Chem. Phys., 2019, 150, 154122.
     DOI: 10.1063/1.5090222
   * E. Caldeweyher, J.-M. Mewes, S. Ehlert and S. Grimme, Phys. Chem. Chem. Phys.
     2020, 22, 8499-8512. DOI: 10.1039/D0CP00502A
   
   for sTDA-xTB:
   * S. Grimme and C. Bannwarth, J. Chem. Phys., 2016, 145, 054103.
     DOI: 10.1063/1.4959605
   
   in the mass-spec context:
   * V. Asgeirsson, C. Bauer and S. Grimme, Chem. Sci., 2017, 8, 4879.
     DOI: 10.1039/c7sc00601b
   * J. Koopman and S. Grimme, ACS Omega 2019, 4, 12, 15120-15133.
     DOI: 10.1021/acsomega.9b02011
   
   for metadynamics refer to:
   * S. Grimme, J. Chem. Theory Comput., 2019, 155, 2847-2862
     DOI: 10.1021/acs.jctc.9b00143
   
   for SPH calculations refer to:
   * S. Spicher and S. Grimme, J. Chem. Theory Comput., 2021, 17, 1701-1714
     DOI: 10.1021/acs.jctc.0c01306
   
   with help from (in alphabetical order)
   P. Atkinson, C. Bannwarth, F. Bohle, G. Brandenburg, E. Caldeweyher
   M. Checinski, S. Dohm, S. Ehlert, S. Ehrlich, I. Gerasimov, C. Hölzer
   A. Katbashev, J. Koopman, C. Lavigne, S. Lehtola, F. März, M. Müller,
   F. Musil, H. Neugebauer, J. Pisarek, C. Plett, P. Pracht, F. Pultar,
   J. Seibert, P. Shushkov, S. Spicher, M. Stahn, M. Steiner, T. Strunk,
   J. Stückrath, T. Rose, and J. Unsleber
   
 * started run on 2022/07/30 at 11:52:34.060     

           -------------------------------------------------
          |                Calculation Setup                |
           -------------------------------------------------

          program call               : xtb Cu_Ph2OMe_C2_2.xyz --gfn 1 --opt -T 48
          hostname                   : cx3-15-13.cx3.hpc.ic.ac.uk
          coordinate file            : Cu_Ph2OMe_C2_2.xyz
          omp threads                :                     1

   ID    Z sym.   atoms
    1   29 Cu     1, 73
    2    6 C      2-6, 8-11, 13-21, 23-27, 29-33, 36, 37, 39-43, 45, 74-78,
                  80-83, 85-93, 95-99, 101-105, 108, 109, 111-115, 117, 145,
                  146
    3    7 N      7, 12, 34, 35, 79, 84, 106, 107
    4    8 O      22, 28, 38, 44, 94, 100, 110, 116
    5    1 H      46-72, 118-144
########################################################################
[WARNING] Please study the warnings concerning your input carefully
-1- prog_main_parseArguments: Unknown option '-T' provided
########################################################################

           -------------------------------------------------
          |                 G F N 1 - x T B                 |
           -------------------------------------------------

        Reference                      10.1021/acs.jctc.7b00118
      * Hamiltonian:
        H0-scaling (s, p, d)           1.850000    2.250000    2.000000
        zeta-weighting                 0.000000
      * Dispersion:
        s8                             2.400000
        a1                             0.630000
        a2                             5.000000
        s9                             0.000000
      * Repulsion:
        kExp                           1.500000
        rExp                           1.000000
      * Coulomb:
        alpha                          2.000000
        third order                    atomic
        anisotropic                    false
      * Halogen bond correction:
        rad-scale                      1.300000
        damping                        0.440000


          ...................................................
          :                      SETUP                      :
          :.................................................:
          :  # basis functions                 488          :
          :  # atomic orbitals                 486          :
          :  # shells                          294          :
          :  # electrons                       460          :
          :  # halogen bonds                     0          :
          :  max. iterations                   250          :
          :  Hamiltonian                  GFN1-xTB          :
          :  restarted?                      false          :
          :  GBSA solvation                  false          :
          :  PC potential                    false          :
          :  electronic temp.          300.0000000     K    :
          :  accuracy                    1.0000000          :
          :  -> integral cutoff          0.2500000E+02      :
          :  -> integral neglect         0.1000000E-07      :
          :  -> SCF convergence          0.1000000E-05 Eh   :
          :  -> wf. convergence          0.2000000E-04 e    :
          :  Broyden damping             0.4000000          :
          ...................................................

 iter      E             dE          RMSdq      gap      omega  full diag
   1   -260.4100860 -0.260410E+03  0.100E+01    0.00       0.0  T
   2   -260.8226887 -0.412603E+00  0.597E+00    0.00       1.0  T
   3   -260.7529833  0.697054E-01  0.910E-01    0.00       1.0  T
   4   -260.6771079  0.758754E-01  0.684E-01    0.13       1.0  T
   5   -260.5411025  0.136005E+00  0.930E-01    0.45       1.0  T
   6   -260.6923231 -0.151221E+00  0.713E-01    0.19       1.0  T
   7   -260.8202065 -0.127883E+00  0.296E-01    0.04       1.0  T
   8   -260.7704720  0.497345E-01  0.490E-01    0.09       1.0  T
   9   -260.8138278 -0.433558E-01  0.328E-01    0.05       1.0  T
  10   -260.8460157 -0.321879E-01  0.100E-01    0.01       1.0  T
  11   -260.8488647 -0.284899E-02  0.362E-02    0.01       1.0  T
  12   -260.8492796 -0.414860E-03  0.563E-03    0.00       1.5  T
  13   -260.8492376  0.419610E-04  0.126E-02    0.00       1.0  T
  14   -260.8492889 -0.512514E-04  0.148E-03    0.00       5.6  T
  15   -260.8492895 -0.640511E-06  0.481E-04    0.00      17.2  T
  16   -260.8492896 -0.746836E-07  0.245E-05    0.00     337.8  T
  17   -260.8492896  0.115834E-07  0.190E-04    0.00      43.5  T

   *** convergence criteria satisfied after 17 iterations ***

         #    Occupation            Energy/Eh            Energy/eV
      -------------------------------------------------------------
         1        2.0000           -0.7929606             -21.5776
       ...           ...                  ...                  ...
       224        2.0000           -0.3803160             -10.3489
       225        2.0000           -0.3793945             -10.3239
       226        2.0000           -0.3793221             -10.3219
       227        2.0000           -0.3782203             -10.2919
       228        2.0000           -0.3690367             -10.0420
       229        2.0000           -0.3654670              -9.9449
       230        1.0007           -0.3299559              -8.9786 (HOMO)
       231        0.9993           -0.3299533              -8.9785 (LUMO)
       232        0.0000           -0.3190923              -8.6829
       233                         -0.3091999              -8.4138
       234                         -0.3067006              -8.3457
       235                         -0.2999064              -8.1609
       ...                                ...                  ...
       486                          1.2436678              33.8419
      -------------------------------------------------------------
                  HL-Gap            0.0000026 Eh            0.0001 eV
             Fermi-level           -0.3299546 Eh           -8.9785 eV

 SCC (total)                   0 d,  0 h,  0 min,  1.457 sec
 SCC setup                      ...        0 min,  0.006 sec (  0.405%)
 Dispersion                     ...        0 min,  0.004 sec (  0.288%)
 classical contributions        ...        0 min,  0.002 sec (  0.123%)
 integral evaluation            ...        0 min,  0.137 sec (  9.410%)
 iterations                     ...        0 min,  0.938 sec ( 64.363%)
 molecular gradient             ...        0 min,  0.356 sec ( 24.461%)
 printout                       ...        0 min,  0.014 sec (  0.948%)

         :::::::::::::::::::::::::::::::::::::::::::::::::::::
         ::                     SUMMARY                     ::
         :::::::::::::::::::::::::::::::::::::::::::::::::::::
         :: total energy            -257.535308667320 Eh    ::
         :: gradient norm              0.396959806399 Eh/a0 ::
         :: HOMO-LUMO gap              0.000069874311 eV    ::
         ::.................................................::
         :: SCC energy              -260.849289583160 Eh    ::
         :: -> electrostatic           0.406789720191 Eh    ::
         :: repulsion energy           3.440957257188 Eh    ::
         :: dispersion energy         -0.126976341347 Eh    ::
         :: halogen bond corr.         0.000000000000 Eh    ::
         :: add. restraining           0.000000000000 Eh    ::
         :: total charge               0.000000000000 e     ::
         :::::::::::::::::::::::::::::::::::::::::::::::::::::

      ----------------------------------------------------------- 
     |                   =====================                   |
     |                        A N C O P T                        |
     |                   =====================                   |
     |               Approximate Normal Coordinate               |
     |                Rational Function Optimizer                |
      ----------------------------------------------------------- 

          ...................................................
          :                      SETUP                      :
          :.................................................:
          :   optimization level            normal          :
          :   max. optcycles                   438          :
          :   ANC micro-cycles                  20          :
          :   degrees of freedom               432          :
          :.................................................:
          :   RF solver                   davidson          :
          :   write xtbopt.log                true          :
          :   linear?                        false          :
          :   energy convergence         0.5000000E-05 Eh   :
          :   grad. convergence          0.1000000E-02 Eh/α :
          :   maximium RF displ.         1.0000000          :
          :   Hlow (freq-cutoff)         0.1000000E-01      :
          :   Hmax (freq-cutoff)         5.0000000          :
          :   S6 in model hess.         20.0000000          :
          ...................................................

generating ANC from model Hessian ...
Using Lindh-Hessian (1995)
 Shifting diagonal of input Hessian by    1.0005006668057200E-002
 Lowest  eigenvalues of input Hessian
    0.010000    0.000000    0.000000    0.000000    0.000000    0.000000
    0.000000    0.010009    0.010021    0.010062    0.010083    0.010142
    0.010143    0.010147    0.010250    0.010271    0.010330    0.010352
 Highest eigenvalues
    2.097029    2.098106    2.098891    2.103019    2.103104    2.426491


........................................................................
.............................. CYCLE    1 ..............................
........................................................................
   1   -260.8492896 -0.260849E+03  0.505E-05    0.00       0.0  T
   2   -260.8492886  0.998240E-06  0.172E-03    0.00       4.8  T
   3   -260.8492896 -0.999088E-06  0.715E-06    0.00    1157.0  T
   4   -260.8492896  0.666773E-10  0.160E-05    0.00     516.9  T
     SCC iter.                  ...        0 min,  0.226 sec
     gradient                   ...        0 min,  0.357 sec
 * total energy  :  -257.5353087 Eh     change       -0.1170054E-07 Eh
   gradient norm :     0.3969597 Eh/α   predicted     0.0000000E+00 (-100.00%)
   displ. norm   :     0.4448418 α      lambda       -0.1145052E+00
   maximum displ.:     0.1302160 α      in ANC's #86, #216, #184, ...

........................................................................
.............................. CYCLE    2 ..............................
........................................................................
   1   -260.9148650 -0.260915E+03  0.136E-01    0.00       0.0  T
   2   -260.9175803 -0.271530E-02  0.595E-02    0.00       1.0  T
   3   -260.9179136 -0.333283E-03  0.533E-02    0.01       1.0  T
   4   -260.8349038  0.830098E-01  0.498E-01    0.09       1.0  T
   5   -260.9187160 -0.838122E-01  0.204E-02    0.00       1.0  T
   6   -260.9187941 -0.781551E-04  0.102E-02    0.00       1.0  T
   7   -260.9188333 -0.391497E-04  0.197E-03    0.00       4.2  T
   8   -260.9188341 -0.857417E-06  0.897E-04    0.00       9.2  T
   9   -260.9188344 -0.272500E-06  0.376E-04    0.00      22.0  T
  10   -260.9188344 -0.301940E-07  0.267E-04    0.00      31.0  T
  11   -260.9188344 -0.131239E-07  0.193E-04    0.00      42.8  T
  12   -260.9188345 -0.117556E-07  0.453E-05    0.00     182.7  T
     SCC iter.                  ...        0 min,  0.662 sec
     gradient                   ...        0 min,  0.357 sec
 * total energy  :  -257.6248947 Eh     change       -0.8958599E-01 Eh
   gradient norm :     0.2279366 Eh/α   predicted    -0.6862302E-01 ( -23.40%)
   displ. norm   :     0.4944427 α      lambda       -0.7750806E-01
   maximum displ.:     0.1899026 α      in ANC's #86, #428, #426, ...

........................................................................
.............................. CYCLE    3 ..............................
........................................................................
   1   -260.9928600 -0.260993E+03  0.165E-01    0.01       0.0  T
   2   -260.9960520 -0.319204E-02  0.705E-02    0.01       1.0  T
   3   -260.9901025  0.594949E-02  0.150E-01    0.02       1.0  T
   4   -260.9242726  0.658299E-01  0.463E-01    0.08       1.0  T
   5   -260.9978720 -0.735993E-01  0.214E-02    0.01       1.0  T
   6   -260.9979554 -0.834530E-04  0.120E-02    0.01       1.0  T
   7   -260.9980018 -0.463675E-04  0.304E-03    0.01       2.7  T
   8   -260.9980050 -0.319974E-05  0.161E-03    0.01       5.1  T
   9   -260.9980062 -0.123765E-05  0.730E-04    0.01      11.3  T
  10   -260.9980064 -0.162388E-06  0.265E-04    0.01      31.2  T
  11   -260.9980064  0.180402E-07  0.345E-04    0.01      24.0  T
  12   -260.9980064 -0.396261E-07  0.502E-05    0.01     164.8  T
  13   -260.9980064 -0.664556E-09  0.234E-05    0.01     353.7  T
     SCC iter.                  ...        0 min,  0.718 sec
     gradient                   ...        0 min,  0.356 sec
 * total energy  :  -257.6745487 Eh     change       -0.4965402E-01 Eh
   gradient norm :     0.0644363 Eh/α   predicted    -0.4822837E-01 (  -2.87%)
   displ. norm   :     0.5603506 α      lambda       -0.1968830E-01
   maximum displ.:     0.2883503 α      in ANC's #86, #54, #94, ...

........................................................................
.............................. CYCLE    4 ..............................
........................................................................
   1   -261.0372707 -0.261037E+03  0.570E-02    0.01       0.0  T
   2   -261.0375545 -0.283866E-03  0.221E-02    0.01       1.0  T
   3   -261.0376357 -0.812022E-04  0.150E-02    0.01       1.0  T
   4   -261.0369873  0.648383E-03  0.485E-02    0.01       1.0  T
   5   -261.0373715 -0.384142E-03  0.349E-02    0.01       1.0  T
   6   -261.0377798 -0.408288E-03  0.251E-03    0.01       3.3  T
   7   -261.0377809 -0.113173E-05  0.118E-03    0.01       7.0  T
   8   -261.0377816 -0.679340E-06  0.377E-04    0.01      22.0  T
   9   -261.0377817 -0.703430E-07  0.132E-04    0.01      62.5  T
  10   -261.0377817 -0.484653E-08  0.463E-05    0.01     178.6  T
     SCC iter.                  ...        0 min,  0.555 sec
     gradient                   ...        0 min,  0.357 sec
 * total energy  :  -257.6892381 Eh     change       -0.1468937E-01 Eh
   gradient norm :     0.0321837 Eh/α   predicted    -0.1293532E-01 ( -11.94%)
   displ. norm   :     0.6150419 α      lambda       -0.1093213E-01
   maximum displ.:     0.2534761 α      in ANC's #86, #54, #31, ...

........................................................................
.............................. CYCLE    5 ..............................
........................................................................
   1   -261.0631340 -0.261063E+03  0.273E-02    0.01       0.0  T
   2   -261.0631861 -0.520583E-04  0.123E-02    0.01       1.0  T
   3   -261.0589729  0.421325E-02  0.112E-01    0.02       1.0  T
   4   -261.0628458 -0.387291E-02  0.335E-02    0.01       1.0  T
   5   -261.0632300 -0.384217E-03  0.498E-03    0.01       1.7  T
   6   -261.0632368 -0.685111E-05  0.140E-03    0.01       5.9  T
   7   -261.0632372 -0.345180E-06  0.683E-04    0.01      12.1  T
   8   -261.0632374 -0.225098E-06  0.219E-04    0.01      37.8  T
   9   -261.0632374 -0.243169E-07  0.685E-05    0.01     120.8  T
  10   -261.0632374 -0.148538E-08  0.225E-05    0.01     368.0  T
     SCC iter.                  ...        0 min,  0.554 sec
     gradient                   ...        0 min,  0.356 sec
 * total energy  :  -257.6973929 Eh     change       -0.8154835E-02 Eh
   gradient norm :     0.0179277 Eh/α   predicted    -0.7533749E-02 (  -7.62%)
   displ. norm   :     0.6002781 α      lambda       -0.5687602E-02
   maximum displ.:     0.2422303 α      in ANC's #31, #54, #32, ...

........................................................................
.............................. CYCLE    6 ..............................
........................................................................
   1   -261.0843879 -0.261084E+03  0.149E-02    0.01       0.0  T
   2   -261.0844012 -0.132762E-04  0.781E-03    0.01       1.1  T
   3   -261.0820704  0.233074E-02  0.838E-02    0.01       1.0  T
   4   -261.0843386 -0.226819E-02  0.149E-02    0.01       1.0  T
   5   -261.0844085 -0.699140E-04  0.340E-03    0.01       2.4  T
   6   -261.0844125 -0.399915E-05  0.801E-04    0.01      10.3  T
   7   -261.0844127 -0.152394E-06  0.361E-04    0.01      22.9  T
   8   -261.0844127 -0.564283E-07  0.127E-04    0.01      65.2  T
   9   -261.0844128 -0.898297E-08  0.399E-05    0.01     207.3  T
     SCC iter.                  ...        0 min,  0.498 sec
     gradient                   ...        0 min,  0.359 sec
 * total energy  :  -257.7017376 Eh     change       -0.4344741E-02 Eh
   gradient norm :     0.0157348 Eh/α   predicted    -0.3868523E-02 ( -10.96%)
   displ. norm   :     0.5934205 α      lambda       -0.3513787E-02
   maximum displ.:     0.2859637 α      in ANC's #31, #32, #54, ...

........................................................................
.............................. CYCLE    7 ..............................
........................................................................
   1   -261.1024338 -0.261102E+03  0.109E-02    0.01       0.0  T
   2   -261.1024405 -0.673152E-05  0.569E-03    0.01       1.5  T
   3   -261.1023252  0.115371E-03  0.189E-02    0.01       1.0  T
   4   -261.1019786  0.346531E-03  0.375E-02    0.01       1.0  T
   5   -261.1024403 -0.461644E-03  0.253E-03    0.01       3.3  T
   6   -261.1024431 -0.280542E-05  0.491E-04    0.01      16.8  T
   7   -261.1024431 -0.692141E-07  0.215E-04    0.01      38.4  T
   8   -261.1024432 -0.197314E-07  0.810E-05    0.01     102.2  T
   9   -261.1024432 -0.354015E-08  0.244E-05    0.01     339.1  T
     SCC iter.                  ...        0 min,  0.497 sec
     gradient                   ...        0 min,  0.359 sec
 * total energy  :  -257.7044549 Eh     change       -0.2717318E-02 Eh
   gradient norm :     0.0123842 Eh/α   predicted    -0.2375582E-02 ( -12.58%)
   displ. norm   :     0.5745036 α      lambda       -0.2303534E-02
   maximum displ.:     0.3054038 α      in ANC's #31, #32, #13, ...

........................................................................
.............................. CYCLE    8 ..............................
........................................................................
   1   -261.1168407 -0.261117E+03  0.901E-03    0.01       0.0  T
   2   -261.1168449 -0.421054E-05  0.496E-03    0.01       1.7  T
   3   -261.1165542  0.290703E-03  0.298E-02    0.01       1.0  T
   4   -261.1167380 -0.183859E-03  0.182E-02    0.01       1.0  T
   5   -261.1168449 -0.106876E-03  0.246E-03    0.01       3.4  T
   6   -261.1168481 -0.318961E-05  0.407E-04    0.01      20.3  T
   7   -261.1168481 -0.157673E-07  0.147E-04    0.01      56.3  T
   8   -261.1168481 -0.882557E-08  0.520E-05    0.01     159.2  T
     SCC iter.                  ...        0 min,  0.444 sec
     gradient                   ...        0 min,  0.358 sec
 * total energy  :  -257.7062151 Eh     change       -0.1760121E-02 Eh
   gradient norm :     0.0084726 Eh/α   predicted    -0.1531914E-02 ( -12.97%)
   displ. norm   :     0.5288122 α      lambda       -0.1458015E-02
   maximum displ.:     0.2869923 α      in ANC's #31, #32, #13, ...

........................................................................
.............................. CYCLE    9 ..............................
........................................................................
   1   -261.1262268 -0.261126E+03  0.679E-03    0.00       0.0  T
   2   -261.1262277 -0.894372E-06  0.451E-03    0.00       1.8  T
   3   -261.1262227  0.496859E-05  0.586E-03    0.00       1.4  T
   4   -261.1254099  0.812788E-03  0.501E-02    0.01       1.0  T
   5   -261.1262338 -0.823863E-03  0.194E-03    0.00       4.3  T
   6   -261.1262351 -0.127000E-05  0.387E-04    0.00      21.4  T
   7   -261.1262351 -0.268785E-07  0.127E-04    0.00      65.1  T
   8   -261.1262351 -0.597578E-08  0.261E-05    0.00     317.7  T
     SCC iter.                  ...        0 min,  0.443 sec
     gradient                   ...        0 min,  0.359 sec
 * total energy  :  -257.7073184 Eh     change       -0.1103282E-02 Eh
   gradient norm :     0.0075723 Eh/α   predicted    -0.9328715E-03 ( -15.45%)
   displ. norm   :     0.4719606 α      lambda       -0.9361979E-03
   maximum displ.:     0.2386839 α      in ANC's #31, #13, #22, ...

........................................................................
.............................. CYCLE   10 ..............................
........................................................................
   1   -261.1307615 -0.261131E+03  0.542E-03    0.00       0.0  T
   2   -261.1307595  0.201870E-05  0.463E-03    0.00       1.8  T
   3   -261.1307693 -0.978506E-05  0.253E-03    0.00       3.3  T
   4   -261.1303256  0.443676E-03  0.368E-02    0.01       1.0  T
   5   -261.1307708 -0.445210E-03  0.169E-03    0.00       4.9  T
   6   -261.1307716 -0.794875E-06  0.368E-04    0.00      22.5  T
   7   -261.1307716 -0.282379E-07  0.117E-04    0.00      70.9  T
   8   -261.1307716 -0.434738E-08  0.267E-05    0.00     310.5  T
     SCC iter.                  ...        0 min,  0.443 sec
     gradient                   ...        0 min,  0.358 sec
 * total energy  :  -257.7080190 Eh     change       -0.7006233E-03 Eh
   gradient norm :     0.0071647 Eh/α   predicted    -0.5723691E-03 ( -18.31%)
   displ. norm   :     0.4069375 α      lambda       -0.5915160E-03
   maximum displ.:     0.1830191 α      in ANC's #13, #22, #31, ...

........................................................................
.............................. CYCLE   11 ..............................
........................................................................
   1   -261.1318770 -0.261132E+03  0.496E-03    0.00       0.0  T
   2   -261.1318747  0.224886E-05  0.443E-03    0.00       1.9  T
   3   -261.1318543  0.203987E-04  0.986E-03    0.00       1.0  T
   4   -261.1317437  0.110635E-03  0.208E-02    0.01       1.0  T
   5   -261.1318862 -0.142477E-03  0.105E-03    0.00       7.9  T
   6   -261.1318864 -0.254217E-06  0.335E-04    0.00      24.7  T
   7   -261.1318865 -0.287861E-07  0.940E-05    0.00      88.1  T
   8   -261.1318865 -0.200004E-08  0.300E-05    0.00     276.3  T
     SCC iter.                  ...        0 min,  0.445 sec
     gradient                   ...        0 min,  0.358 sec
 * total energy  :  -257.7084529 Eh     change       -0.4338901E-03 Eh
   gradient norm :     0.0054469 Eh/α   predicted    -0.3447485E-03 ( -20.54%)
   displ. norm   :     0.3310517 α      lambda       -0.3502072E-03
   maximum displ.:     0.1686050 α      in ANC's #22, #13, #23, ...

........................................................................
.............................. CYCLE   12 ..............................
........................................................................
   1   -261.1314900 -0.261131E+03  0.391E-03    0.00       0.0  T
   2   -261.1314894  0.598428E-06  0.314E-03    0.00       2.6  T
   3   -261.1314938 -0.434538E-05  0.168E-03    0.00       4.9  T
   4   -261.1313137  0.180095E-03  0.235E-02    0.01       1.0  T
   5   -261.1314945 -0.180833E-03  0.120E-03    0.00       6.9  T
   6   -261.1314949 -0.407114E-06  0.269E-04    0.00      30.8  T
   7   -261.1314950 -0.221948E-07  0.747E-05    0.00     110.8  T
   8   -261.1314950 -0.115949E-08  0.300E-05    0.00     275.7  T
     SCC iter.                  ...        0 min,  0.444 sec
     gradient                   ...        0 min,  0.359 sec
 * total energy  :  -257.7087139 Eh     change       -0.2610789E-03 Eh
   gradient norm :     0.0036653 Eh/α   predicted    -0.1942951E-03 ( -25.58%)
   displ. norm   :     0.2849682 α      lambda       -0.2456479E-03
   maximum displ.:     0.1586566 α      in ANC's #22, #13, #23, ...

........................................................................
.............................. CYCLE   13 ..............................
........................................................................
   1   -261.1308562 -0.261131E+03  0.253E-03    0.00       0.0  T
   2   -261.1308565 -0.266588E-06  0.163E-03    0.00       5.1  T
   3   -261.1308545  0.202341E-05  0.303E-03    0.00       2.7  T
   4   -261.1307909  0.635914E-04  0.143E-02    0.00       1.0  T
   5   -261.1308575 -0.666266E-04  0.572E-04    0.00      14.5  T
   6   -261.1308576 -0.910590E-07  0.174E-04    0.00      47.7  T
   7   -261.1308576 -0.937831E-08  0.601E-05    0.00     137.8  T
     SCC iter.                  ...        0 min,  0.388 sec
     gradient                   ...        0 min,  0.358 sec
 * total energy  :  -257.7089085 Eh     change       -0.1945783E-03 Eh
   gradient norm :     0.0033790 Eh/α   predicted    -0.1327996E-03 ( -31.75%)
   displ. norm   :     0.3081016 α      lambda       -0.2413307E-03
   maximum displ.:     0.1744274 α      in ANC's #22, #13, #23, ...

........................................................................
.............................. CYCLE   14 ..............................
........................................................................
   1   -261.1301685 -0.261130E+03  0.185E-03    0.00       0.0  T
   2   -261.1301671  0.137021E-05  0.240E-03    0.00       3.4  T
   3   -261.1299304  0.236792E-03  0.270E-02    0.01       1.0  T
   4   -261.1301688 -0.238472E-03  0.757E-04    0.00      10.9  T
   5   -261.1301690 -0.183101E-06  0.344E-04    0.00      24.0  T
   6   -261.1301690 -0.351594E-07  0.118E-04    0.00      70.0  T
   7   -261.1301690 -0.133753E-09  0.628E-05    0.00     131.7  T
     SCC iter.                  ...        0 min,  0.387 sec
     gradient                   ...        0 min,  0.356 sec
 * total energy  :  -257.7091022 Eh     change       -0.1936929E-03 Eh
   gradient norm :     0.0040198 Eh/α   predicted    -0.1321215E-03 ( -31.79%)
   displ. norm   :     0.3450126 α      lambda       -0.2328936E-03
   maximum displ.:     0.1950259 α      in ANC's #22, #13, #23, ...

........................................................................
.............................. CYCLE   15 ..............................
........................................................................
   1   -261.1295656 -0.261130E+03  0.234E-03    0.00       0.0  T
   2   -261.1295648  0.750084E-06  0.204E-03    0.00       4.1  T
   3   -261.1295553  0.950168E-05  0.609E-03    0.00       1.4  T
   4   -261.1295515  0.375353E-05  0.696E-03    0.00       1.2  T
   5   -261.1295674 -0.158982E-04  0.415E-04    0.00      19.9  T
   6   -261.1295675 -0.123378E-07  0.171E-04    0.00      48.3  T
   7   -261.1295675 -0.875582E-08  0.392E-05    0.00     211.2  T
     SCC iter.                  ...        0 min,  0.387 sec
     gradient                   ...        0 min,  0.357 sec
 * total energy  :  -257.7092832 Eh     change       -0.1809543E-03 Eh
   gradient norm :     0.0041966 Eh/α   predicted    -0.1303086E-03 ( -27.99%)
   displ. norm   :     0.3286091 α      lambda       -0.1759709E-03
   maximum displ.:     0.1877746 α      in ANC's #22, #13, #23, ...

........................................................................
.............................. CYCLE   16 ..............................
........................................................................
   1   -261.1294617 -0.261129E+03  0.279E-03    0.00       0.0  T
   2   -261.1294578  0.387059E-05  0.380E-03    0.00       2.2  T
   3   -261.1290785  0.379305E-03  0.343E-02    0.01       1.0  T
   4   -261.1294640 -0.385505E-03  0.172E-03    0.00       4.8  T
   5   -261.1294650 -0.980598E-06  0.460E-04    0.00      18.0  T
   6   -261.1294650 -0.165014E-07  0.193E-04    0.00      42.9  T
   7   -261.1294650 -0.107019E-07  0.474E-05    0.00     174.7  T
     SCC iter.                  ...        0 min,  0.387 sec
     gradient                   ...        0 min,  0.357 sec
 * total energy  :  -257.7094170 Eh     change       -0.1338296E-03 Eh
   gradient norm :     0.0036053 Eh/α   predicted    -0.9748906E-04 ( -27.15%)
   displ. norm   :     0.2872899 α      lambda       -0.1258376E-03
   maximum displ.:     0.1662842 α      in ANC's #22, #13, #23, ...

........................................................................
.............................. CYCLE   17 ..............................
........................................................................
   1   -261.1298370 -0.261130E+03  0.260E-03    0.00       0.0  T
   2   -261.1298353  0.164979E-05  0.271E-03    0.00       3.1  T
   3   -261.1297222  0.113086E-03  0.190E-02    0.00       1.0  T
   4   -261.1298368 -0.114563E-03  0.315E-03    0.00       2.6  T
   5   -261.1298401 -0.330773E-05  0.370E-04    0.00      22.4  T
   6   -261.1298401 -0.146892E-07  0.150E-04    0.00      55.1  T
   7   -261.1298401 -0.485369E-08  0.458E-05    0.00     180.8  T
     SCC iter.                  ...        0 min,  0.388 sec
     gradient                   ...        0 min,  0.358 sec
 * total energy  :  -257.7095134 Eh     change       -0.9640976E-04 Eh
   gradient norm :     0.0027792 Eh/α   predicted    -0.6811226E-04 ( -29.35%)
   displ. norm   :     0.2604178 α      lambda       -0.1009279E-03
   maximum displ.:     0.1500419 α      in ANC's #22, #13, #23, ...

........................................................................
.............................. CYCLE   18 ..............................
........................................................................
   1   -261.1303371 -0.261130E+03  0.215E-03    0.00       0.0  T
   2   -261.1303363  0.793176E-06  0.204E-03    0.00       4.1  T
   3   -261.1303279  0.840881E-05  0.590E-03    0.00       1.4  T
   4   -261.1303224  0.550802E-05  0.718E-03    0.00       1.2  T
   5   -261.1303394 -0.169694E-04  0.279E-04    0.00      29.7  T
   6   -261.1303394 -0.133304E-07  0.952E-05    0.00      86.9  T
   7   -261.1303394 -0.734019E-09  0.390E-05    0.00     212.3  T
     SCC iter.                  ...        0 min,  0.387 sec
     gradient                   ...        0 min,  0.359 sec
 * total energy  :  -257.7095896 Eh     change       -0.7620329E-04 Eh
   gradient norm :     0.0022318 Eh/α   predicted    -0.5388754E-04 ( -29.28%)
   displ. norm   :     0.2238855 α      lambda       -0.7397872E-04
   maximum displ.:     0.1280590 α      in ANC's #13, #22, #23, ...

........................................................................
.............................. CYCLE   19 ..............................
........................................................................
   1   -261.1305819 -0.261131E+03  0.156E-03    0.00       0.0  T
   2   -261.1305816  0.346615E-06  0.150E-03    0.00       5.5  T
   3   -261.1305461  0.354510E-04  0.106E-02    0.00       1.0  T
   4   -261.1305815 -0.354091E-04  0.208E-03    0.00       4.0  T
   5   -261.1305830 -0.144323E-05  0.242E-04    0.00      34.2  T
   6   -261.1305830 -0.973120E-08  0.705E-05    0.00     117.5  T
   7   -261.1305830 -0.281318E-09  0.251E-05    0.00     329.1  T
     SCC iter.                  ...        0 min,  0.388 sec
     gradient                   ...        0 min,  0.356 sec
 * total energy  :  -257.7096436 Eh     change       -0.5394577E-04 Eh
   gradient norm :     0.0019999 Eh/α   predicted    -0.3884421E-04 ( -27.99%)
   displ. norm   :     0.2408551 α      lambda       -0.4411616E-04
   maximum displ.:     0.1394819 α      in ANC's #13, #22, #12, ...

........................................................................
.............................. CYCLE   20 ..............................
........................................................................
   1   -261.1305122 -0.261131E+03  0.173E-03    0.00       0.0  T
   2   -261.1305118  0.462451E-06  0.175E-03    0.00       4.7  T
   3   -261.1303529  0.158890E-03  0.221E-02    0.00       1.0  T
   4   -261.1305126 -0.159687E-03  0.955E-04    0.00       8.7  T
   5   -261.1305129 -0.297857E-06  0.351E-04    0.00      23.6  T
   6   -261.1305129 -0.322421E-07  0.129E-04    0.00      64.0  T
   7   -261.1305129 -0.484340E-08  0.372E-05    0.00     222.6  T
     SCC iter.                  ...        0 min,  0.388 sec
     gradient                   ...        0 min,  0.356 sec
 * total energy  :  -257.7096841 Eh     change       -0.4054684E-04 Eh
   gradient norm :     0.0018331 Eh/α   predicted    -0.2262890E-04 ( -44.19%)
   displ. norm   :     0.0893561 α      lambda       -0.1929766E-04
   maximum displ.:     0.0490187 α      in ANC's #13, #24, #12, ...
 * RMSD in coord.:     0.4539554 α      energy gain  -0.1743754E+00 Eh

generating ANC from model Hessian ...
Using Lindh-Hessian (1995)
 Shifting diagonal of input Hessian by    1.0014785261627563E-002
 Lowest  eigenvalues of input Hessian
    0.010000    0.010011    0.010014    0.000000    0.000000    0.000000
    0.000000    0.000000    0.000000    0.010064    0.010088    0.010155
    0.010156    0.010164    0.010267    0.010292    0.010302    0.010419
 Highest eigenvalues
    2.099129    2.103237    2.103844    2.134122    2.134123    2.623460


........................................................................
.............................. CYCLE   21 ..............................
........................................................................
   1   -261.1305586 -0.261131E+03  0.965E-04    0.00       0.0  T
   2   -261.1305582  0.381477E-06  0.127E-03    0.00       6.5  T
   3   -261.1304921  0.661197E-04  0.143E-02    0.00       1.0  T
   4   -261.1305587 -0.665945E-04  0.312E-04    0.00      26.5  T
   5   -261.1305587 -0.198742E-07  0.184E-04    0.00      44.9  T
   6   -261.1305587 -0.106626E-07  0.762E-05    0.00     108.6  T
     SCC iter.                  ...        0 min,  0.334 sec
     gradient                   ...        0 min,  0.357 sec
 * total energy  :  -257.7097079 Eh     change       -0.2383078E-04 Eh
   gradient norm :     0.0012844 Eh/α   predicted     0.0000000E+00 (-100.00%)
   displ. norm   :     0.0377145 α      lambda       -0.1594119E-05
   maximum displ.:     0.0188810 α      in ANC's #12, #24, #23, ...

........................................................................
.............................. CYCLE   22 ..............................
........................................................................
   1   -261.1305435 -0.261131E+03  0.486E-04    0.00       0.0  T
   2   -261.1305429  0.644430E-06  0.145E-03    0.00       5.7  T
   3   -261.1305357  0.716215E-05  0.489E-03    0.00       1.7  T
   4   -261.1305435 -0.783647E-05  0.137E-04    0.00      60.3  T
   5   -261.1305435 -0.155256E-08  0.849E-05    0.00      97.5  T
   6   -261.1305435 -0.195064E-08  0.305E-05    0.00     271.1  T
     SCC iter.                  ...        0 min,  0.334 sec
     gradient                   ...        0 min,  0.357 sec
 * total energy  :  -257.7097218 Eh     change       -0.1387941E-04 Eh
   gradient norm :     0.0006791 Eh/α   predicted    -0.5652693E-05 ( -59.27%)
   displ. norm   :     0.1208968 α      lambda       -0.2378469E-04
   maximum displ.:     0.0623258 α      in ANC's #12, #24, #23, ...

........................................................................
.............................. CYCLE   23 ..............................
........................................................................
   1   -261.1310535 -0.261131E+03  0.109E-03    0.00       0.0  T
   2   -261.1310531  0.314629E-06  0.127E-03    0.00       6.5  T
   3   -261.1309600  0.931265E-04  0.169E-02    0.00       1.0  T
   4   -261.1310536 -0.936118E-04  0.285E-04    0.00      29.1  T
   5   -261.1310536 -0.655444E-08  0.136E-04    0.00      61.0  T
   6   -261.1310536 -0.217790E-08  0.967E-05    0.00      85.6  T
     SCC iter.                  ...        0 min,  0.332 sec
     gradient                   ...        0 min,  0.358 sec
 * total energy  :  -257.7097442 Eh     change       -0.2242066E-04 Eh
   gradient norm :     0.0009474 Eh/α   predicted    -0.1197105E-04 ( -46.61%)
   displ. norm   :     0.0886276 α      lambda       -0.9917635E-05
   maximum displ.:     0.0484569 α      in ANC's #12, #24, #23, ...

........................................................................
.............................. CYCLE   24 ..............................
........................................................................
   1   -261.1313132 -0.261131E+03  0.415E-04    0.00       0.0  T
   2   -261.1313118  0.141240E-05  0.210E-03    0.00       3.9  T
   3   -261.1313108  0.101791E-05  0.274E-03    0.00       3.0  T
   4   -261.1313132 -0.245353E-05  0.868E-05    0.00      95.3  T
   5   -261.1313132  0.343391E-09  0.610E-05    0.00     135.8  T
   6   -261.1313132 -0.174424E-08  0.213E-05    0.00     388.3  T
     SCC iter.                  ...        0 min,  0.333 sec
     gradient                   ...        0 min,  0.357 sec
 * total energy  :  -257.7097546 Eh     change       -0.1041296E-04 Eh
   gradient norm :     0.0011298 Eh/α   predicted    -0.4977430E-05 ( -52.20%)
   displ. norm   :     0.1248462 α      lambda       -0.1318170E-04
   maximum displ.:     0.0681015 α      in ANC's #12, #24, #1, ...

........................................................................
.............................. CYCLE   25 ..............................
........................................................................
   1   -261.1313632 -0.261131E+03  0.502E-04    0.00       0.0  T
   2   -261.1313623  0.876972E-06  0.168E-03    0.00       4.9  T
   3   -261.1313551  0.721472E-05  0.498E-03    0.00       1.7  T
   4   -261.1313632 -0.813213E-05  0.162E-04    0.00      51.1  T
   5   -261.1313632 -0.980015E-08  0.798E-05    0.00     103.7  T
   6   -261.1313632 -0.148873E-08  0.318E-05    0.00     260.2  T
     SCC iter.                  ...        0 min,  0.334 sec
     gradient                   ...        0 min,  0.357 sec
 * total energy  :  -257.7097707 Eh     change       -0.1606738E-04 Eh
   gradient norm :     0.0010212 Eh/α   predicted    -0.6639123E-05 ( -58.68%)
   displ. norm   :     0.1881605 α      lambda       -0.1940370E-04
   maximum displ.:     0.1044413 α      in ANC's #12, #24, #1, ...

........................................................................
.............................. CYCLE   26 ..............................
........................................................................
   1   -261.1311752 -0.261131E+03  0.800E-04    0.00       0.0  T
   2   -261.1311751  0.170241E-06  0.945E-04    0.00       8.8  T
   3   -261.1311378  0.373155E-04  0.107E-02    0.00       1.0  T
   4   -261.1311754 -0.376213E-04  0.441E-04    0.00      18.7  T
   5   -261.1311755 -0.748321E-07  0.117E-04    0.00      70.9  T
   6   -261.1311755 -0.258672E-08  0.513E-05    0.00     161.4  T
     SCC iter.                  ...        0 min,  0.330 sec
     gradient                   ...        0 min,  0.357 sec
 * total energy  :  -257.7097929 Eh     change       -0.2218185E-04 Eh
   gradient norm :     0.0007487 Eh/α   predicted    -0.9855888E-05 ( -55.57%)
   displ. norm   :     0.1785461 α      lambda       -0.1378831E-04
   maximum displ.:     0.1027002 α      in ANC's #12, #1, #7, ...

........................................................................
.............................. CYCLE   27 ..............................
........................................................................
   1   -261.1311729 -0.261131E+03  0.785E-04    0.00       0.0  T
   2   -261.1311726  0.252987E-06  0.105E-03    0.00       7.8  T
   3   -261.1311423  0.303236E-04  0.971E-03    0.00       1.0  T
   4   -261.1311731 -0.308362E-04  0.462E-04    0.00      17.9  T
   5   -261.1311732 -0.740897E-07  0.950E-05    0.00      87.1  T
   6   -261.1311732 -0.157445E-08  0.388E-05    0.00     213.4  T
     SCC iter.                  ...        0 min,  0.335 sec
     gradient                   ...        0 min,  0.362 sec
 * total energy  :  -257.7098082 Eh     change       -0.1527861E-04 Eh
   gradient norm :     0.0007348 Eh/α   predicted    -0.6995433E-05 ( -54.21%)
   displ. norm   :     0.1315028 α      lambda       -0.8782029E-05
   maximum displ.:     0.0785704 α      in ANC's #12, #1, #7, ...

........................................................................
.............................. CYCLE   28 ..............................
........................................................................
   1   -261.1313705 -0.261131E+03  0.696E-04    0.00       0.0  T
   2   -261.1313689  0.158792E-05  0.225E-03    0.00       3.7  T
   3   -261.1313462  0.226373E-04  0.863E-03    0.00       1.0  T
   4   -261.1313707 -0.245105E-04  0.210E-04    0.00      39.4  T
   5   -261.1313708 -0.149956E-07  0.713E-05    0.00     116.1  T
   6   -261.1313708 -0.665409E-09  0.348E-05    0.00     237.6  T
     SCC iter.                  ...        0 min,  0.335 sec
     gradient                   ...        0 min,  0.359 sec
 * total energy  :  -257.7098188 Eh     change       -0.1062777E-04 Eh
   gradient norm :     0.0006943 Eh/α   predicted    -0.4426138E-05 ( -58.35%)
   displ. norm   :     0.1363781 α      lambda       -0.1008986E-04
   maximum displ.:     0.0815477 α      in ANC's #12, #1, #7, ...

........................................................................
.............................. CYCLE   29 ..............................
........................................................................
   1   -261.1315986 -0.261132E+03  0.797E-04    0.00       0.0  T
   2   -261.1315941  0.452151E-05  0.374E-03    0.00       2.2  T
   3   -261.1315788  0.152752E-04  0.781E-03    0.00       1.1  T
   4   -261.1315990 -0.201826E-04  0.199E-04    0.00      41.5  T
   5   -261.1315990 -0.126271E-07  0.804E-05    0.00     102.9  T
   6   -261.1315990 -0.643865E-09  0.408E-05    0.00     202.8  T
     SCC iter.                  ...        0 min,  0.334 sec
     gradient                   ...        0 min,  0.359 sec
 * total energy  :  -257.7098315 Eh     change       -0.1266554E-04 Eh
   gradient norm :     0.0006158 Eh/α   predicted    -0.5088892E-05 ( -59.82%)
   displ. norm   :     0.1937343 α      lambda       -0.1395635E-04
   maximum displ.:     0.1138482 α      in ANC's #12, #1, #7, ...

........................................................................
.............................. CYCLE   30 ..............................
........................................................................
   1   -261.1316568 -0.261132E+03  0.969E-04    0.00       0.0  T
   2   -261.1316559  0.914418E-06  0.173E-03    0.00       4.8  T
   3   -261.1315980  0.579242E-04  0.135E-02    0.00       1.0  T
   4   -261.1316574 -0.593976E-04  0.366E-04    0.00      22.6  T
   5   -261.1316574 -0.416592E-07  0.983E-05    0.00      84.2  T
   6   -261.1316574 -0.545697E-09  0.545E-05    0.00     151.9  T
     SCC iter.                  ...        0 min,  0.334 sec
     gradient                   ...        0 min,  0.360 sec
 * total energy  :  -257.7098485 Eh     change       -0.1706326E-04 Eh
   gradient norm :     0.0006835 Eh/α   predicted    -0.7095261E-05 ( -58.42%)
   displ. norm   :     0.2412356 α      lambda       -0.1547064E-04
   maximum displ.:     0.1400555 α      in ANC's #12, #1, #7, ...

........................................................................
.............................. CYCLE   31 ..............................
........................................................................
   1   -261.1315684 -0.261132E+03  0.875E-04    0.00       0.0  T
   2   -261.1315662  0.222298E-05  0.263E-03    0.00       3.1  T
   3   -261.1315240  0.422600E-04  0.117E-02    0.00       1.0  T
   4   -261.1315689 -0.449540E-04  0.260E-04    0.00      31.8  T
   5   -261.1315689 -0.188819E-07  0.888E-05    0.00      93.2  T
   6   -261.1315689  0.800355E-10  0.523E-05    0.00     158.2  T
     SCC iter.                  ...        0 min,  0.334 sec
     gradient                   ...        0 min,  0.360 sec
 * total energy  :  -257.7098670 Eh     change       -0.1844291E-04 Eh
   gradient norm :     0.0008606 Eh/α   predicted    -0.7936445E-05 ( -56.97%)
   displ. norm   :     0.2707352 α      lambda       -0.1617881E-04
   maximum displ.:     0.1558440 α      in ANC's #12, #1, #7, ...

........................................................................
.............................. CYCLE   32 ..............................
........................................................................
   1   -261.1314372 -0.261131E+03  0.682E-04    0.00       0.0  T
   2   -261.1314292  0.798374E-05  0.495E-03    0.00       1.7  T
   3   -261.1314311 -0.192664E-05  0.433E-03    0.00       1.9  T
   4   -261.1314374 -0.628333E-05  0.196E-04    0.00      42.3  T
   5   -261.1314374 -0.125764E-07  0.778E-05    0.00     106.4  T
   6   -261.1314374  0.363229E-10  0.432E-05    0.00     191.4  T
     SCC iter.                  ...        0 min,  0.332 sec
     gradient                   ...        0 min,  0.358 sec
 * total energy  :  -257.7098851 Eh     change       -0.1815832E-04 Eh
   gradient norm :     0.0009466 Eh/α   predicted    -0.8355431E-05 ( -53.99%)
   displ. norm   :     0.2759076 α      lambda       -0.1606286E-04
   maximum displ.:     0.1582360 α      in ANC's #12, #1, #7, ...

........................................................................
.............................. CYCLE   33 ..............................
........................................................................
   1   -261.1313505 -0.261131E+03  0.572E-04    0.00       0.0  T
   2   -261.1313456  0.491911E-05  0.389E-03    0.00       2.1  T
   3   -261.1313473 -0.176256E-05  0.314E-03    0.00       2.6  T
   4   -261.1313505 -0.321712E-05  0.199E-04    0.00      41.5  T
   5   -261.1313506 -0.140857E-07  0.988E-05    0.00      83.7  T
   6   -261.1313506 -0.234985E-08  0.394E-05    0.00     210.3  T
     SCC iter.                  ...        0 min,  0.334 sec
     gradient                   ...        0 min,  0.358 sec
 * total energy  :  -257.7099031 Eh     change       -0.1794986E-04 Eh
   gradient norm :     0.0007784 Eh/α   predicted    -0.8307497E-05 ( -53.72%)
   displ. norm   :     0.2482912 α      lambda       -0.1351067E-04
   maximum displ.:     0.1420115 α      in ANC's #12, #1, #7, ...

........................................................................
.............................. CYCLE   34 ..............................
........................................................................
   1   -261.1314561 -0.261131E+03  0.593E-04    0.00       0.0  T
   2   -261.1314446  0.115569E-04  0.595E-03    0.00       1.4  T
   3   -261.1314546 -0.100328E-04  0.221E-03    0.00       3.7  T
   4   -261.1314562 -0.159900E-05  0.164E-04    0.00      50.3  T
   5   -261.1314562 -0.106519E-07  0.116E-04    0.00      71.2  T
   6   -261.1314562 -0.417532E-08  0.375E-05    0.00     220.6  T
     SCC iter.                  ...        0 min,  0.334 sec
     gradient                   ...        0 min,  0.357 sec
 * total energy  :  -257.7099198 Eh     change       -0.1667315E-04 Eh
   gradient norm :     0.0005520 Eh/α   predicted    -0.6941940E-05 ( -58.36%)
   displ. norm   :     0.2730869 α      lambda       -0.1587491E-04
   maximum displ.:     0.1541081 α      in ANC's #12, #1, #7, ...

........................................................................
.............................. CYCLE   35 ..............................
........................................................................
   1   -261.1317174 -0.261132E+03  0.678E-04    0.00       0.0  T
   2   -261.1317174  0.571009E-07  0.636E-04    0.00      13.0  T
   3   -261.1317082  0.918713E-05  0.535E-03    0.00       1.5  T
   4   -261.1317175 -0.926973E-05  0.610E-04    0.00      13.6  T
   5   -261.1317176 -0.125104E-06  0.128E-04    0.00      64.5  T
   6   -261.1317176 -0.430464E-08  0.459E-05    0.00     180.5  T
     SCC iter.                  ...        0 min,  0.333 sec
     gradient                   ...        0 min,  0.358 sec
 * total energy  :  -257.7099398 Eh     change       -0.2002838E-04 Eh
   gradient norm :     0.0005902 Eh/α   predicted    -0.8204979E-05 ( -59.03%)
   displ. norm   :     0.3504035 α      lambda       -0.2090021E-04
   maximum displ.:     0.1933036 α      in ANC's #12, #1, #7, ...

........................................................................
.............................. CYCLE   36 ..............................
........................................................................
   1   -261.1320645 -0.261132E+03  0.762E-04    0.00       0.0  T
   2   -261.1320639  0.565843E-06  0.143E-03    0.00       5.8  T
   3   -261.1320269  0.370505E-04  0.107E-02    0.00       1.0  T
   4   -261.1320646 -0.377698E-04  0.295E-04    0.00      28.1  T
   5   -261.1320647 -0.319761E-07  0.147E-04    0.00      56.3  T
   6   -261.1320647 -0.640995E-08  0.520E-05    0.00     159.3  T
     SCC iter.                  ...        0 min,  0.336 sec
     gradient                   ...        0 min,  0.362 sec
 * total energy  :  -257.7099663 Eh     change       -0.2650950E-04 Eh
   gradient norm :     0.0009712 Eh/α   predicted    -0.1102257E-04 ( -58.42%)
   displ. norm   :     0.4701385 α      lambda       -0.2828422E-04
   maximum displ.:     0.2531709 α      in ANC's #12, #1, #7, ...

........................................................................
.............................. CYCLE   37 ..............................
........................................................................
   1   -261.1322746 -0.261132E+03  0.874E-04    0.00       0.0  T
   2   -261.1322703  0.428516E-05  0.368E-03    0.00       2.3  T
   3   -261.1322564  0.139282E-04  0.749E-03    0.00       1.1  T
   4   -261.1322748 -0.183743E-04  0.238E-04    0.00      34.8  T
   5   -261.1322748 -0.233575E-07  0.152E-04    0.00      54.4  T
   6   -261.1322748 -0.673242E-08  0.552E-05    0.00     150.0  T
     SCC iter.                  ...        0 min,  0.336 sec
     gradient                   ...        0 min,  0.365 sec
 * total energy  :  -257.7100031 Eh     change       -0.3676248E-04 Eh
   gradient norm :     0.0012930 Eh/α   predicted    -0.1553402E-04 ( -57.74%)
   displ. norm   :     0.6213393 α      lambda       -0.4031435E-04
   maximum displ.:     0.3253497 α      in ANC's #12, #1, #7, ...

........................................................................
.............................. CYCLE   38 ..............................
........................................................................
   1   -261.1323572 -0.261132E+03  0.116E-03    0.00       0.0  T
   2   -261.1323496  0.751400E-05  0.487E-03    0.00       1.7  T
   3   -261.1323269  0.226961E-04  0.964E-03    0.00       1.0  T
   4   -261.1323574 -0.304456E-04  0.293E-04    0.00      28.2  T
   5   -261.1323574 -0.321802E-07  0.143E-04    0.00      57.9  T
   6   -261.1323574 -0.407715E-08  0.671E-05    0.00     123.4  T
     SCC iter.                  ...        0 min,  0.333 sec
     gradient                   ...        0 min,  0.363 sec
 * total energy  :  -257.7100567 Eh     change       -0.5359577E-04 Eh
   gradient norm :     0.0014882 Eh/α   predicted    -0.2362009E-04 ( -55.93%)
   displ. norm   :     0.7408598 α      lambda       -0.5592765E-04
   maximum displ.:     0.3868978 α      in ANC's #1, #12, #7, ...

........................................................................
.............................. CYCLE   39 ..............................
........................................................................
   1   -261.1320943 -0.261132E+03  0.158E-03    0.00       0.0  T
   2   -261.1320788  0.155342E-04  0.698E-03    0.00       1.2  T
   3   -261.1320391  0.396522E-04  0.130E-02    0.00       1.0  T
   4   -261.1320948 -0.556769E-04  0.495E-04    0.00      16.7  T
   5   -261.1320949 -0.139703E-06  0.169E-04    0.00      48.9  T
   6   -261.1320949 -0.418925E-08  0.823E-05    0.00     100.6  T
     SCC iter.                  ...        0 min,  0.336 sec
     gradient                   ...        0 min,  0.361 sec
 * total energy  :  -257.7101311 Eh     change       -0.7443450E-04 Eh
   gradient norm :     0.0015246 Eh/α   predicted    -0.3478899E-04 ( -53.26%)
   displ. norm   :     0.7841712 α      lambda       -0.7137249E-04
   maximum displ.:     0.4081587 α      in ANC's #1, #7, #12, ...

........................................................................
.............................. CYCLE   40 ..............................
........................................................................
   1   -261.1320864 -0.261132E+03  0.198E-03    0.00       0.0  T
   2   -261.1320744  0.120408E-04  0.621E-03    0.00       1.3  T
   3   -261.1319242  0.150175E-03  0.223E-02    0.00       1.0  T
   4   -261.1320874 -0.163230E-03  0.638E-04    0.00      13.0  T
   5   -261.1320877 -0.245117E-06  0.228E-04    0.00      36.4  T
   6   -261.1320877 -0.968373E-08  0.106E-04    0.00      78.2  T
   7   -261.1320877 -0.841851E-09  0.558E-05    0.00     148.4  T
     SCC iter.                  ...        0 min,  0.389 sec
     gradient                   ...        0 min,  0.362 sec
 * total energy  :  -257.7102227 Eh     change       -0.9156781E-04 Eh
   gradient norm :     0.0014808 Eh/α   predicted    -0.4544043E-04 ( -50.38%)
   displ. norm   :     0.7492577 α      lambda       -0.7277416E-04
   maximum displ.:     0.3878232 α      in ANC's #1, #7, #12, ...

........................................................................
.............................. CYCLE   41 ..............................
........................................................................
   1   -261.1317334 -0.261132E+03  0.206E-03    0.00       0.0  T
   2   -261.1317313  0.206224E-05  0.287E-03    0.00       2.9  T
   3   -261.1314513  0.280034E-03  0.294E-02    0.01       1.0  T
   4   -261.1317343 -0.283013E-03  0.976E-04    0.00       8.5  T
   5   -261.1317347 -0.433287E-06  0.285E-04    0.00      29.1  T
   6   -261.1317347 -0.183133E-07  0.111E-04    0.00      74.7  T
   7   -261.1317347 -0.485045E-09  0.623E-05    0.00     132.8  T
     SCC iter.                  ...        0 min,  0.385 sec
     gradient                   ...        0 min,  0.360 sec
 * total energy  :  -257.7103109 Eh     change       -0.8828603E-04 Eh
   gradient norm :     0.0016369 Eh/α   predicted    -0.4546747E-04 ( -48.50%)
   displ. norm   :     0.6552652 α      lambda       -0.5671471E-04
   maximum displ.:     0.3397345 α      in ANC's #1, #7, #12, ...

........................................................................
.............................. CYCLE   42 ..............................
........................................................................
   1   -261.1309831 -0.261131E+03  0.180E-03    0.00       0.0  T
   2   -261.1309467  0.363726E-04  0.106E-02    0.00       1.0  T
   3   -261.1309452  0.151770E-05  0.108E-02    0.00       1.0  T
   4   -261.1309837 -0.385089E-04  0.591E-04    0.00      14.0  T
   5   -261.1309839 -0.201553E-06  0.276E-04    0.00      30.0  T
   6   -261.1309839 -0.158851E-07  0.964E-05    0.00      85.8  T
   7   -261.1309839 -0.151437E-08  0.499E-05    0.00     166.0  T
     SCC iter.                  ...        0 min,  0.390 sec
     gradient                   ...        0 min,  0.362 sec
 * total energy  :  -257.7103769 Eh     change       -0.6594145E-04 Eh
   gradient norm :     0.0016286 Eh/α   predicted    -0.3377343E-04 ( -48.78%)
   displ. norm   :     0.4665721 α      lambda       -0.3962588E-04
   maximum displ.:     0.2429808 α      in ANC's #1, #7, #12, ...
 * RMSD in coord.:     0.5550610 α      energy gain  -0.6927784E-03 Eh

generating ANC from model Hessian ...
Using Lindh-Hessian (1995)
 Shifting diagonal of input Hessian by    1.0013503703183111E-002
 Lowest  eigenvalues of input Hessian
    0.010000    0.010008    0.000000    0.000000    0.000000    0.000000
    0.000000    0.000000    0.010014    0.010064    0.010086    0.010161
    0.010163    0.010166    0.010267    0.010290    0.010302    0.010425
 Highest eigenvalues
    2.101698    2.103741    2.104476    2.133514    2.133520    2.625273


........................................................................
.............................. CYCLE   43 ..............................
........................................................................
   1   -261.1312946 -0.261131E+03  0.135E-03    0.00       0.0  T
   2   -261.1312778  0.168310E-04  0.722E-03    0.00       1.1  T
   3   -261.1312709  0.686167E-05  0.856E-03    0.00       1.0  T
   4   -261.1312949 -0.239280E-04  0.379E-04    0.00      21.8  T
   5   -261.1312949 -0.501755E-07  0.225E-04    0.00      36.8  T
   6   -261.1312949 -0.143310E-07  0.680E-05    0.00     121.6  T
   7   -261.1312949 -0.696275E-09  0.195E-05    0.00     425.2  T
     SCC iter.                  ...        0 min,  0.389 sec
     gradient                   ...        0 min,  0.360 sec
 * total energy  :  -257.7104227 Eh     change       -0.4581473E-04 Eh
   gradient norm :     0.0013567 Eh/α   predicted     0.0000000E+00 (-100.00%)
   displ. norm   :     0.0460841 α      lambda       -0.1542020E-04
   maximum displ.:     0.0192794 α      in ANC's #24, #21, #31, ...

........................................................................
.............................. CYCLE   44 ..............................
........................................................................
   1   -261.1308238 -0.261131E+03  0.752E-04    0.00       0.0  T
   2   -261.1308236  0.177946E-06  0.863E-04    0.00       9.6  T
   3   -261.1308050  0.185534E-04  0.760E-03    0.00       1.1  T
   4   -261.1308239 -0.188408E-04  0.545E-04    0.00      15.2  T
   5   -261.1308240 -0.910853E-07  0.144E-04    0.00      57.6  T
   6   -261.1308240 -0.173816E-08  0.474E-05    0.00     174.4  T
     SCC iter.                  ...        0 min,  0.335 sec
     gradient                   ...        0 min,  0.362 sec
 * total energy  :  -257.7104421 Eh     change       -0.1939946E-04 Eh
   gradient norm :     0.0006922 Eh/α   predicted    -0.7725184E-05 ( -60.18%)
   displ. norm   :     0.1978788 α      lambda       -0.4745265E-04
   maximum displ.:     0.0866401 α      in ANC's #21, #24, #31, ...

........................................................................
.............................. CYCLE   45 ..............................
........................................................................
   1   -261.1305566 -0.261131E+03  0.235E-03    0.00       0.0  T
   2   -261.1305299  0.266966E-04  0.914E-03    0.00       1.0  T
   3   -261.1303488  0.181135E-03  0.253E-02    0.00       1.0  T
   4   -261.1305596 -0.210855E-03  0.628E-04    0.00      13.2  T
   5   -261.1305597 -0.844666E-07  0.376E-04    0.00      22.0  T
   6   -261.1305597 -0.219860E-07  0.150E-04    0.00      55.3  T
   7   -261.1305597 -0.400007E-08  0.472E-05    0.00     175.2  T
     SCC iter.                  ...        0 min,  0.391 sec
     gradient                   ...        0 min,  0.363 sec
 * total energy  :  -257.7104860 Eh     change       -0.4387277E-04 Eh
   gradient norm :     0.0019815 Eh/α   predicted    -0.2414881E-04 ( -44.96%)
   displ. norm   :     0.1118756 α      lambda       -0.1580742E-04
   maximum displ.:     0.0522444 α      in ANC's #21, #24, #6, ...

........................................................................
.............................. CYCLE   46 ..............................
........................................................................
   1   -261.1314988 -0.261131E+03  0.946E-04    0.00       0.0  T
   2   -261.1314982  0.626514E-06  0.152E-03    0.00       5.4  T
   3   -261.1314506  0.475992E-04  0.122E-02    0.00       1.0  T
   4   -261.1314992 -0.485791E-04  0.561E-04    0.00      14.7  T
   5   -261.1314993 -0.910940E-07  0.185E-04    0.00      44.7  T
   6   -261.1314993 -0.512824E-08  0.570E-05    0.00     145.2  T
     SCC iter.                  ...        0 min,  0.333 sec
     gradient                   ...        0 min,  0.364 sec
 * total energy  :  -257.7105038 Eh     change       -0.1785543E-04 Eh
   gradient norm :     0.0015209 Eh/α   predicted    -0.7950860E-05 ( -55.47%)
   displ. norm   :     0.1485617 α      lambda       -0.1893889E-04
   maximum displ.:     0.0697582 α      in ANC's #21, #6, #24, ...

........................................................................
.............................. CYCLE   47 ..............................
........................................................................
   1   -261.1325414 -0.261133E+03  0.918E-04    0.00       0.0  T
   2   -261.1325376  0.386573E-05  0.351E-03    0.00       2.4  T
   3   -261.1325217  0.158397E-04  0.780E-03    0.00       1.1  T
   4   -261.1325417 -0.199341E-04  0.341E-04    0.00      24.3  T
   5   -261.1325417 -0.399403E-07  0.210E-04    0.00      39.3  T
   6   -261.1325417 -0.939514E-08  0.499E-05    0.00     165.7  T
   7   -261.1325417 -0.440991E-09  0.159E-05    0.00     521.3  T
     SCC iter.                  ...        0 min,  0.389 sec
     gradient                   ...        0 min,  0.362 sec
 * total energy  :  -257.7105251 Eh     change       -0.2123153E-04 Eh
   gradient norm :     0.0007696 Eh/α   predicted    -0.9564542E-05 ( -54.95%)
   displ. norm   :     0.1572909 α      lambda       -0.1577349E-04
   maximum displ.:     0.0719774 α      in ANC's #21, #6, #9, ...

........................................................................
.............................. CYCLE   48 ..............................
........................................................................
   1   -261.1330387 -0.261133E+03  0.810E-04    0.00       0.0  T
   2   -261.1330274  0.112986E-04  0.590E-03    0.00       1.4  T
   3   -261.1330343 -0.687145E-05  0.373E-03    0.00       2.2  T
   4   -261.1330388 -0.453818E-05  0.188E-04    0.00      44.0  T
   5   -261.1330388 -0.849582E-09  0.118E-04    0.00      70.4  T
   6   -261.1330389 -0.202738E-08  0.565E-05    0.00     146.4  T
     SCC iter.                  ...        0 min,  0.334 sec
     gradient                   ...        0 min,  0.363 sec
 * total energy  :  -257.7105422 Eh     change       -0.1717354E-04 Eh
   gradient norm :     0.0007150 Eh/α   predicted    -0.7975077E-05 ( -53.56%)
   displ. norm   :     0.1345354 α      lambda       -0.1016109E-04
   maximum displ.:     0.0637882 α      in ANC's #6, #21, #9, ...

........................................................................
.............................. CYCLE   49 ..............................
........................................................................
   1   -261.1327800 -0.261133E+03  0.615E-04    0.00       0.0  T
   2   -261.1327770  0.296273E-05  0.304E-03    0.00       2.7  T
   3   -261.1327741  0.295393E-05  0.427E-03    0.00       1.9  T
   4   -261.1327800 -0.597913E-05  0.151E-04    0.00      54.7  T
   5   -261.1327800 -0.505622E-08  0.109E-04    0.00      75.8  T
   6   -261.1327801 -0.445198E-08  0.417E-05    0.00     198.5  T
     SCC iter.                  ...        0 min,  0.335 sec
     gradient                   ...        0 min,  0.360 sec
 * total energy  :  -257.7105536 Eh     change       -0.1134097E-04 Eh
   gradient norm :     0.0007922 Eh/α   predicted    -0.5128091E-05 ( -54.78%)
   displ. norm   :     0.1089513 α      lambda       -0.8061890E-05
   maximum displ.:     0.0545267 α      in ANC's #6, #9, #1, ...

........................................................................
.............................. CYCLE   50 ..............................
........................................................................
   1   -261.1322915 -0.261132E+03  0.504E-04    0.00       0.0  T
   2   -261.1322895  0.198615E-05  0.249E-03    0.00       3.3  T
   3   -261.1322874  0.210468E-05  0.356E-03    0.00       2.3  T
   4   -261.1322916 -0.415342E-05  0.159E-04    0.00      51.9  T
   5   -261.1322916 -0.560482E-08  0.123E-04    0.00      67.4  T
   6   -261.1322916 -0.474233E-08  0.352E-05    0.00     234.8  T
     SCC iter.                  ...        0 min,  0.333 sec
     gradient                   ...        0 min,  0.357 sec
 * total energy  :  -257.7105631 Eh     change       -0.9560429E-05 Eh
   gradient norm :     0.0007761 Eh/α   predicted    -0.4054337E-05 ( -57.59%)
   displ. norm   :     0.1168747 α      lambda       -0.8922702E-05
   maximum displ.:     0.0598475 α      in ANC's #6, #9, #1, ...

........................................................................
.............................. CYCLE   51 ..............................
........................................................................
   1   -261.1314899 -0.261131E+03  0.503E-04    0.00       0.0  T
   2   -261.1314847  0.520798E-05  0.400E-03    0.00       2.1  T
   3   -261.1314887 -0.398966E-05  0.197E-03    0.00       4.2  T
   4   -261.1314900 -0.127217E-05  0.185E-04    0.00      44.6  T
   5   -261.1314900 -0.602995E-08  0.137E-04    0.00      60.6  T
   6   -261.1314900 -0.566496E-08  0.303E-05    0.00     273.3  T
     SCC iter.                  ...        0 min,  0.332 sec
     gradient                   ...        0 min,  0.359 sec
 * total energy  :  -257.7105738 Eh     change       -0.1064652E-04 Eh
   gradient norm :     0.0005476 Eh/α   predicted    -0.4491924E-05 ( -57.81%)
   displ. norm   :     0.1358293 α      lambda       -0.9474284E-05
   maximum displ.:     0.0710450 α      in ANC's #6, #9, #1, ...

........................................................................
.............................. CYCLE   52 ..............................
........................................................................
   1   -261.1307014 -0.261131E+03  0.477E-04    0.00       0.0  T
   2   -261.1307007  0.705273E-06  0.151E-03    0.00       5.5  T
   3   -261.1306960  0.474472E-05  0.409E-03    0.00       2.0  T
   4   -261.1307014 -0.548239E-05  0.166E-04    0.00      49.7  T
   5   -261.1307015 -0.434977E-08  0.123E-04    0.00      67.1  T
   6   -261.1307015 -0.516093E-08  0.258E-05    0.00     320.5  T
     SCC iter.                  ...        0 min,  0.334 sec
     gradient                   ...        0 min,  0.359 sec
 * total energy  :  -257.7105850 Eh     change       -0.1124467E-04 Eh
   gradient norm :     0.0004848 Eh/α   predicted    -0.4780281E-05 ( -57.49%)
   displ. norm   :     0.1497596 α      lambda       -0.9484275E-05
   maximum displ.:     0.0802307 α      in ANC's #6, #9, #1, ...

........................................................................
.............................. CYCLE   53 ..............................
........................................................................
   1   -261.1303005 -0.261130E+03  0.435E-04    0.00       0.0  T
   2   -261.1303005  0.572993E-08  0.335E-04    0.00      24.7  T
   3   -261.1302948  0.572914E-05  0.420E-03    0.00       2.0  T
   4   -261.1303006 -0.575489E-05  0.245E-04    0.00      33.8  T
   5   -261.1303006 -0.207984E-07  0.592E-05    0.00     139.7  T
   6   -261.1303006 -0.488228E-09  0.239E-05    0.00     346.0  T
     SCC iter.                  ...        0 min,  0.334 sec
     gradient                   ...        0 min,  0.360 sec
 * total energy  :  -257.7105965 Eh     change       -0.1149642E-04 Eh
   gradient norm :     0.0006584 Eh/α   predicted    -0.4792293E-05 ( -58.31%)
   displ. norm   :     0.1779280 α      lambda       -0.1089546E-04
   maximum displ.:     0.0970105 α      in ANC's #6, #9, #1, ...

........................................................................
.............................. CYCLE   54 ..............................
........................................................................
   1   -261.1302972 -0.261130E+03  0.546E-04    0.00       0.0  T
   2   -261.1302972  0.267434E-07  0.466E-04    0.00      17.8  T
   3   -261.1302902  0.700684E-05  0.466E-03    0.00       1.8  T
   4   -261.1302972 -0.705984E-05  0.445E-04    0.00      18.6  T
   5   -261.1302973 -0.722563E-07  0.483E-05    0.00     171.5  T
   6   -261.1302973 -0.228340E-09  0.286E-05    0.00     289.8  T
     SCC iter.                  ...        0 min,  0.334 sec
     gradient                   ...        0 min,  0.359 sec
 * total energy  :  -257.7106096 Eh     change       -0.1311259E-04 Eh
   gradient norm :     0.0008271 Eh/α   predicted    -0.5525377E-05 ( -57.86%)
   displ. norm   :     0.2121894 α      lambda       -0.1195828E-04
   maximum displ.:     0.1179667 α      in ANC's #6, #9, #1, ...

........................................................................
.............................. CYCLE   55 ..............................
........................................................................
   1   -261.1306895 -0.261131E+03  0.703E-04    0.00       0.0  T
   2   -261.1306836  0.591943E-05  0.428E-03    0.00       1.9  T
   3   -261.1306818  0.178477E-05  0.489E-03    0.00       1.7  T
   4   -261.1306897 -0.790019E-05  0.203E-04    0.00      40.7  T
   5   -261.1306897 -0.187608E-07  0.108E-04    0.00      76.7  T
   6   -261.1306898 -0.252794E-08  0.437E-05    0.00     189.2  T
     SCC iter.                  ...        0 min,  0.334 sec
     gradient                   ...        0 min,  0.357 sec
 * total energy  :  -257.7106237 Eh     change       -0.1402107E-04 Eh
   gradient norm :     0.0007415 Eh/α   predicted    -0.6103330E-05 ( -56.47%)
   displ. norm   :     0.2115844 α      lambda       -0.1080824E-04
   maximum displ.:     0.1200233 α      in ANC's #6, #1, #9, ...

........................................................................
.............................. CYCLE   56 ..............................
........................................................................
   1   -261.1313349 -0.261131E+03  0.746E-04    0.00       0.0  T
   2   -261.1313248  0.101244E-04  0.558E-03    0.00       1.5  T
   3   -261.1313295 -0.471465E-05  0.412E-03    0.00       2.0  T
   4   -261.1313351 -0.566074E-05  0.211E-04    0.00      39.2  T
   5   -261.1313352 -0.155520E-07  0.133E-04    0.00      62.1  T
   6   -261.1313352 -0.407482E-08  0.457E-05    0.00     181.3  T
     SCC iter.                  ...        0 min,  0.335 sec
     gradient                   ...        0 min,  0.361 sec
 * total energy  :  -257.7106364 Eh     change       -0.1279528E-04 Eh
   gradient norm :     0.0005532 Eh/α   predicted    -0.5514736E-05 ( -56.90%)
   displ. norm   :     0.2045249 α      lambda       -0.1014021E-04
   maximum displ.:     0.1175953 α      in ANC's #6, #1, #9, ...

........................................................................
.............................. CYCLE   57 ..............................
........................................................................
   1   -261.1319070 -0.261132E+03  0.685E-04    0.00       0.0  T
   2   -261.1319068  0.199412E-06  0.947E-04    0.00       8.7  T
   3   -261.1318823  0.245011E-04  0.872E-03    0.00       1.0  T
   4   -261.1319072 -0.248704E-04  0.407E-04    0.00      20.4  T
   5   -261.1319073 -0.565531E-07  0.122E-04    0.00      67.7  T
   6   -261.1319073 -0.400763E-08  0.416E-05    0.00     198.9  T
     SCC iter.                  ...        0 min,  0.334 sec
     gradient                   ...        0 min,  0.360 sec
 * total energy  :  -257.7106489 Eh     change       -0.1247709E-04 Eh
   gradient norm :     0.0004690 Eh/α   predicted    -0.5166200E-05 ( -58.59%)
   displ. norm   :     0.2259413 α      lambda       -0.1141795E-04
   maximum displ.:     0.1304734 α      in ANC's #6, #1, #9, ...

........................................................................
.............................. CYCLE   58 ..............................
........................................................................
   1   -261.1322442 -0.261132E+03  0.657E-04    0.00       0.0  T
   2   -261.1322434  0.833741E-06  0.167E-03    0.00       5.0  T
   3   -261.1322214  0.219393E-04  0.836E-03    0.00       1.0  T
   4   -261.1322444 -0.229375E-04  0.222E-04    0.00      37.2  T
   5   -261.1322444 -0.230112E-07  0.105E-04    0.00      79.1  T
   6   -261.1322444 -0.308688E-08  0.393E-05    0.00     210.8  T
     SCC iter.                  ...        0 min,  0.334 sec
     gradient                   ...        0 min,  0.356 sec
 * total energy  :  -257.7106632 Eh     change       -0.1429336E-04 Eh
   gradient norm :     0.0006511 Eh/α   predicted    -0.5840709E-05 ( -59.14%)
   displ. norm   :     0.2706310 α      lambda       -0.1337509E-04
   maximum displ.:     0.1562836 α      in ANC's #6, #1, #9, ...

........................................................................
.............................. CYCLE   59 ..............................
........................................................................
   1   -261.1321609 -0.261132E+03  0.713E-04    0.00       0.0  T
   2   -261.1321293  0.315908E-04  0.983E-03    0.00       1.0  T
   3   -261.1321596 -0.303223E-04  0.205E-03    0.00       4.0  T
   4   -261.1321610 -0.140304E-05  0.232E-04    0.00      35.7  T
   5   -261.1321610 -0.294632E-07  0.107E-04    0.00      77.2  T
   6   -261.1321610 -0.288691E-08  0.377E-05    0.00     219.3  T
     SCC iter.                  ...        0 min,  0.333 sec
     gradient                   ...        0 min,  0.357 sec
 * total energy  :  -257.7106799 Eh     change       -0.1670706E-04 Eh
   gradient norm :     0.0008178 Eh/α   predicted    -0.6906870E-05 ( -58.66%)
   displ. norm   :     0.2946465 α      lambda       -0.1398779E-04
   maximum displ.:     0.1701141 α      in ANC's #6, #1, #2, ...

........................................................................
.............................. CYCLE   60 ..............................
........................................................................
   1   -261.1317401 -0.261132E+03  0.615E-04    0.00       0.0  T
   2   -261.1317235  0.165706E-04  0.712E-03    0.00       1.2  T
   3   -261.1317388 -0.152882E-04  0.203E-03    0.00       4.1  T
   4   -261.1317401 -0.134357E-05  0.217E-04    0.00      38.1  T
   5   -261.1317401 -0.180576E-07  0.111E-04    0.00      74.7  T
   6   -261.1317401 -0.289629E-08  0.322E-05    0.00     257.2  T
     SCC iter.                  ...        0 min,  0.335 sec
     gradient                   ...        0 min,  0.359 sec
 * total energy  :  -257.7106971 Eh     change       -0.1717856E-04 Eh
   gradient norm :     0.0008214 Eh/α   predicted    -0.7264806E-05 ( -57.71%)
   displ. norm   :     0.2873614 α      lambda       -0.1275593E-04
   maximum displ.:     0.1660385 α      in ANC's #6, #1, #2, ...

........................................................................
.............................. CYCLE   61 ..............................
........................................................................
   1   -261.1312223 -0.261131E+03  0.547E-04    0.00       0.0  T
   2   -261.1312207  0.166309E-05  0.229E-03    0.00       3.6  T
   3   -261.1312164  0.429530E-05  0.428E-03    0.00       1.9  T
   4   -261.1312224 -0.600691E-05  0.129E-04    0.00      64.0  T
   5   -261.1312224  0.652847E-09  0.916E-05    0.00      90.3  T
   6   -261.1312224 -0.326122E-08  0.303E-05    0.00     272.8  T
     SCC iter.                  ...        0 min,  0.333 sec
     gradient                   ...        0 min,  0.357 sec
 * total energy  :  -257.7107125 Eh     change       -0.1541828E-04 Eh
   gradient norm :     0.0006292 Eh/α   predicted    -0.6612539E-05 ( -57.11%)
   displ. norm   :     0.2515512 α      lambda       -0.1050992E-04
[...]
    44   8 O    2.144 --    43 C    1.030    45 C    0.936
    45   6 C    3.908 --    71 H    0.983    72 H    0.980    70 H    0.980
                            44 O    0.936
    46   1 H    1.002 --     2 C    0.972
    47   1 H    0.999 --     4 C    0.976
    48   1 H    1.002 --     5 C    0.975
    49   1 H    1.002 --    10 C    0.975
    50   1 H    1.007 --    11 C    0.969
    51   1 H    1.007 --    16 C    0.969
    52   1 H    1.002 --    17 C    0.975
    53   1 H    1.009 --    23 C    0.980
    54   1 H    1.016 --    23 C    0.983
    55   1 H    1.009 --    23 C    0.980
    56   1 H    1.000 --    24 C    0.969
    57   1 H    1.003 --    25 C    0.974
    58   1 H    1.000 --    26 C    0.969
    59   1 H    1.016 --    29 C    0.983
    60   1 H    1.009 --    29 C    0.980
    61   1 H    1.009 --    29 C    0.980
    62   1 H    1.002 --    31 C    0.975
    63   1 H    0.999 --    32 C    0.976
    64   1 H    1.016 --    39 C    0.983
    65   1 H    1.009 --    39 C    0.980
    66   1 H    1.009 --    39 C    0.980
    67   1 H    1.000 --    40 C    0.969
    68   1 H    1.003 --    41 C    0.974
    69   1 H    1.000 --    42 C    0.969
    70   1 H    1.009 --    45 C    0.980
    71   1 H    1.016 --    45 C    0.983
    72   1 H    1.009 --    45 C    0.980
    73  29 Cu   2.187 --    79 N    0.505   106 N    0.505   107 N    0.503
                            84 N    0.503
    74   6 C    3.930 --   105 C    1.361    75 C    1.361   118 H    0.972
    75   6 C    3.919 --    74 C    1.361    79 N    1.232    76 C    1.170
    76   6 C    3.955 --    77 C    1.657    75 C    1.170   119 H    0.976
    77   6 C    3.958 --    76 C    1.657    78 C    1.172   120 H    0.975
    78   6 C    3.913 --    80 C    1.326    79 N    1.236    77 C    1.172
    79   7 N    3.244 --    78 C    1.236    75 C    1.232    73 Cu   0.505
    80   6 C    3.934 --    81 C    1.331    78 C    1.326   108 C    1.014
    81   6 C    3.908 --    80 C    1.331    84 N    1.221    82 C    1.179
    82   6 C    3.955 --    83 C    1.644    81 C    1.179   121 H    0.975
    83   6 C    3.957 --    82 C    1.644    85 C    1.186   122 H    0.969
    84   7 N    3.248 --    85 C    1.256    81 C    1.221    73 Cu   0.503
    85   6 C    3.904 --    86 C    1.264    84 N    1.256    83 C    1.186
    86   6 C    3.940 --    85 C    1.264    87 C    1.264   146 C    1.174
    87   6 C    3.904 --    86 C    1.264   107 N    1.257    88 C    1.186
    88   6 C    3.957 --    89 C    1.643    87 C    1.186   123 H    0.969
    89   6 C    3.955 --    88 C    1.643    90 C    1.179   124 H    0.975
    90   6 C    3.909 --    91 C    1.331   107 N    1.221    89 C    1.179
    91   6 C    3.934 --    90 C    1.331   102 C    1.325    92 C    1.015
    92   6 C    3.978 --    99 C    1.343    93 C    1.343    91 C    1.015
                            97 C    0.101
    93   6 C    3.903 --    96 C    1.362    92 C    1.343    94 O    1.031
    94   8 O    2.145 --    93 C    1.031    95 C    0.936
    95   6 C    3.908 --   126 H    0.983   127 H    0.980   125 H    0.980
                            94 O    0.936
    96   6 C    3.983 --    97 C    1.442    93 C    1.362   128 H    0.969
    97   6 C    3.992 --    96 C    1.442    98 C    1.442   129 H    0.974
                            92 C    0.101
    98   6 C    3.983 --    97 C    1.442    99 C    1.362   130 H    0.969
    99   6 C    3.903 --    98 C    1.362    92 C    1.343   100 O    1.030
   100   8 O    2.144 --    99 C    1.030   101 C    0.936
   101   6 C    3.908 --   131 H    0.983   132 H    0.980   133 H    0.980
                           100 O    0.936
   102   6 C    3.913 --    91 C    1.325   106 N    1.237   103 C    1.172
   103   6 C    3.958 --   104 C    1.657   102 C    1.172   134 H    0.975
   104   6 C    3.955 --   103 C    1.657   105 C    1.170   135 H    0.976
   105   6 C    3.919 --    74 C    1.361   106 N    1.232   104 C    1.170
   106   7 N    3.244 --   102 C    1.237   105 C    1.232    73 Cu   0.505
   107   7 N    3.248 --    87 C    1.257    90 C    1.221    73 Cu   0.503
   108   6 C    3.978 --   115 C    1.344   109 C    1.343    80 C    1.014
                           113 C    0.101
   109   6 C    3.903 --   112 C    1.362   108 C    1.343   110 O    1.031
   110   8 O    2.145 --   109 C    1.031   111 C    0.936
   111   6 C    3.908 --   136 H    0.983   138 H    0.980   137 H    0.980
                           110 O    0.936
   112   6 C    3.983 --   113 C    1.442   109 C    1.362   139 H    0.969
   113   6 C    3.992 --   112 C    1.442   114 C    1.442   140 H    0.974
                           108 C    0.101
   114   6 C    3.983 --   113 C    1.442   115 C    1.362   141 H    0.969
   115   6 C    3.903 --   114 C    1.362   108 C    1.344   116 O    1.030
   116   8 O    2.144 --   115 C    1.030   117 C    0.936
   117   6 C    3.908 --   143 H    0.983   144 H    0.980   142 H    0.980
                           116 O    0.936
   118   1 H    1.002 --    74 C    0.972
   119   1 H    0.999 --    76 C    0.976
   120   1 H    1.002 --    77 C    0.975
   121   1 H    1.002 --    82 C    0.975
   122   1 H    1.007 --    83 C    0.969
   123   1 H    1.007 --    88 C    0.969
   124   1 H    1.002 --    89 C    0.975
   125   1 H    1.009 --    95 C    0.980
   126   1 H    1.016 --    95 C    0.983
   127   1 H    1.009 --    95 C    0.980
   128   1 H    1.000 --    96 C    0.969
   129   1 H    1.003 --    97 C    0.974
   130   1 H    1.000 --    98 C    0.969
   131   1 H    1.016 --   101 C    0.983
   132   1 H    1.009 --   101 C    0.980
   133   1 H    1.009 --   101 C    0.980
   134   1 H    1.002 --   103 C    0.975
   135   1 H    0.999 --   104 C    0.976
   136   1 H    1.016 --   111 C    0.983
   137   1 H    1.009 --   111 C    0.980
   138   1 H    1.009 --   111 C    0.980
   139   1 H    1.000 --   112 C    0.969
   140   1 H    1.003 --   113 C    0.974
   141   1 H    1.000 --   114 C    0.969
   142   1 H    1.009 --   117 C    0.980
   143   1 H    1.016 --   117 C    0.983
   144   1 H    1.009 --   117 C    0.980
   145   6 C    3.936 --   146 C    2.583    14 C    1.174
   146   6 C    3.936 --   145 C    2.583    86 C    1.174
 ---------------------------------------------------------------------------

Topologies differ in total number of bonds
Writing topology from bond orders to xtbtopo.mol

 dipole moment from electron density (au)
     X       Y       Z   
   0.0031   0.0082  -0.0072  total (Debye):    0.029

           -------------------------------------------------
          |                Geometry Summary                 |
           -------------------------------------------------

      molecular mass/u    :     1310.3642020
   center of mass at/Å    :       21.1781928      -0.0004834       0.0004186
  moments of inertia/u·Å² :        0.2533624E+05   0.4507322E+05   0.6526376E+05
rotational constants/cm⁻¹ :        0.6653564E-03   0.3740055E-03   0.2583001E-03

 * 151 selected distances

     #   Z          #   Z                                           value/Å
     2   6 C        3   6 C                                       1.3871266
     3   6 C        4   6 C                                       1.4356776
     4   6 C        5   6 C                                       1.3560803
     5   6 C        6   6 C                                       1.4372986
     3   6 C        7   7 N                                       1.3652541
     6   6 C        7   7 N                                       1.3651142
     6   6 C        8   6 C                                       1.3949618
     8   6 C        9   6 C                                       1.3948242
     9   6 C       10   6 C                                       1.4348125
    10   6 C       11   6 C                                       1.3567772
     9   6 C       12   7 N                                       1.3696013
    11   6 C       13   6 C                                       1.4325067
    12   7 N       13   6 C                                       1.3614740
    13   6 C       14   6 C                                       1.4061181
    14   6 C       15   6 C                                       1.4063065
    15   6 C       16   6 C                                       1.4324002
    16   6 C       17   6 C                                       1.3568843
    17   6 C       18   6 C                                       1.4347604
    18   6 C       19   6 C                                       1.3949576
    20   6 C       21   6 C                                       1.4014318
    21   6 C       22   8 O                                       1.3594250
    22   8 O       23   6 C                                       1.4129286
    21   6 C       24   6 C                                       1.3945613
    24   6 C       25   6 C                                       1.3866530
    25   6 C       26   6 C                                       1.3866777
    20   6 C       27   6 C                                       1.4012257
    26   6 C       27   6 C                                       1.3945372
    27   6 C       28   8 O                                       1.3598366
    28   8 O       29   6 C                                       1.4128493
    19   6 C       30   6 C                                       1.3952687
    30   6 C       31   6 C                                       1.4373801
    31   6 C       32   6 C                                       1.3560896
     2   6 C       33   6 C                                       1.3871170
    32   6 C       33   6 C                                       1.4356306
    30   6 C       34   7 N                                       1.3649635
    33   6 C       34   7 N                                       1.3652684
    15   6 C       35   7 N                                       1.3615315
    18   6 C       35   7 N                                       1.3699235
    36   6 C       37   6 C                                       1.4013255
    37   6 C       38   8 O                                       1.3594122
    38   8 O       39   6 C                                       1.4129309
    37   6 C       40   6 C                                       1.3945441
    40   6 C       41   6 C                                       1.3866911
    41   6 C       42   6 C                                       1.3867026
    36   6 C       43   6 C                                       1.4010070
    42   6 C       43   6 C                                       1.3945669
    43   6 C       44   8 O                                       1.3598204
    44   8 O       45   6 C                                       1.4128232
     2   6 C       46   1 H                                       1.0853483
     4   6 C       47   1 H                                       1.0789758
     5   6 C       48   1 H                                       1.0782995
    10   6 C       49   1 H                                       1.0781433
    11   6 C       50   1 H                                       1.0777306
    16   6 C       51   1 H                                       1.0778092
    17   6 C       52   1 H                                       1.0781229
    23   6 C       53   1 H                                       1.0968896
    23   6 C       54   1 H                                       1.0916138
    23   6 C       55   1 H                                       1.0968176
    24   6 C       56   1 H                                       1.0818207
    25   6 C       57   1 H                                       1.0845279
    26   6 C       58   1 H                                       1.0818196
    29   6 C       59   1 H                                       1.0916555
    29   6 C       60   1 H                                       1.0968855
    29   6 C       61   1 H                                       1.0968720
    31   6 C       62   1 H                                       1.0783036
    32   6 C       63   1 H                                       1.0789849
    39   6 C       64   1 H                                       1.0916118
    39   6 C       65   1 H                                       1.0968666
    39   6 C       66   1 H                                       1.0968237
    40   6 C       67   1 H                                       1.0818270
    41   6 C       68   1 H                                       1.0845313
    42   6 C       69   1 H                                       1.0818229
    45   6 C       70   1 H                                       1.0968810
    45   6 C       71   1 H                                       1.0916594
    45   6 C       72   1 H                                       1.0968436
    74   6 C       75   6 C                                       1.3871260
    75   6 C       76   6 C                                       1.4356783
    76   6 C       77   6 C                                       1.3560812
    77   6 C       78   6 C                                       1.4372989
    75   6 C       79   7 N                                       1.3652548
    78   6 C       79   7 N                                       1.3651135
    78   6 C       80   6 C                                       1.3949617
    80   6 C       81   6 C                                       1.3948246
    81   6 C       82   6 C                                       1.4348125
    82   6 C       83   6 C                                       1.3567793
    81   6 C       84   7 N                                       1.3696012
    83   6 C       85   6 C                                       1.4325072
    84   7 N       85   6 C                                       1.3614738
    85   6 C       86   6 C                                       1.4061196
    86   6 C       87   6 C                                       1.4063041
    87   6 C       88   6 C                                       1.4323995
    88   6 C       89   6 C                                       1.3568838
    89   6 C       90   6 C                                       1.4347609
    90   6 C       91   6 C                                       1.3949585
    92   6 C       93   6 C                                       1.4014340
    93   6 C       94   8 O                                       1.3594256
    94   8 O       95   6 C                                       1.4129294
    93   6 C       96   6 C                                       1.3945615
    96   6 C       97   6 C                                       1.3866521
    97   6 C       98   6 C                                       1.3866773
    92   6 C       99   6 C                                       1.4012240
    98   6 C       99   6 C                                       1.3945370
    99   6 C      100   8 O                                       1.3598366
   100   8 O      101   6 C                                       1.4128492
    91   6 C      102   6 C                                       1.3952691
   102   6 C      103   6 C                                       1.4373802 (max)
   103   6 C      104   6 C                                       1.3560901
    74   6 C      105   6 C                                       1.3871171
   104   6 C      105   6 C                                       1.4356305
   102   6 C      106   7 N                                       1.3649640
   105   6 C      106   7 N                                       1.3652678
    87   6 C      107   7 N                                       1.3615319
    90   6 C      107   7 N                                       1.3699241
   108   6 C      109   6 C                                       1.4013237
   109   6 C      110   8 O                                       1.3594122
   110   8 O      111   6 C                                       1.4129290
   109   6 C      112   6 C                                       1.3945438
   112   6 C      113   6 C                                       1.3866928
   113   6 C      114   6 C                                       1.3867040
   108   6 C      115   6 C                                       1.4010116
   114   6 C      115   6 C                                       1.3945674
   115   6 C      116   8 O                                       1.3598211
   116   8 O      117   6 C                                       1.4128234
    74   6 C      118   1 H                                       1.0853490
    76   6 C      119   1 H                                       1.0789772
    77   6 C      120   1 H                                       1.0782995
    82   6 C      121   1 H                                       1.0781404
    83   6 C      122   1 H                                       1.0777289 (min)
    88   6 C      123   1 H                                       1.0778094
    89   6 C      124   1 H                                       1.0781233
    95   6 C      125   1 H                                       1.0968896
    95   6 C      126   1 H                                       1.0916138
    95   6 C      127   1 H                                       1.0968179
    96   6 C      128   1 H                                       1.0818209
    97   6 C      129   1 H                                       1.0845283
    98   6 C      130   1 H                                       1.0818195
   101   6 C      131   1 H                                       1.0916553
   101   6 C      132   1 H                                       1.0968857
   101   6 C      133   1 H                                       1.0968720
   103   6 C      134   1 H                                       1.0783036
   104   6 C      135   1 H                                       1.0789850
   111   6 C      136   1 H                                       1.0916115
   111   6 C      137   1 H                                       1.0968659
   111   6 C      138   1 H                                       1.0968231
   112   6 C      139   1 H                                       1.0818262
   113   6 C      140   1 H                                       1.0845314
   114   6 C      141   1 H                                       1.0818226
   117   6 C      142   1 H                                       1.0968806
   117   6 C      143   1 H                                       1.0916589
   117   6 C      144   1 H                                       1.0968433
   145   6 C      146   6 C                                       1.2170317

 * 4 distinct bonds (by element types)

   Z      Z             #   av. dist./Å        max./Å        min./Å
   1 H    6 C          54     1.0870180     1.0968896     1.0777289
   6 C    6 C          65     1.3972746     1.4373802     1.2170317
   6 C    7 N          16     1.3653913     1.3699241     1.3614738
   6 C    8 O          16     1.3862533     1.4129309     1.3594122


optimized geometry written to: xtbopt.xyz


           -------------------------------------------------
          | TOTAL ENERGY             -257.710785815102 Eh   |
          | GRADIENT NORM               0.000273184661 Eh/α |
          | HOMO-LUMO GAP               0.003849790060 eV   |
           -------------------------------------------------

------------------------------------------------------------------------
 * finished run on 2022/07/30 at 11:53:37.552     
------------------------------------------------------------------------
 total:
 * wall-time:     0 d,  0 h,  1 min,  3.492 sec
 *  cpu-time:     0 d,  0 h,  1 min,  3.243 sec
 * ratio c/w:     0.996 speedup
 SCF:
 * wall-time:     0 d,  0 h,  0 min,  1.458 sec
 *  cpu-time:     0 d,  0 h,  0 min,  1.453 sec
 * ratio c/w:     0.996 speedup
 ANC optimizer:
 * wall-time:     0 d,  0 h,  1 min,  1.882 sec
 *  cpu-time:     0 d,  0 h,  1 min,  1.644 sec
 * ratio c/w:     0.996 speedup

