154
 energy: -278.005032345501 gnorm: 7.639561910219 xtb: 6.5.1 (b24c23e)
Co          23.82447800000000        0.02642500000000        0.02748600000000
C           20.45082100000000       -0.08320700000000       -0.08256700000000
C           21.12372700000000       -0.89799100000000       -0.90101900000000
C           20.49502600000000       -1.82841400000000       -1.83554600000000
C           21.45584900000000       -2.46972000000000       -2.47972900000000
C           22.73897100000000       -1.97601000000000       -1.98387400000000
N           22.54478500000000       -0.98044900000000       -0.98389600000000
C           23.92720900000000       -2.40688300000000       -2.41663500000000
C           25.22689400000000       -1.91546400000000       -1.92298800000000
C           26.50657600000000       -2.41365800000000       -2.42311200000000
C           27.46232600000000       -1.77241900000000       -1.77900100000000
N           25.38051200000000       -1.00652600000000       -1.01016800000000
C           26.79179999999999       -0.85667900000000       -0.85947900000000
C           27.40053000000000       -0.01026600000000       -0.00937800000000
C           26.65271600000000        0.89566500000000        0.90036000000000
C           27.22412100000000        1.74264900000000        1.75095900000000
C           26.16203000000000        2.44000800000000        2.45135700000000
C           25.01567200000000        1.97388600000000        1.98326600000000
N           25.22814600000000        0.97726800000000        0.98234200000000
C           23.70037800000000        2.44429200000000        2.45584700000000
C           22.53350400000000        1.98687100000000        1.99651600000000
C           21.22568800000000        2.43617500000000        2.44800000000000
C           20.34466000000000        1.74154000000000        1.75038500000000
C           21.09156900000000        0.85275000000000        0.85751400000000
N           22.37291800000000        0.98952900000000        0.99473400000000
H           19.36771000000000       -0.10573200000000       -0.10511900000000
H           19.43360900000000       -1.97812600000000       -1.98587300000000
H           21.30218400000000       -3.22569300000000       -3.23903200000000
H           23.94690700000000       -3.17136700000000       -3.18447600000000
H           26.65745600000000       -3.16978900000000       -3.18240700000000
H           28.52399900000000       -1.91920300000000       -1.92620000000000
H           28.28375200000000        1.89490000000000        1.90385400000000
H           26.28183800000000        3.19911700000000        3.21377200000000
H           23.68374700000000        3.20918200000000        3.22413700000000
H           21.00194900000000        3.18325500000000        3.19846800000000
H           19.26900300000000        1.82449500000000        1.83388200000000
Co          65.09700100000001       -0.06221300000000       -0.00679200000000
C           68.47065799999999        0.09293900000000       -0.01444900000000
C           67.79775200000000        1.24639000000000       -0.07176400000000
C           68.42645300000000        2.56349000000000       -0.13715000000000
C           67.46563000000000        3.47135100000000       -0.18225500000000
C           66.18250800000000        2.77248100000000       -0.14758300000000
N           66.37669400000000        1.36315500000000       -0.07760000000000
C           64.99427000000000        3.38241200000000       -0.17785400000000
C           63.69458500000000        2.68672300000000       -0.14327400000000
C           62.41490300000000        3.39178300000000       -0.17808700000000
C           61.45915300000000        2.48402000000000       -0.13299200000000
N           63.54096699999999        1.40012300000000       -0.07949200000000
C           62.12967900000000        1.18787800000000       -0.06882700000000
C           61.52094900000000       -0.01026600000000       -0.00937800000000
C           62.26876299999999       -1.29256900000000        0.05414700000000
C           61.69735800000000       -2.49147200000000        0.11358000000000
C           62.75944900000000       -3.47862400000000        0.16256000000000
C           63.90580700000000       -2.81884300000000        0.12986800000000
N           63.69333300000000       -1.40809800000000        0.05989600000000
C           65.22110100000000       -3.48481400000000        0.16300000000000
C           66.38797500000000       -2.83736400000000        0.13093300000000
C           67.69579100000000       -3.47352900000000        0.16265500000000
C           68.57681800000000       -2.49026500000000        0.11390200000000
C           67.82991000000000       -1.23199300000000        0.05132300000000
N           66.54856100000001       -1.42550700000000        0.06081400000000
H           69.55376900000000        0.12477600000000       -0.01597900000000
H           69.48787000000000        2.77539100000000       -0.14763800000000
H           67.61929499999999        4.54149700000000       -0.23537800000000
H           64.97457199999999        4.46460100000000       -0.23156700000000
H           62.26402300000000        4.46204100000000       -0.23109900000000
H           60.39747999999999        2.69165100000000       -0.14313500000000
H           60.63772700000000       -2.70697900000000        0.12425900000000
H           62.63964100000000       -4.55318400000000        0.21587600000000
H           65.23773199999999       -4.56760400000000        0.21677200000000
H           67.91952999999999       -4.53115200000000        0.21522600000000
H           69.65247599999999       -2.60781500000000        0.11986200000000
C           30.95078500000000        0.00356200000000       -0.00654300000000
C           29.69851500000000       -0.01561900000000       -0.01089200000000
C           32.26445300000000        0.00279600000000       -0.00461100000000
C           33.76758700000000       -0.01561900000000       -0.01089200000000
C           43.71419299999999        0.00356200000000       -0.00654300000000
C           42.46192200000000       -0.01561900000000       -0.01089200000000
C           45.02786099999999        0.00279600000000       -0.00461100000000
C           46.53099400000000       -0.01561900000000       -0.01089200000000
C           56.47760000000000        0.00356200000000       -0.00654300000000
C           55.22532900000000       -0.01561900000000       -0.01089200000000
C           57.79126800000000        0.00279600000000       -0.00461100000000
C           59.29440200000000       -0.01561900000000       -0.01089200000000
Co          38.04110500000000       -0.04098500000000       -0.03670000000000
C           34.60765300000000        0.01323700000000        0.01151300000000
C           35.27418600000000        0.88667100000000        0.78874400000000
C           34.64987299999999        1.87866100000000        1.67143300000000
C           35.60824499999999        2.55722800000000        2.27531000000000
C           36.88945400000000        2.03700000000000        1.81244300000000
N           36.69736300000000        0.98142200000000        0.87312900000000
C           38.07183900000000        2.50205100000000        2.22631900000000
C           39.38151400000000        1.99886400000000        1.77858600000000
C           40.64815700000000        2.54379200000000        2.26359500000000
C           41.62033700000000        1.87836000000000        1.67142800000000
N           39.55749099999999        1.03942300000000        0.92473100000000
C           40.97270600000000        0.90070200000000        0.80133000000000
C           41.60175500000000        0.01323700000000        0.01151300000000
C           40.87183199999999       -0.95229800000000       -0.84779200000000
C           41.45857500000000       -1.84309700000000       -1.64066500000000
C           40.40850399999999       -2.59042300000000       -2.30567200000000
C           39.25432400000000       -2.10703200000000       -1.87533900000000
N           39.44863500000000       -1.05090100000000       -0.93540600000000
C           37.94924600000000       -2.61701600000000       -2.32901200000000
C           36.77006300000000       -2.14934500000000       -1.91276200000000
C           35.48295099999999       -2.65129200000000       -2.35929100000000
C           34.57638200000000       -1.93565700000000       -1.72249600000000
C           35.28407200000000       -0.97325000000000       -0.86623800000000
N           36.57157700000000       -1.09533300000000       -0.97494300000000
H           33.59250300000000        2.04938500000000        1.82329800000000
H           35.45298099999999        3.35756100000000        2.98748400000000
H           38.07824799999999        3.31171600000000        2.94681400000000
H           40.77930200000000        3.34621200000000        2.97771400000000
H           42.67814100000000        2.04775000000000        1.82221600000000
H           42.52088000000000       -1.99419900000000       -1.77524200000000
H           40.54109499999999       -3.39300300000000       -3.01994600000000
H           37.95077500000000       -3.42713100000000       -3.04987400000000
H           35.28845000000000       -3.44676200000000       -3.06706000000000
H           33.50702000000000       -2.05663100000000       -1.83006900000000
Co          50.80451200000000       -0.04098500000000       -0.03670000000000
C           47.37106000000000        0.01323700000000        0.01151300000000
C           48.03759400000000        0.88667100000000        0.78874400000000
C           47.41327999999999        1.87866100000000        1.67143300000000
C           48.37165199999999        2.55722800000000        2.27531000000000
C           49.65286200000000        2.03700000000000        1.81244300000000
N           49.46077100000000        0.98142200000000        0.87312900000000
C           50.83524599999999        2.50205100000000        2.22631900000000
C           52.14492100000000        1.99886400000000        1.77858600000000
C           53.41156400000000        2.54379200000000        2.26359500000000
C           54.38374400000000        1.87836000000000        1.67142800000000
N           52.32089799999999        1.03942300000000        0.92473100000000
C           53.73611400000000        0.90070200000000        0.80133000000000
C           54.36516300000000        0.01323700000000        0.01151300000000
C           53.63523899999999       -0.95229800000000       -0.84779200000000
C           54.22198199999999       -1.84309700000000       -1.64066500000000
C           53.17191099999999       -2.59042300000000       -2.30567200000000
C           52.01773100000000       -2.10703200000000       -1.87533900000000
N           52.21204200000000       -1.05090100000000       -0.93540600000000
C           50.71265300000000       -2.61701600000000       -2.32901200000000
C           49.53347000000000       -2.14934500000000       -1.91276200000000
C           48.24635799999999       -2.65129200000000       -2.35929100000000
C           47.33979000000000       -1.93565700000000       -1.72249600000000
C           48.04747900000000       -0.97325000000000       -0.86623800000000
N           49.33498400000000       -1.09533300000000       -0.97494300000000
H           46.35591099999999        2.04938500000000        1.82329800000000
H           48.21638899999999        3.35756100000000        2.98748400000000
H           50.84165500000000        3.31171600000000        2.94681400000000
H           53.54270900000000        3.34621200000000        2.97771400000000
H           55.44154799999999        2.04775000000000        1.82221600000000
H           55.28428700000000       -1.99419900000000       -1.77524200000000
H           53.30450199999999       -3.39300300000000       -3.01994600000000
H           50.71418200000000       -3.42713100000000       -3.04987400000000
H           48.05185800000000       -3.44676200000000       -3.06706000000000
H           46.27042800000000       -2.05663100000000       -1.83006900000000
154
 energy: -280.813520167833 gnorm: 1.446615929114 xtb: 6.5.1 (b24c23e)
Co          23.82603189953642        0.02580388041999        0.02686583256515
C           20.45104751718281       -0.08020695213579       -0.07955359410815
C           21.12623066729015       -0.89875669061545       -0.90178735635565
C           20.49437169728429       -1.82740979026508       -1.83453734868255
C           21.45731026489562       -2.47012112090517       -2.48013197735253
C           22.73776906492206       -1.97414248914477       -1.98199825227477
N           22.54210872639223       -0.98199769190735       -0.98545294565359
C           23.93159524753885       -2.40653088516037       -2.41628214091286
C           25.22429583585843       -1.91839860654338       -1.92593759142662
C           26.50420157137692       -2.41493517229918       -2.42439464366485
C           27.46308388535659       -1.77107587061490       -1.77765186389403
N           25.38123934805129       -1.00440434040348       -1.00803612577102
C           26.79325567255691       -0.85673085349198       -0.85952517329793
C           27.40135933636752       -0.00807859275142       -0.00718659339696
C           26.65196217662806        0.89154877733189        0.89622765757448
C           27.22424168503568        1.74679856429955        1.75512750020346
C           26.16819858893213        2.44039801238352        2.45174805469235
C           25.01032574900591        1.97165207078658        1.98102365522375
N           25.22829151604687        0.97799788693487        0.98307269030292
C           23.70393600829298        2.44331036287904        2.45486014308639
C           22.53271902425775        1.98624405078356        1.99588623116544
C           21.22733125413963        2.43660570723573        2.44843250063546
C           20.34299462455148        1.73988240725323        1.74872023880304
C           21.08729597750831        0.85071293818809        0.85546897527434
N           22.37535617349175        0.99055109545177        0.99575920860437
H           19.36773406296573       -0.10552123697410       -0.10490753455011
H           19.43362642235914       -1.97769424556520       -1.98543934071454
H           21.30280855292025       -3.22565806617298       -3.23899698518537
H           23.94724578452058       -3.17132980941693       -3.18443795524154
H           26.65693469049238       -3.16984289759958       -3.18246124097857
H           28.52397917649548       -1.91863536079119       -1.92562959685019
H           28.28370523898260        1.89494230598871        1.90389708330862
H           26.28213117213097        3.19901593896147        3.21367017593912
H           23.68422769018833        3.20905736510974        3.22401204051043
H           21.00255770446575        3.18318358168926        3.19839612285425
H           19.26893791386602        1.82410871697266        1.83349391697137
Co          65.09544516626630       -0.06133438817230       -0.00683033804418
C           68.47042780615776        0.08868697861460       -0.01423799893636
C           67.79523338388901        1.24747549894871       -0.07181897344421
C           68.42710885526112        2.56207768579346       -0.13707981297643
C           67.46417792985078        3.47192049300373       -0.18228377264648
C           66.18373272425659        2.76978813453525       -0.14744674025715
N           66.37939407387667        1.36539261243407       -0.07771202994815
C           64.98983240465469        3.38190588483782       -0.17782874662183
C           63.69720217415121        2.69092815813033       -0.14348911885873
C           62.41728312644103        3.39359717275379       -0.17817704061365
C           61.45839068163120        2.48212830002504       -0.13289735872854
N           63.54021394916938        1.39703488259509       -0.07934322430736
C           62.12818781033967        1.18804478240845       -0.06881834231763
C           61.52004069429750       -0.01335080366758       -0.00920459061774
C           62.26944871736632       -1.28678657866961        0.05384230538486
C           61.69724033065475       -2.49741509078789        0.11388026967445
C           62.75322982423175       -3.47916241450904        0.16258317542692
C           63.91115016339723       -2.81565064733356        0.12971307346490
N           63.69317940568770       -1.40911723367307        0.05994497194989
C           65.21753315824913       -3.48341447318948        0.16293180638504
C           66.38876395772471       -2.83646326711578        0.13088797860247
C           67.69415167718445       -3.47413939908657        0.16268508729438
C           68.57848405683485       -2.48792186306108        0.11378594460013
C           67.83418323353348       -1.22910760989580        0.05118007558330
N           66.54611419236541       -1.42695262550958        0.06088445846064
H           69.55374483680475        0.12447778691721       -0.01596401213763
H           69.48785239361500        2.77478035136042       -0.14760761913898
H           67.61867032494220        4.54144757980360       -0.23537561995547
H           64.97422947776049        4.46454530456111       -0.23156385075217
H           62.26454064054281        4.46211407473757       -0.23110249442974
H           60.39749292591281        2.69084360010918       -0.14309203381973
H           60.63776822410914       -2.70704020454881        0.12426185912185
H           62.63934478559175       -4.55303694901192        0.21586821511334
H           65.23724859931301       -4.56742563114391        0.21676225851277
H           67.91892128888469       -4.53105065903033        0.21522090486180
H           69.65254084815220       -2.60726849088347        0.11983483836241
C           30.94956676768942        0.00353556771456       -0.00653466340696
C           29.69398402899844       -0.01555278974896       -0.01086360956945
C           32.26413055816414        0.00255607884077       -0.00473626747980
C           33.60635626112409       -0.02193341441751       -0.01608226179702
C           43.74120560701294        0.00314516036668       -0.00680328053626
C           42.58934065477995       -0.02169476017573       -0.01596794640597
C           45.02437753430332        0.00260573965093       -0.00476120239633
C           46.37149390328561       -0.02186612254024       -0.01604580313258
C           56.50208676297078        0.00314572992352       -0.00679047988208
C           55.35470212515294       -0.02165714917505       -0.01592930944958
C           57.80661922433445        0.00269091461134       -0.00467428372213
C           59.28453700241334       -0.01556147911370       -0.01085628665541
Co          38.04178574496315       -0.04073624502323       -0.03647949508747
C           34.74212591770085        0.01485566673983        0.01247636211639
C           35.29161966753481        0.89478728360350        0.79594364379033
C           34.64874905986359        1.87597594668042        1.66904359637685
C           35.61092478350320        2.55797000634447        2.27597055416560
C           36.88743949139122        2.03577567299880        1.81135333863841
N           36.69495454565368        0.98357242925204        0.87504506674931
C           38.07678744644898        2.50157466043015        2.22589474231775
C           39.37889441478443        2.00349848228772        1.78271033144823
C           40.64435956723699        2.54546384319642        2.26508257878118
C           41.62128881132104        1.87535435971314        1.66875316727203
N           39.55935443507303        1.03756343458693        0.92307989718372
C           40.95684497488806        0.90870828978251        0.80843963126887
C           41.47404387735526        0.01412101530295        0.01195442284452
C           40.85884980557525       -0.95295026373738       -0.84837312844461
C           41.45889657397138       -1.84660011745233       -1.64378440221203
C           40.41426959957676       -2.59093883496539       -2.30613250207785
C           39.24884304306958       -2.10500883289930       -1.87353786106959
N           39.44892726138092       -1.05221725738246       -0.93657613667839
C           37.95297283657942       -2.61585143123075       -2.32797648266299
C           36.76895256310151       -2.14903357369011       -1.91248443104797
C           35.48505406884999       -2.65185364317067       -2.35979084718736
C           34.57426261539384       -1.93315490027396       -1.72027008335251
C           35.29051399421407       -0.97649971829248       -0.86914803713665
N           36.57428716206783       -1.09690953203038       -0.97634099591278
H           33.59240818272416        2.04867800547780        1.82266841764304
H           35.45357776546846        3.35748919865813        2.98741999201160
H           38.07851815945713        3.31168309220196        2.94678492763303
H           40.77878208490648        3.34625990366195        2.97775623968216
H           42.67811820016006        2.04708392875483        1.82162298714773
H           42.52083862164511       -1.99420566075345       -1.77524808250085
H           40.54141127671792       -3.39289625158491       -3.01985111810811
H           37.95118914969483       -3.42699388464026       -3.04975176018814
H           35.28901784833011       -3.44663791629515       -3.06694967397977
H           33.50684556984681       -2.05604333498035       -1.82954644477090
Co          50.80519865967543       -0.04073324211977       -0.03647778417297
C           47.50496465739018        0.01471374943042        0.01235271276709
C           48.05575866826096        0.89515743437996        0.79627103057242
C           47.41218239697097        1.87600221677718        1.66906774943754
C           48.37425184887615        2.55803267181409        2.27602570718795
C           49.65109652258300        2.03596439386077        1.81152228704934
N           49.45796570875991        0.98348146032501        0.87496636548986
C           50.83969379883627        2.50158379460633        2.22590577691354
C           52.14253758972151        2.00305802207450        1.78232161522700
C           53.40806329644977        2.54541181202867        2.26503518730805
C           54.38468976538951        1.87559012020119        1.66896128714082
N           52.32233683876588        1.03783109030303        0.92330865809179
C           53.72092897968628        0.90804787867025        0.80783325335865
C           54.23651364759148        0.01441336561732        0.01222114408386
C           53.62236188636415       -0.95265930860750       -0.84809654565152
C           54.22229890679714       -1.84673183035174       -1.64390167938452
C           53.17777260026911       -2.59093151974702       -2.30612721725731
C           52.01230341842005       -2.10497404399113       -1.87350786934990
N           52.21241339277745       -1.05221744644389       -0.93657530212003
C           50.71633446261397       -2.61584117625934       -2.32796809613228
C           49.53240857336370       -2.14905471314586       -1.91250432244971
C           48.24843638404121       -2.65186197261282       -2.35979807796352
C           47.33767083422964       -1.93317190025293       -1.72028578904439
C           48.05436162804383       -0.97675594741868       -0.86937039210589
N           49.33753646185124       -1.09696460389848       -0.97639024008020
H           46.35581318581158        2.04867900853773        1.82266940469059
H           48.21698063487092        3.35749385480904        2.98742391902313
H           50.84192072672496        3.31168477328980        2.94678560073991
H           53.54219075347203        3.34625395289679        2.97775165213550
H           55.44151222200892        2.04709788453258        1.82163614116268
H           55.28423520418897       -1.99421265935854       -1.77525437207782
H           53.30482134518946       -3.39288971900669       -3.01984523239496
H           50.71459306883343       -3.42699359637967       -3.04975080078846
H           48.05242257611960       -3.44663937206063       -3.06695091039541
H           46.27024903938192       -2.05603967189858       -1.82954315288017
154
 energy: -281.224626742457 gnorm: 0.893609484688 xtb: 6.5.1 (b24c23e)
Co          23.83482843580554        0.02049820655195        0.02155113306628
C           20.45236345616505       -0.07010394260694       -0.06940670780009
C           21.13270212084999       -0.89806418118626       -0.90109219902644
C           20.49453441085078       -1.82266633398367       -1.82977407323829
C           21.46424243975725       -2.46956704067293       -2.47957778148889
C           22.73837628760936       -1.96831023291110       -1.97614072136869
N           22.53182577593810       -0.98728826096520       -0.99076758481133
C           23.94655184263847       -2.40390532760136       -2.41364641211655
C           25.21719756362929       -1.92571579666712       -1.93329485796045
C           26.49450281465404       -2.41883531663407       -2.42831473654983
C           27.46242599824996       -1.76677891762486       -1.77332999893056
N           25.38753145591919       -0.99823742884152       -1.00185379485294
C           26.80271121499624       -0.85342603967586       -0.85617833231602
C           27.41157767532138        0.00159641789651        0.00257430656299
C           26.65154373615853        0.88102747747706        0.88567525686087
C           27.22486512371631        1.75889460240420        1.76727861007709
C           26.18703417238905        2.43985457862676        2.45119911147442
C           24.99985626114044        1.96267708155048        1.97200977323911
N           25.22948399946758        0.97755029532582        0.98261746505019
C           23.71831239162487        2.43670397305137        2.44822072131978
C           22.53383758824290        1.98290561689430        1.99253080502302
C           21.23282114593984        2.43436246880108        2.44617653959134
C           20.33689498721890        1.73240640426015        1.74120933545368
C           21.07422557396109        0.84410340051455        0.84883033276235
N           22.38075427260377        0.99236970170346        0.99757824925135
H           19.36856846746124       -0.10261811941815       -0.10199343349098
H           19.43396776761294       -1.97314483771631       -1.98087108117324
H           21.30949844248369       -3.22509929883779       -3.23843751324126
H           23.95175670661138       -3.17001182328312       -3.18311197966218
H           26.65149387624985       -3.17148892734239       -3.18411714384878
H           28.52338110464606       -1.91345657947430       -1.92042946124113
H           28.28441056039260        1.89726370436886        1.90622982844454
H           26.28683562689890        3.19841180166586        3.21305970108379
H           23.69127019872956        3.20549428749156        3.22043143241474
H           21.00889982191015        3.18173299864371        3.19693568092497
H           19.26636907055664        1.82017618774670        1.82954153843547
Co          65.08664353661625       -0.05383620287553       -0.00720796636307
C           68.46909980262140        0.07437340047501       -0.01353333136290
C           67.78875067815743        1.24650791793673       -0.07177931052682
C           68.42695570342140        2.55538130945161       -0.13675387977582
C           67.45724894097344        3.47114272564451       -0.18225305413685
C           66.18313469791335        2.76145515678033       -0.14703689826994
N           66.38975538031690        1.37298624733519       -0.07808629411828
C           64.97475846965662        3.37810918822829       -0.17764039159420
C           63.70426850461922        2.70121420195276       -0.14402052079293
C           62.42697453462046        3.39912778340943       -0.17846082791465
C           61.45894545766667        2.47616804356292       -0.13259848391204
N           63.53354333607949        1.38800535427824       -0.07890547553175
C           62.11808778795444        1.18338719137014       -0.06857417782222
C           61.50777798742918       -0.02712638262252       -0.00846557608758
C           62.26927209423892       -1.27192400373060        0.05308199199399
C           61.69650134394127       -2.51477018806995        0.11474024914781
C           62.73427056642037       -3.47835194193772        0.16253877557316
C           63.92153465161665       -2.80282072265643        0.12907941636306
N           63.69166998351698       -1.40831300440862        0.05990591119335
C           65.20308617772311       -3.47398660683337        0.16245818384405
C           66.38763164730145       -2.83168787346030        0.13064368445221
C           67.68865722975178       -3.47095138795121        0.16252105006428
C           68.58458138932754       -2.47733529991155        0.11325450040520
C           67.84725340272045       -1.21972878771792        0.05070790298647
N           66.54069192903398       -1.42951040888293        0.06100530744400
H           69.55290407638249        0.12036820458932       -0.01576636821611
H           69.48751643388310        2.76834878651623       -0.14729535774671
H           67.61197547225194        4.54066280416410       -0.23534431729451
H           64.96968217636719        4.46263506571769       -0.23147493613316
H           62.26997973473375        4.46444309844828       -0.23122584972264
H           60.39800120024021        2.68349676903313       -0.14272397790404
H           60.63697528076059       -2.71036568838155        0.12441454523824
H           62.63462644725703       -4.55214861688919        0.21581792692972
H           65.23017877015013       -4.56233822295958        0.21650250831293
H           67.91257539731905       -4.52898842680401        0.21511167786961
H           69.65510804332807       -2.60169896848615        0.11955133489459
C           30.92802546268297        0.00303570795787       -0.00675619458610