242
 energy: -435.507640138055 gnorm: 1.265292115735 xtb: 6.5.1 (b24c23e)
Fe          49.84096500000000       -0.01048900000000       -0.00821000000000
C           46.50296800000000        0.11266600000000        0.06386900000000
C           47.16494200000000        1.26211000000000        0.22479000000000
C           46.51407200000000        2.55941700000000        0.36196500000000
C           47.45404100000000        3.47007500000000        0.53465200000000
C           48.75911800000000        2.79465900000000        0.52865600000000
N           48.58233199999999        1.39264100000000        0.32157100000000
C           49.95105200000000        3.40051300000000        0.71031000000000
C           50.00026200000000        4.85897800000000        0.96258000000000
C           49.51758400000000        5.38812100000000        2.17028800000000
C           49.58053700000000        6.76396800000000        2.41077300000000
C           50.13137300000000        7.62051200000000        1.44911100000000
C           50.19738500000000        9.03673400000000        1.69782500000000
N           50.25044300000000       10.17531000000000        1.89787200000000
C           50.62048000000000        7.09550900000000        0.24617800000000
C           50.55716300000000        5.71985300000000        0.00438500000000
C           51.24248500000000        2.66478900000000        0.67879400000000
C           52.52582700000000        3.24986900000000        1.08608800000000
C           53.46062800000000        2.33997400000000        0.90127800000000
N           51.38551399999999        1.44294300000000        0.26520300000000
C           52.78084500000000        1.16224000000000        0.37609300000000
C           53.37540500000000        0.02020600000000       -0.00567800000000
C           52.61219200000000       -1.13988600000000       -0.51710600000000
C           53.14311000000000       -2.13240500000000       -1.21996200000000
C           52.10049299999999       -3.11820200000000       -1.42945700000000
C           51.00258600000000       -2.66430900000000       -0.83594200000000
N           51.23598100000000       -1.39098400000000       -0.23203600000000
C           49.72409200000000       -3.41564600000000       -0.74982000000000
C           49.74735000000000       -4.88118500000000       -0.97736200000000
C           49.06318000000000       -5.44522700000000       -2.06680700000000
C           49.10506200000000       -6.82522400000000       -2.28717100000000
C           49.83671600000000       -7.65209900000000       -1.42556500000000
C           49.88073200000000       -9.07266300000000       -1.65360200000000
N           49.91615599999999      -10.21474600000000       -1.83685800000000
C           50.52844799999999       -7.09315100000000       -0.34364900000000
C           50.48653100000000       -5.71332300000000       -0.12193000000000
C           48.56177099999999       -2.79651200000000       -0.46713600000000
C           47.25448200000000       -3.43427800000000       -0.32015800000000
C           46.39250100000000       -2.45932600000000       -0.10476200000000
C           47.14071100000000       -1.20334800000000       -0.09985300000000
N           48.40573699999999       -1.38766800000000       -0.31010600000000
H           45.41960799999999        0.14049200000000        0.05451200000000
H           45.45072200000000        2.75855800000000        0.32475800000000
H           47.26600599999999        4.52883100000000        0.65591300000000
H           49.09527799999999        4.73434200000000        2.92355900000000
H           49.20245400000000        7.15902300000000        3.34607400000000
H           51.05130999999999        7.74865400000000       -0.50316300000000
H           50.94021000000000        5.32462300000000       -0.92849500000000
H           52.69649399999999        4.24597100000000        1.47287100000000
H           54.51440699999999        2.47197100000000        1.10750100000000
H           54.16887900000000       -2.21280400000000       -1.55399500000000
H           52.20960700000000       -4.06066000000000       -1.95032800000000
H           48.50182600000000       -4.81517700000000       -2.74583900000000
H           48.57033699999999       -7.24645800000000       -3.13002900000000
H           51.10036800000000       -7.72314600000000        0.32702400000000
H           51.02689900000000       -5.29275600000000        0.71738400000000
H           47.01288600000000       -4.48774600000000       -0.37128900000000
H           45.32788300000000       -2.58220300000000        0.04508800000000
Fe          91.83600800000001        0.05071800000000       -0.00986800000000
C           95.17400499999998       -0.06835400000000        0.06877200000000
C           94.51203099999999       -1.20740100000000        0.29168500000000
C           95.16290100000001       -2.49538000000000        0.49889000000000
C           94.22293199999999       -3.39535300000000        0.72062300000000
C           92.91785500000000       -2.72125200000000        0.67807200000000
N           93.09464000000000       -1.33250100000000        0.39539000000000
C           91.72592100000000       -3.31638400000000        0.89225800000000
C           91.67671099999998       -4.75905300000000        1.22311400000000
C           92.15938899999999       -5.22203900000000        2.45769600000000
C           92.09643599999998       -6.58284900000000        2.77231200000000
C           91.54559999999999       -7.49019800000000        1.85843100000000
C           91.47958799999999       -8.89087900000000        2.18344900000000
N           91.42652900000000      -10.01695500000000        2.44484100000000
C           91.05649200000001       -7.03108700000000        0.62884000000000
C           91.11980900000000       -5.67053800000000        0.31292800000000
C           90.43448700000000       -2.58344500000000        0.82095800000000
C           89.15114600000000       -3.14561700000000        1.25932900000000
C           88.21634400000001       -2.24706200000000        1.02553200000000
N           90.29145900000000       -1.38578100000000        0.34182800000000
C           88.89612800000000       -1.09948600000000        0.43735900000000
C           88.30156800000000        0.02020600000000       -0.00567800000000
C           89.06478099999998        1.15090900000000       -0.57915900000000
C           88.53386300000000        2.10392300000000       -1.33471600000000
C           89.57648000000000        3.07693300000000       -1.59727100000000
C           90.67438700000000        2.65583600000000       -0.98005400000000
N           90.44099199999999        1.41707200000000       -0.30810100000000
C           91.95288100000000        3.41073300000000       -0.93473400000000
C           91.92962199999999        4.86180500000000       -1.24128100000000
C           92.61379299999999        5.36604200000000       -2.35966300000000
C           92.57191099999999        6.73208500000000       -2.65441200000000
C           91.84025699999999        7.60439200000000       -1.83883400000000
C           91.79624099999998        9.01052800000000       -2.14344000000000
N           91.76081700000000       10.14101500000000       -2.38825600000000
C           91.14852500000001        7.10483400000000       -0.72824500000000
C           91.19044200000000        5.73903300000000       -0.43215200000000
C           93.11520200000000        2.80781100000000       -0.61894700000000
C           94.42249099999999        3.45259900000000       -0.50671000000000
C           95.28447099999998        2.49073700000000       -0.23885000000000
C           94.53626199999998        1.23686700000000       -0.16595300000000
N           93.27123599999999        1.40953500000000       -0.38587700000000
H           96.25736499999999       -0.09664600000000        0.06093600000000
H           96.22625100000000       -2.69624300000000        0.47251800000000
H           94.41096700000000       -4.44599200000000        0.89902300000000
H           92.58169500000000       -4.52844000000000        3.17447000000000
H           92.47451900000000       -6.92669100000000        3.72762900000000
H           90.62566300000000       -7.72384200000000       -0.08404300000000
H           90.73676300000000       -5.32639100000000       -0.63998000000000
H           88.98047900000000       -4.11931900000000        1.69947000000000
H           87.16256600000000       -2.36770100000000        1.23859800000000
H           87.50809399999999        2.16612100000000       -1.67261200000000
H           89.46736600000000        3.98981000000000       -2.16839900000000
H           93.17514700000000        4.70015500000000       -3.00359100000000
H           93.10663599999999        7.10707200000000       -3.51883800000000
H           90.57660399999999        7.77021300000000       -0.09266100000000
H           90.65007299999999        5.36452100000000        0.42869900000000
H           94.66408699999998        4.50175400000000       -0.61479700000000
H           96.34908999999999        2.62154700000000       -0.09587200000000
C           56.76269200000000        0.03264200000000       -0.00323700000000
C           55.51042200000000        0.01346100000000       -0.00758500000000
C           58.07636000000000        0.03187600000000       -0.00130400000000
C           59.57949400000000        0.01346100000000       -0.00758500000000
C           70.10122400000000        0.03264200000000       -0.00323700000000
C           68.84895299999999        0.01346100000000       -0.00758500000000
C           71.41489199999999        0.03187600000000       -0.00130400000000
C           72.91802600000000        0.01346100000000       -0.00758500000000
C           83.43975500000001        0.03264200000000       -0.00323700000000
C           82.18748500000000        0.01346100000000       -0.00758500000000
C           84.75342399999998        0.03187600000000       -0.00130400000000
C           86.25655700000000        0.01346100000000       -0.00758500000000
Fe          64.15250899999999        0.02474300000000       -0.01698600000000
C           60.71596500000000       -0.02197700000000        0.00657600000000
C           61.37153400000000       -1.13141300000000       -0.38132400000000
C           60.73081100000000       -2.40246100000000       -0.72510900000000
C           61.66730900000000       -3.24962400000000       -1.10314200000000
C           62.96445400000000       -2.56980200000000       -1.02744700000000
N           62.78651900000000       -1.22979900000000       -0.56162000000000
C           64.14888100000000       -3.12563200000000       -1.36073700000000
C           64.18448400000000       -4.50898300000000       -1.88932100000000
C           63.66325000000000       -4.79719300000000       -3.16079400000000
C           63.71202200000000       -6.10135600000000       -3.66223900000000
C           64.28658000000000       -7.12600500000000       -2.89947400000000
C           64.33793300000001       -8.46830400000000       -3.41666300000000
N           64.37934799999999       -9.54745300000000       -3.83246500000000
C           64.81338200000000       -6.84112400000000       -1.63329500000000
C           64.76431800000000       -5.53741900000000       -1.13058200000000
C           65.44583299999999       -2.41635000000000       -1.21731100000000
C           66.71445100000000       -2.91285200000000       -1.76581400000000
C           67.66666400000000       -2.07923200000000       -1.39906100000000
N           65.61360999999999       -1.31942900000000       -0.54647100000000
C           67.01177100000000       -1.03919400000000       -0.61630600000000
C           67.62678099999999       -0.02197700000000        0.00657600000000
C           66.87582200000000        1.00578500000000        0.75741600000000
C           67.40856400000000        1.81010700000000        1.66838600000000
C           66.37629200000001        2.74730300000000        2.06948100000000
C           65.28486599999999        2.45329900000000        1.37210700000000
N           65.51021200000000        1.33805500000000        0.51165300000000
C           64.03168100000001        3.24525200000000        1.39862400000000
C           64.09384300000001        4.65275000000000        1.86364600000000
C           63.38461199999999        5.05877700000000        3.00620500000000
C           63.46137800000000        6.38228100000000        3.45006900000000
C           64.25284000000001        7.30941200000000        2.76073600000000
C           64.33169200000000        8.67189500000000        3.21826600000000
N           64.39505900000000        9.76729400000000        3.58607800000000
C           64.96978400000000        6.90711300000000        1.62696000000000
C           64.89326300000000        5.58391800000000        1.18189800000000
C           62.86019700000000        2.71811500000000        0.99307500000000
C           61.58491300000000        3.42239800000000        0.90753800000000
C           60.69682600000000        2.52702400000000        0.52627400000000
C           61.39395600000000        1.24704100000000        0.35894500000000
N           62.65848900000000        1.35285800000000        0.62677600000000
H           59.67612700000000       -2.63933300000000       -0.68366700000000
H           61.48107200000000       -4.27184300000000       -1.40575300000000
H           63.22189000000000       -4.01144900000000       -3.76161700000000
H           63.30428799999999       -6.31009600000000       -4.64402100000000
H           65.26215800000000       -7.62565900000000       -1.03594300000000
H           65.17601999999999       -5.32830600000000       -0.15076100000000
H           66.86405000000001       -3.80230200000000       -2.36366200000000
H           68.71596599999999       -2.17598500000000       -1.64434100000000
H           68.43042000000000        1.79871900000000        2.02325600000000
H           66.49069299999999        3.56020400000000        2.77487400000000
H           62.77653400000000        4.34903000000000        3.55363200000000
H           62.90650000000000        6.68149300000000        4.33122500000000
H           65.58766700000000        7.61535000000000        1.08809500000000
H           65.45314999999999        5.28494800000000        0.30416000000000
H           61.38131700000000        4.46724300000000        1.10192900000000
H           59.64672500000000        2.72822900000000        0.36287000000000
Fe          77.49104099999998        0.02474300000000       -0.01698600000000
C           74.05449699999998       -0.02197700000000        0.00657600000000
C           74.71006600000000       -1.13141300000000       -0.38132400000000
C           74.06934300000000       -2.40246100000000       -0.72510900000000
C           75.00584099999999       -3.24962400000000       -1.10314200000000
C           76.30298600000000       -2.56980200000000       -1.02744700000000
N           76.12504999999999       -1.22979900000000       -0.56162000000000
C           77.48741300000000       -3.12563200000000       -1.36073700000000
C           77.52301600000000       -4.50898300000000       -1.88932100000000
C           77.00178199999999       -4.79719300000000       -3.16079400000000
C           77.05055400000001       -6.10135600000000       -3.66223900000000
C           77.62511200000000       -7.12600500000000       -2.89947400000000
C           77.67646499999999       -8.46830400000000       -3.41666300000000
N           77.71787899999998       -9.54745300000000       -3.83246500000000
C           78.15191399999999       -6.84112400000000       -1.63329500000000
C           78.10284900000001       -5.53741900000000       -1.13058200000000
C           78.78436499999999       -2.41635000000000       -1.21731100000000
C           80.05298299999998       -2.91285200000000       -1.76581400000000
C           81.00519599999998       -2.07923200000000       -1.39906100000000
N           78.95214199999998       -1.31942900000000       -0.54647100000000
C           80.35030200000000       -1.03919400000000       -0.61630600000000
C           80.96531299999998       -0.02197700000000        0.00657600000000
C           80.21435400000000        1.00578500000000        0.75741600000000
C           80.74709600000000        1.81010700000000        1.66838600000000
C           79.71482399999999        2.74730300000000        2.06948100000000
C           78.62339799999999        2.45329900000000        1.37210700000000
N           78.84874400000000        1.33805500000000        0.51165300000000
C           77.37021199999998        3.24525200000000        1.39862400000000
C           77.43237399999998        4.65275000000000        1.86364600000000
C           76.72314399999999        5.05877700000000        3.00620500000000
C           76.79990900000000        6.38228100000000        3.45006900000000
C           77.59137099999998        7.30941200000000        2.76073600000000
C           77.67022400000000        8.67189500000000        3.21826600000000
N           77.73359100000000        9.76729400000000        3.58607800000000
C           78.30831499999999        6.90711300000000        1.62696000000000
C           78.23179500000001        5.58391800000000        1.18189800000000
C           76.19872899999999        2.71811500000000        0.99307500000000
C           74.92344500000000        3.42239800000000        0.90753800000000
C           74.03535800000000        2.52702400000000        0.52627400000000
C           74.73248800000000        1.24704100000000        0.35894500000000
N           75.99702099999999        1.35285800000000        0.62677600000000
H           73.01465899999998       -2.63933300000000       -0.68366700000000
H           74.81960400000000       -4.27184300000000       -1.40575300000000
H           76.56042200000000       -4.01144900000000       -3.76161700000000
H           76.64281999999999       -6.31009600000000       -4.64402100000000
H           78.60068900000000       -7.62565900000000       -1.03594300000000
H           78.51455199999999       -5.32830600000000       -0.15076100000000
H           80.20258100000000       -3.80230200000000       -2.36366200000000
H           82.05449800000000       -2.17598500000000       -1.64434100000000
H           81.76895100000000        1.79871900000000        2.02325600000000
H           79.82922400000000        3.56020400000000        2.77487400000000
H           76.11506600000000        4.34903000000000        3.55363200000000
H           76.24503199999999        6.68149300000000        4.33122500000000
H           78.92619800000000        7.61535000000000        1.08809500000000
H           78.79168199999998        5.28494800000000        0.30416000000000
H           74.71984800000000        4.46724300000000        1.10192900000000
H           72.98525700000000        2.72822900000000        0.36287000000000
242
 energy: -435.940491573624 gnorm: 0.592692140858 xtb: 6.5.1 (b24c23e)
Fe          49.84928193419614       -0.00519475865047       -0.00631287391342
C           46.50407012334053        0.09861505991694        0.06256779021580
C           47.17133869714938        1.26239473220547        0.22509855519814
C           46.51391985529965        2.55319730737001        0.36085443511459
C           47.46278325158344        3.47111436004959        0.53529074003442
C           48.75846629500219        2.78683360004413        0.52715762689561
N           48.57270791599106        1.39975622083860        0.31963943062414
C           49.96395983954069        3.39644459957968        0.71119624555341
C           50.00404485440612        4.85995631502099        0.96413755842975
C           49.51821748918961        5.39138478457460        2.16740815874354
C           49.58089785810205        6.76177616097160        2.40867158835820
C           50.13144005532324        7.62173444209450        1.44932966150447
C           50.19735185893020        9.03545811117308        1.69761691889191
N           50.25015660069911       10.16926105023094        1.89680804679613
C           50.61950064065207        7.09293980263667        0.24720693368600
C           50.55697267802806        5.72232583729051        0.00804362293056
C           51.23638255554212        2.67572821490214        0.68011873207210
C           52.51529223962503        3.25810848199441        1.08597053397778
C           53.46080119642328        2.33505362105471        0.89964707831465
N           51.39257223628625        1.43320611626914        0.26891372599655
C           52.79161311425443        1.15861924917890        0.37524083956522
C           53.39489606517147        0.01087625387967       -0.01243458523339
C           52.61460122532198       -1.12891519160588       -0.50416726307896
C           53.14530040488096       -2.14878186174716       -1.22700814795074
C           52.11723905154109       -3.11880993199646       -1.43210101377136
C           50.99346652905238       -2.65588270531569       -0.82460346101971
N           51.23605331506898       -1.38526896235941       -0.24044830905789
C           49.73467184855001       -3.40883606225084       -0.74900072084812
C           49.75229962478013       -4.87969328904918       -0.97954101427164
C           49.06456448061306       -5.44756202348101       -2.06362750136334
C           49.10586231841456       -6.82255261774837       -2.28504769878898
C           49.83675542623759       -7.65323665433151       -1.42574918390316
C           49.88074902976829       -9.07136695411596       -1.65344524607256
N           49.91593834618076      -10.20864842817829       -1.83587060908440
C           50.52705875943155       -7.09026440142313       -0.34441297722783
C           50.48588230668997       -5.71527919955015       -0.12538290210785
C           48.56153056240080       -2.79367986568197       -0.46665269070611
C           47.26111906447429       -3.43364316011090       -0.32122234065061
C           46.38556540109819       -2.44966175129215       -0.10374235893166
C           47.12678645478675       -1.19491843423529       -0.09879407813930
N           48.41056601733156       -1.39193028538598       -0.30594688087090
H           45.42020368772742        0.13679153975226        0.05461255420256
H           45.45120015176182        2.75294710563159        0.32399694973252
H           47.27306769038791        4.52892858955620        0.65642233492658
H           49.09616953236231        4.73489059081873        2.92197496844402
H           49.20302434604507        7.15885894230744        3.34496148602179
H           51.05068256941144        7.74823552172800       -0.50219707111191
H           50.93945671393330        5.32476059256993       -0.92685349565567
H           52.69077282227743        4.24893847099228        1.47289042186061
H           54.51385168425087        2.46609513792893        1.10535263387470
H           54.16931941593785       -2.21611911642522       -1.55618814892697
H           52.21274397829995       -4.05991638806740       -1.95171890083362
H           48.50299751223024       -4.81553760307899       -2.74442804602763
H           48.57113506179699       -7.24607152048967       -3.12894911849504
H           51.09953243462871       -7.72260123428171        0.32614455279867
H           51.02596780174554       -5.29286973393459        0.71596747709220
H           47.01934121059849       -4.48688550111161       -0.37212204862781
H           45.32563949215503       -2.57739801469823        0.04583651716912
Fe          91.82776136327323        0.04555643196201       -0.00767456733691
C           95.17289573210273       -0.05436377076701        0.06670101575014
C           94.50561128690462       -1.20769295424584        0.29199543061996
C           95.16306100967684       -2.48924089145962        0.49744781117018
C           94.21419399043984       -3.39636390200949        0.72132837595603
C           92.91853282047001       -2.71346323915098        0.67609508394251
N           93.10438924560256       -1.33985778648062        0.39392086019846
C           91.71287256553272       -3.31221699433446        0.89289466102250
C           91.67290463821507       -4.75993670884026        1.22472856219864
C           92.15875549074552       -5.22545156885622        2.45499522188287
C           92.09607740548131       -6.58077434830743        2.77009327348821
C           91.54553290113070       -7.49140600461711        1.85871409458984
C           91.47962083273025       -8.88961781261243        2.18317149396656
N           91.42681535008695      -10.01097181255949        2.44345423748616
C           91.05747158934572       -7.02846905996672        0.62972909812294
C           91.12000038294521       -5.67280897371197        0.31671759612113
C           90.44064393877176       -2.59420501013072        0.82285734629219
C           89.16170922861031       -3.15387593546847        1.25967958764643
C           88.21614616523682       -2.24238931908733        1.02366581465141
N           90.28391531576641       -1.37537744870253        0.34505012193556
C           88.88475408794369       -1.09613089560248        0.43630285943449
C           88.27686773388551        0.02879229294178       -0.01296450925449
C           89.06147716668639        1.14066867091269       -0.56549977259924
C           88.53154539356890        2.12006520252044       -1.34272090644771
C           89.55963387162120        3.07734873903636       -1.59994094561154
C           90.68340746001149        2.64786773537408       -0.96822672576601
N           90.44033398494116        1.41066219986329       -0.31619736377390
C           91.94224130143188        3.40392086753131       -0.93352521135770
C           91.92465752808010        4.86018175175288       -1.24337877547865
C           92.61240707710807        5.36854085042617       -2.35661196174845
C           92.57111124110844        6.72953163148992       -2.65214471867924
C           91.84021700921261        7.60551706687369       -1.83907787324352
C           91.79622439948908        9.00924226176123       -2.14321209012630
N           91.76103392873871       10.13497926802152       -2.38694488662213
C           91.14991455558440        7.10191023350733       -0.72885057202000
C           91.19109087201203        5.74079722229748       -0.43570560973415
C           93.11542078517280        2.80497399346256       -0.61828863772179
C           94.41585606637888        3.45189927876909       -0.50774202256224
C           95.29140332633364        2.48114278813125       -0.23731238494993
C           94.55019002189982        1.22847302869443       -0.16444251786393
N           93.26635573373295        1.41401460584092       -0.38193191520036
H           96.25676673914982       -0.09293741855689        0.06084227993808
H           96.22577671727940       -2.69068494274232        0.47145447472720
H           94.40390296514076       -4.44606643987809        0.89953945149712
H           92.58080310582535       -4.52907297757682        3.17291750378396
H           92.47394825604150       -6.92658688517182        3.72650872737653
H           90.62629023327281       -7.72337196236261       -0.08310099701266
H           90.73751657994461       -5.32643919699397       -0.63833375589776
H           88.98620150569934       -4.12228296842892        1.69964964870089
H           87.16304187885609       -2.36192916383188        1.23610805348200
H           87.50757761960341        2.16938207540090       -1.67503259591002
H           89.46421647115908        3.98897054007053       -2.16973171658333
H           93.17397542312059        4.70059086991408       -3.00220195388455
H           93.10583812232532        7.10674365103143       -3.51773830251012
H           90.57744001404140        7.76962013330754       -0.09350974886783
H           90.65100380400774        5.36455914082658        0.42727863078201
H           94.65762979690282        4.50084665968943       -0.61558169973605
H           96.35133120233391        2.61679101994651       -0.09486524892932
C           56.75123796718844        0.03164686596970       -0.00346210233682
C           55.48542754379148        0.01262025832130       -0.00805707786540
C           58.09769828515142        0.03102044832675       -0.00036277368676
C           59.44447380204777        0.01963725942815       -0.00603694036483
C           70.14012505142733        0.03474508934145       -0.00361116691925
C           68.89518778902317        0.02248240722810       -0.00303833563818
C           71.44613765803675        0.03083901264100       -0.00057032021566
C           72.79033692464496        0.01943935132203       -0.00621774978360
C           83.48791555904049        0.03411659314349       -0.00328647651569
C           82.24384751417254        0.02210030752380       -0.00323498504961
C           84.83252000823272        0.03132977438458       -0.00155131753498
C           86.22040656846796        0.01645144723778       -0.00811044030170
Fe          64.14985864001157        0.02459653141601       -0.01516784113320
C           60.74082159231499       -0.00922103279152        0.00737330661776
C           61.39786555308684       -1.14736690634180       -0.38613512898363
C           60.73230383397106       -2.39392255995747       -0.72217822702885
C           61.67823632435363       -3.25213761697222       -1.10512063130662
C           62.96328644091345       -2.56604256099488       -1.02594076949751
N           62.78162216114728       -1.24209523630875       -0.56019071110301
C           64.16210941762250       -3.12340458118524       -1.36220628626498
C           64.18768868246210       -4.51012263681322       -1.89121800235637
C           63.66383495062676       -4.80095216902639       -3.15872453891927
C           63.71256922794407       -6.09960167948566       -3.65981711024184
C           64.28663169566019       -7.12713683213672       -2.89990750164953