434
 energy: -712.640607321584 gnorm: 5.834539283492 xtb: 6.5.1 (b24c23e)
C           99.93594500000000        0.05450100000000        0.00546400000000
C          100.66079900000000       -0.99943300000000        0.89674800000000
C          100.04534799999999       -1.98660900000000        1.63283300000000
C          101.06677500000001       -2.69074700000000        2.32062600000000
C          102.27245200000000       -2.10329600000000        1.98717800000000
N          102.01547200000000       -1.09978100000000        1.08729400000000
C          103.70050500000001       -2.48865700000000        2.55744600000000
C          103.75000699999998       -3.43594400000000        3.69620100000000
C          103.99939400000000       -4.79434300000000        3.47785900000000
C          104.05199999999999       -5.68493500000000        4.55429500000000
C          103.89744800000000       -5.22463200000000        5.86478600000000
N          103.85879000000000       -6.13585100000000        6.93485400000000
C          103.57386099999998       -3.88010000000000        6.07364500000000
C          103.52249099999999       -2.98578100000000        5.00012000000000
C          104.82915500000000       -1.93163600000000        2.03980700000000
C          106.13844999999999       -2.21201600000000        2.59254800000000
C          107.03997699999998       -1.51565800000000        1.91039000000000
N          105.02219400000000       -1.05401100000000        1.00443800000000
C          106.35635900000000       -0.76412000000000        0.87622700000000
C          107.02626500000000        0.04084000000000        0.00839100000000
C          106.25173300000000        0.82087300000000       -1.13815100000000
C          106.80611299999998        1.31403400000000       -2.30301800000000
C          105.78105799999999        1.98148200000000       -3.01718100000000
C          104.62435899999998        1.86553100000000       -2.27706700000000
N          104.91059499999999        1.12000900000000       -1.15707700000000
C          103.20731000000001        2.46837500000000       -2.65673000000000
C          103.15752900000000        3.55013800000000       -3.66503200000000
C          102.93771300000000        3.25022900000000       -5.01312700000000
C          102.88864000000000        4.27269800000000       -5.96497400000000
C          103.01177799999999        5.60982400000000       -5.57762500000000
N          103.05158200000000        6.62596800000000       -6.54855900000000
C          103.30176600000000        5.90071000000000       -4.24079800000000
C          103.35359400000000        4.88071800000000       -3.28545600000000
C          102.08514099999998        1.99340500000000       -2.05608600000000
C          100.75987199999999        2.50586400000000       -2.35694200000000
C           99.87629400000000        1.83511200000000       -1.62415900000000
C          100.60151900000000        0.87588000000000       -0.82799500000000
N          101.92397999999999        1.01629300000000       -1.11321800000000
H           98.85694300000000        0.12017800000000        0.07472800000000
H           98.98268600000000       -2.17076100000000        1.68004900000000
H          100.93475599999999       -3.51968100000000        3.00081200000000
H          102.71924199999999       -0.52189700000000        0.63433500000000
H          104.14722099999999       -5.14747000000000        2.46060100000000
H          104.22569300000001       -6.73682300000000        4.35262700000000
H          104.08726299999999       -5.69341200000000        7.81940800000000
H          104.42448899999999       -6.95937000000000        6.75518800000000
H          103.36770100000000       -3.50689900000000        7.07158300000000
H          103.29799100000000       -1.93417000000000        5.16635800000000
H          106.35451299999998       -2.86029100000000        3.42262000000000
H          108.09617600000000       -1.52895400000000        2.10666500000000
H          107.83757599999998        1.21789800000000       -2.60487000000000
H          105.87743699999999        2.49197600000000       -3.96342400000000
H          104.22187300000000        0.80329200000000       -0.47954600000000
H          102.81217900000000        2.21172800000000       -5.31000000000000
H          102.74434299999999        4.00807800000000       -7.00692400000000
H          102.50437500000000        6.38940600000000       -7.36895100000000
H          102.80084400000000        7.52996800000000       -6.16246700000000
H          103.48140600000001        6.92238600000000       -3.92208000000000
H          103.55169499999998        5.11024000000000       -2.24065700000000
H          100.52823400000000        3.29231300000000       -3.05225100000000
H           98.81127600000001        1.97859500000000       -1.61992400000000
C          170.31056799999996        0.04112100000000        0.02235900000000
C          169.58571400000000        0.66729800000000       -1.20770900000000
C          170.20116500000000        1.15769400000000       -2.33724400000000
C          169.17973799999999        1.66591500000000       -3.18020400000000
C          167.97406100000001        1.47589100000000       -2.53199300000000
N          168.23104100000000        0.82979300000000       -1.34903500000000
C          166.54600700000000        1.94272800000000       -3.03773200000000
C          166.49650599999998        2.83422600000000       -4.22067300000000
C          166.24711899999997        2.31054000000000       -5.49294300000000
C          166.19451200000000        3.15436100000000       -6.60642100000000
C          166.34906500000000        4.53544600000000       -6.45853200000000
N          166.38772299999999        5.36834400000000       -7.59063000000000
C          166.67265200000000        5.04672500000000       -5.19758700000000
C          166.72402199999999        4.20659000000000       -4.08114800000000
C          165.41735700000001        1.56644000000000       -2.37695200000000
C          164.10806199999996        2.04026400000000       -2.77648600000000
C          163.20653600000000        1.53574700000000       -1.94239000000000
N          165.22431900000001        0.75962400000000       -1.28550300000000
C          163.89015299999997        0.70122300000000       -0.97395100000000
C          163.22024800000000        0.04084000000000        0.00839100000000
C          163.99477999999999       -0.89654700000000        1.03030700000000
C          163.44039999999998       -1.91748300000000        1.77717700000000
C          164.46545399999999       -2.45977600000000        2.59046200000000
C          165.62215300000000       -1.76589900000000        2.30806700000000
N          165.33591699999999       -0.84645200000000        1.32582500000000
C          167.03920299999999       -1.99738200000000        2.98184700000000
C          167.08898400000001       -2.73109200000000        4.26580700000000
C          167.30879999999999       -4.11204300000000        4.28266100000000
C          167.35787199999999       -4.80438000000000        5.49597200000000
C          167.23473500000000       -4.12105200000000        6.70882400000000
N          167.19493099999997       -4.83341900000000        7.92035000000000
C          166.94474700000001       -2.75313800000000        6.68576700000000
C          166.89291899999998       -2.05683100000000        5.47406700000000
C          168.16137199999997       -1.52150200000000        2.38192300000000
C          169.48664099999999       -1.69697800000000        2.94967100000000
C          170.37021899999999       -1.13731700000000        2.12890400000000
C          169.64499300000000       -0.58203800000000        1.01280800000000
N          168.32253299999999       -0.82751600000000        1.21482100000000
H          171.38956999999999        0.12358600000000        0.07042400000000
H          171.26382699999999        1.16147500000000       -2.52731500000000
H          169.31175699999997        2.13814500000000       -4.14290000000000
H          167.52727100000001        0.52124500000000       -0.68276200000000
H          166.09929199999999        1.23944100000000       -5.60367300000000
H          166.02081999999999        2.71711400000000       -7.58415000000000
H          166.15924899999999        6.33072300000000       -7.36256700000000
H          165.82202400000000        5.00482300000000       -8.35110100000000
H          166.87881200000001        6.10361500000000       -5.06289200000000
H          166.94852200000000        4.60928700000000       -3.09557400000000
H          163.89200000000000        2.69977500000000       -3.59765900000000
H          162.15033699999998        1.72375700000000       -2.00029000000000
H          162.40893699999998       -2.23333100000000        1.75273700000000
H          164.36907500000001       -3.26393000000000        3.30412600000000
H          166.02464000000001       -0.25948000000000        0.86233600000000
H          167.43433400000001       -4.63889700000000        3.33977000000000
H          167.50216899999998       -5.87924100000000        5.47705200000000
H          167.74213800000001       -5.68618500000000        7.87799300000000
H          167.44566900000001       -4.25052500000000        8.71187800000000
H          166.76510700000000       -2.20887300000000        7.60727600000000
H          166.69481700000000       -0.98723700000000        5.45816900000000
H          169.71827900000000       -2.19366000000000        3.87447600000000
H          171.43523700000000       -1.10032900000000        2.26760200000000
C          108.75239200000000        0.04084000000000        0.00839100000000
C          109.97430900000001        0.04084000000000        0.00839100000000
C          119.05635400000000        0.04084000000000        0.00839100000000
C          120.27827199999999        0.04084000000000        0.00839100000000
C          129.36031600000001        0.04084000000000        0.00839100000000
C          130.58223400000000        0.04084000000000        0.00839100000000
C          139.66427899999999        0.04084000000000        0.00839100000000
C          140.88619600000001        0.04084000000000        0.00839100000000
C          149.96824100000001        0.04084000000000        0.00839100000000
C          151.19015899999999        0.04084000000000        0.00839100000000
C          160.27220399999999        0.04084000000000        0.00839100000000
C          161.49412100000001        0.04084000000000        0.00839100000000
C          110.93911799999999       -0.01824200000000       -0.00374800000000
C          111.73176300000000       -0.60440000000000        1.23688300000000
C          111.22326999999999       -1.41483300000000        2.23171400000000
C          112.25988400000000       -1.62734700000000        3.17628700000000
C          113.37090300000000       -0.94647000000000        2.72481800000000
N          113.06105599999998       -0.39132100000000        1.50846000000000
C          114.76062899999999       -0.81530600000000        3.47259800000000
C          114.75476999999998       -0.90795900000000        4.95127500000000
C          115.21433700000000       -2.06183800000000        5.59504400000000
C          115.20566100000001       -2.14392000000000        6.99077800000000
C          114.77604700000001       -1.06127100000000        7.76327900000000
N          114.68253799999999       -1.18224000000000        9.16061800000000
C          114.24656100000000        0.05937100000000        7.11697000000000
C          114.25481900000000        0.14609600000000        5.72126200000000
C          115.89535600000001       -0.57801400000000        2.76258300000000
C          117.18232800000000       -0.38881400000000        3.39994900000000
C          118.09000300000000       -0.16986900000000        2.45478400000000
N          116.10332099999998       -0.44995900000000        1.41692000000000
C          117.42769600000000       -0.20811100000000        1.16649700000000
C          118.09180200000000       -0.01824200000000       -0.00374800000000
C          117.29914399999998       -0.06788400000000       -1.37494400000000
C          117.80745000000000       -0.42103100000000       -2.60862400000000
C          116.77085500000000       -0.24385100000000       -3.56048600000000
C          115.66003100000000        0.20449800000000       -2.87722200000000
N          115.96998200000000        0.23547800000000       -1.54056000000000
C          114.27033700000000        0.61989000000000       -3.51267400000000
C          114.27601799999999        1.11721000000000       -4.90826100000000
C          114.77364200000000        2.39027900000000       -5.20062900000000
C          114.78150199999999        2.86028900000000       -6.51768000000000
C          114.25397099999999        2.08372900000000       -7.55334800000000
N          114.34723800000000        2.52302300000000       -8.88536200000000
C          113.82671000000001        0.78352100000000       -7.26985100000000
C          113.81835099999999        0.30928000000000       -5.95460900000000
C          113.13563399999998        0.55814100000000       -2.76658500000000
C          111.84864399999999        0.98305100000000       -3.27788000000000
C          110.94094500000000        0.81162700000000       -2.32297500000000
C          111.60325600000000        0.26877400000000       -1.15400900000000
N          112.92768400000000        0.14548500000000       -1.47937300000000
H          110.21380600000001       -1.79297300000000        2.28677100000000
H          112.19755699999999       -2.19450800000000        4.09301000000000
H          113.72303799999999        0.06700700000000        0.88892500000000
H          115.57487799999998       -2.89451000000000        4.99507700000000
H          115.54722700000001       -3.05991600000000        7.46119100000000
H          115.37496199999998       -1.82201800000000        9.53510600000000
H          114.69696700000000       -0.27917700000000        9.62272700000000
H          113.82912699999999        0.88280000000000        7.68699700000000
H          113.86564599999998        1.03046700000000        5.22175800000000
H          117.37776700000001       -0.40913200000000        4.45709400000000
H          119.13424300000000        0.00787000000000        2.63583300000000
H          118.81678400000000       -0.74733200000000       -2.80822800000000
H          116.83303399999998       -0.40408500000000       -4.62649600000000
H          115.30808500000001        0.41289500000000       -0.79054000000000
H          115.16123600000000        3.00718400000000       -4.39298800000000
H          115.19709500000000        3.84247100000000       -6.71718300000000
H          113.65612800000000        2.08084200000000       -9.48193200000000
H          114.33060199999998        3.53506100000000       -8.95453400000000
H          113.48671199999998        0.12616700000000       -8.06313100000000
H          113.45956499999998       -0.69303700000000       -5.73119800000000
H          111.65322999999998        1.38093300000000       -4.25751800000000
H          109.89667299999999        1.04611800000000       -2.41941100000000
C          121.24308000000001       -0.01824200000000       -0.00374800000000
C          122.03572500000000       -0.60440000000000        1.23688300000000
C          121.52723200000000       -1.41483300000000        2.23171400000000
C          122.56384599999998       -1.62734700000000        3.17628700000000
C          123.67486599999998       -0.94647000000000        2.72481800000000
N          123.36501800000001       -0.39132100000000        1.50846000000000
C          125.06459099999998       -0.81530600000000        3.47259800000000
C          125.05873200000001       -0.90795900000000        4.95127500000000
C          125.51829999999998       -2.06183800000000        5.59504400000000
C          125.50962299999999       -2.14392000000000        6.99077800000000
C          125.08001000000000       -1.06127100000000        7.76327900000000
N          124.98650000000001       -1.18224000000000        9.16061800000000
C          124.55052299999998        0.05937100000000        7.11697000000000
C          124.55878199999999        0.14609600000000        5.72126200000000
C          126.19931799999999       -0.57801400000000        2.76258300000000
C          127.48628999999998       -0.38881400000000        3.39994900000000
C          128.39396600000001       -0.16986900000000        2.45478400000000
N          126.40728300000001       -0.44995900000000        1.41692000000000
C          127.73165799999998       -0.20811100000000        1.16649700000000
C          128.39576400000001       -0.01824200000000       -0.00374800000000
C          127.60310600000000       -0.06788400000000       -1.37494400000000
C          128.11141200000000       -0.42103100000000       -2.60862400000000
C          127.07481700000000       -0.24385100000000       -3.56048600000000
C          125.96399299999999        0.20449800000000       -2.87722200000000
N          126.27394500000000        0.23547800000000       -1.54056000000000
C          124.57429900000000        0.61989000000000       -3.51267400000000
C          124.57997999999999        1.11721000000000       -4.90826100000000
C          125.07760399999998        2.39027900000000       -5.20062900000000
C          125.08546400000000        2.86028900000000       -6.51768000000000
C          124.55793300000001        2.08372900000000       -7.55334800000000
N          124.65119999999999        2.52302300000000       -8.88536200000000
C          124.13067300000000        0.78352100000000       -7.26985100000000
C          124.12231400000000        0.30928000000000       -5.95460900000000
C          123.43959700000001        0.55814100000000       -2.76658500000000
C          122.15260599999999        0.98305100000000       -3.27788000000000
C          121.24490699999998        0.81162700000000       -2.32297500000000
C          121.90721800000000        0.26877400000000       -1.15400900000000
N          123.23164599999998        0.14548500000000       -1.47937300000000
H          120.51776799999999       -1.79297300000000        2.28677100000000
H          122.50151900000000       -2.19450800000000        4.09301000000000
H          124.02700100000000        0.06700700000000        0.88892500000000
H          125.87884099999999       -2.89451000000000        4.99507700000000
H          125.85119000000000       -3.05991600000000        7.46119100000000
H          125.67892399999999       -1.82201800000000        9.53510600000000
H          125.00092899999999       -0.27917700000000        9.62272700000000
H          124.13308900000000        0.88280000000000        7.68699700000000
H          124.16960800000000        1.03046700000000        5.22175800000000
H          127.68172999999999       -0.40913200000000        4.45709400000000
H          129.43820500000001        0.00787000000000        2.63583300000000
H          129.12074600000000       -0.74733200000000       -2.80822800000000
H          127.13699699999999       -0.40408500000000       -4.62649600000000
H          125.61204799999999        0.41289500000000       -0.79054000000000
H          125.46519899999998        3.00718400000000       -4.39298800000000
H          125.50105800000000        3.84247100000000       -6.71718300000000
H          123.96008999999998        2.08084200000000       -9.48193200000000
H          124.63456400000000        3.53506100000000       -8.95453400000000
H          123.79067499999999        0.12616700000000       -8.06313100000000
H          123.76352799999999       -0.69303700000000       -5.73119800000000
H          121.95719200000001        1.38093300000000       -4.25751800000000
H          120.20063500000001        1.04611800000000       -2.41941100000000
C          131.54704200000000       -0.01824200000000       -0.00374800000000
C          132.33968700000000       -0.60440000000000        1.23688300000000
C          131.83119500000001       -1.41483300000000        2.23171400000000
C          132.86780899999999       -1.62734700000000        3.17628700000000
C          133.97882799999999       -0.94647000000000        2.72481800000000
N          133.66898100000000       -0.39132100000000        1.50846000000000
C          135.36855299999999       -0.81530600000000        3.47259800000000
C          135.36269500000000       -0.90795900000000        4.95127500000000
C          135.82226199999997       -2.06183800000000        5.59504400000000
C          135.81358599999999       -2.14392000000000        6.99077800000000
C          135.38397200000000       -1.06127100000000        7.76327900000000
N          135.29046299999999       -1.18224000000000        9.16061800000000
C          134.85448500000001        0.05937100000000        7.11697000000000
C          134.86274399999999        0.14609600000000        5.72126200000000
C          136.50327999999999       -0.57801400000000        2.76258300000000
C          137.79025199999998       -0.38881400000000        3.39994900000000
C          138.69792799999999       -0.16986900000000        2.45478400000000
N          136.71124599999999       -0.44995900000000        1.41692000000000
C          138.03562099999999       -0.20811100000000        1.16649700000000
C          138.69972700000000       -0.01824200000000       -0.00374800000000
C          137.90706900000001       -0.06788400000000       -1.37494400000000
C          138.41537400000001       -0.42103100000000       -2.60862400000000
C          137.37878000000001       -0.24385100000000       -3.56048600000000
C          136.26795600000000        0.20449800000000       -2.87722200000000
N          136.57790700000001        0.23547800000000       -1.54056000000000
C          134.87826200000001        0.61989000000000       -3.51267400000000
C          134.88394299999999        1.11721000000000       -4.90826100000000
C          135.38156699999999        2.39027900000000       -5.20062900000000
C          135.38942700000001        2.86028900000000       -6.51768000000000
C          134.86189600000000        2.08372900000000       -7.55334800000000
N          134.95516300000000        2.52302300000000       -8.88536200000000
C          134.43463499999999        0.78352100000000       -7.26985100000000
C          134.42627600000000        0.30928000000000       -5.95460900000000
C          133.74355900000000        0.55814100000000       -2.76658500000000
C          132.45656800000000        0.98305100000000       -3.27788000000000
C          131.54886999999999        0.81162700000000       -2.32297500000000
C          132.21118100000001        0.26877400000000       -1.15400900000000
N          133.53560899999999        0.14548500000000       -1.47937300000000
H          130.82173000000000       -1.79297300000000        2.28677100000000
H          132.80548200000001       -2.19450800000000        4.09301000000000
H          134.33096300000000        0.06700700000000        0.88892500000000
H          136.18280300000001       -2.89451000000000        4.99507700000000
H          136.15515199999999       -3.05991600000000        7.46119100000000
H          135.98288700000001       -1.82201800000000        9.53510600000000
H          135.30489100000000       -0.27917700000000        9.62272700000000
H          134.43705100000000        0.88280000000000        7.68699700000000
H          134.47357000000000        1.03046700000000        5.22175800000000
H          137.98569200000000       -0.40913200000000        4.45709400000000
H          139.74216699999997        0.00787000000000        2.63583300000000
H          139.42470800000001       -0.74733200000000       -2.80822800000000
H          137.44095899999999       -0.40408500000000       -4.62649600000000
H          135.91601000000000        0.41289500000000       -0.79054000000000
H          135.76916099999997        3.00718400000000       -4.39298800000000
H          135.80502000000001        3.84247100000000       -6.71718300000000
H          134.26405199999999        2.08084200000000       -9.48193200000000
H          134.93852600000000        3.53506100000000       -8.95453400000000
H          134.09463700000001        0.12616700000000       -8.06313100000000
H          134.06748999999999       -0.69303700000000       -5.73119800000000
H          132.26115500000000        1.38093300000000       -4.25751800000000
H          130.50459799999999        1.04611800000000       -2.41941100000000
C          141.85100499999996       -0.01824200000000       -0.00374800000000
C          142.64365000000001       -0.60440000000000        1.23688300000000
C          142.13515699999999       -1.41483300000000        2.23171400000000
C          143.17177100000001       -1.62734700000000        3.17628700000000
C          144.28279000000001       -0.94647000000000        2.72481800000000
N          143.97294299999996       -0.39132100000000        1.50846000000000
C          145.67251600000000       -0.81530600000000        3.47259800000000
C          145.66665699999996       -0.90795900000000        4.95127500000000
C          146.12622500000001       -2.06183800000000        5.59504400000000
C          146.11754800000000       -2.14392000000000        6.99077800000000
C          145.68793399999998       -1.06127100000000        7.76327900000000
N          145.59442500000000       -1.18224000000000        9.16061800000000
C          145.15844799999999        0.05937100000000        7.11697000000000
C          145.16670700000000        0.14609600000000        5.72126200000000
C          146.80724300000000       -0.57801400000000        2.76258300000000
C          148.09421499999999       -0.38881400000000        3.39994900000000
C          149.00189000000000       -0.16986900000000        2.45478400000000
N          147.01520800000000       -0.44995900000000        1.41692000000000
C          148.33958300000000       -0.20811100000000        1.16649700000000
C          149.00368900000001       -0.01824200000000       -0.00374800000000
C          148.21103099999999       -0.06788400000000       -1.37494400000000
C          148.71933699999997       -0.42103100000000       -2.60862400000000
C          147.68274199999999       -0.24385100000000       -3.56048600000000
C          146.57191800000001        0.20449800000000       -2.87722200000000
N          146.88186999999996        0.23547800000000       -1.54056000000000
C          145.18222399999996        0.61989000000000       -3.51267400000000
C          145.18790500000000        1.11721000000000       -4.90826100000000
C          145.68552900000000        2.39027900000000       -5.20062900000000
C          145.69338900000000        2.86028900000000       -6.51768000000000
C          145.16585799999999        2.08372900000000       -7.55334800000000
N          145.25912500000001        2.52302300000000       -8.88536200000000
C          144.73859800000000        0.78352100000000       -7.26985100000000
C          144.73023899999998        0.30928000000000       -5.95460900000000
C          144.04752099999999        0.55814100000000       -2.76658500000000
C          142.76053099999999        0.98305100000000       -3.27788000000000
C          141.85283200000001        0.81162700000000       -2.32297500000000
C          142.51514299999997        0.26877400000000       -1.15400900000000
N          143.83957100000001        0.14548500000000       -1.47937300000000
H          141.12569300000001       -1.79297300000000        2.28677100000000
H          143.10944400000000       -2.19450800000000        4.09301000000000
H          144.63492600000001        0.06700700000000        0.88892500000000
H          146.48676499999999       -2.89451000000000        4.99507700000000
H          146.45911400000000       -3.05991600000000        7.46119100000000
H          146.28684899999996       -1.82201800000000        9.53510600000000
H          145.60885400000001       -0.27917700000000        9.62272700000000
H          144.74101399999998        0.88280000000000        7.68699700000000
H          144.77753300000001        1.03046700000000        5.22175800000000
H          148.28965500000001       -0.40913200000000        4.45709400000000
H          150.04613000000001        0.00787000000000        2.63583300000000
H          149.72867099999999       -0.74733200000000       -2.80822800000000
H          147.74492100000001       -0.40408500000000       -4.62649600000000
H          146.21997300000001        0.41289500000000       -0.79054000000000
H          146.07312300000001        3.00718400000000       -4.39298800000000
H          146.10898200000000        3.84247100000000       -6.71718300000000
H          144.56801500000000        2.08084200000000       -9.48193200000000
H          145.24248899999998        3.53506100000000       -8.95453400000000
H          144.39859899999996        0.12616700000000       -8.06313100000000
H          144.37145200000001       -0.69303700000000       -5.73119800000000
H          142.56511699999996        1.38093300000000       -4.25751800000000
H          140.80855999999997        1.04611800000000       -2.41941100000000
C          152.15496700000000       -0.01824200000000       -0.00374800000000
C          152.94761199999999       -0.60440000000000        1.23688300000000
C          152.43912000000000       -1.41483300000000        2.23171400000000
C          153.47573299999999       -1.62734700000000        3.17628700000000
C          154.58675299999999       -0.94647000000000        2.72481800000000
N          154.27690600000000       -0.39132100000000        1.50846000000000
C          155.97647799999999       -0.81530600000000        3.47259800000000
C          155.97062000000000       -0.90795900000000        4.95127500000000
C          156.43018699999996       -2.06183800000000        5.59504400000000