256
 energy: -446.287154995932 gnorm: 1.170425948624 xtb: 6.5.1 (b24c23e)
Cu          42.85974499999999       -0.03607100000000        0.03725700000000
C           39.51815100000000        0.10721700000000        0.02775500000000
C           40.18041999999999        1.14629000000000       -0.48903500000000
C           39.52987200000000        2.29414600000000       -1.10922000000000
C           40.47008700000000        3.14263200000000       -1.48166400000000
C           41.77500999999999        2.58176700000000       -1.10479700000000
N           41.59785600000000        1.30826200000000       -0.48303400000000
C           42.96713200000000        3.18388200000000       -1.29743500000000
C           43.01685500000000        4.52941400000000       -1.91415600000000
C           43.57379500000000        4.69739300000000       -3.19083800000000
C           43.63705300000000        5.96839800000000       -3.76949500000000
C           43.14804600000000        7.08493700000000       -3.07656500000000
N           43.21295599999999        8.38475400000000       -3.66907400000000
C           42.59699600000000        6.91903100000000       -1.79801100000000
C           42.53408200000000        5.64868000000000       -1.21799600000000
C           44.25831900000000        2.55875300000000       -0.90736700000000
C           45.54177499999999        3.27139400000000       -0.90119700000000
C           46.47628900000000        2.41602500000000       -0.53931000000000
N           44.40098199999999        1.31686400000000       -0.55844900000000
C           45.79617500000000        1.14763200000000       -0.30778100000000
C           46.39037300000000       -0.01050300000000        0.02262600000000
C           45.62679000000000       -1.25651400000000        0.25543000000000
C           46.15731100000000       -2.47269900000000        0.23557900000000
C           45.11441500000000       -3.40429900000000        0.61932300000000
C           44.01678100000000       -2.69422000000000        0.85309200000000
N           44.25062700000000       -1.30237700000000        0.63266600000000
C           42.73816700000000       -3.26524300000000        1.34860200000000
C           42.76098699999999       -4.60323000000000        1.98851200000000
C           43.49993900000000       -4.80719500000000        3.16404200000000
C           43.54091600000000       -6.07085000000000        3.76050300000000
C           42.84873300000000       -7.14592000000000        3.18556300000000
N           42.89113100000000       -8.43827500000000        3.79617000000000
C           42.11727299999999       -6.94635900000000        2.00635600000000
C           42.07622100000000       -5.68340800000000        1.40854400000000
C           41.57610999999999       -2.59413300000000        1.23251300000000
C           40.26877900000000       -3.03676800000000        1.71445800000000
C           39.40711600000000       -2.11018300000000        1.34175100000000
C           40.15557400000000       -1.07135400000000        0.63610600000000
N           41.42043400000000       -1.34281300000000        0.56632100000000
H           38.43478899999999        0.12518000000000        0.00429600000000
H           38.46656100000000        2.43768800000000       -1.25246900000000
H           40.28228700000000        4.08450000000000       -1.98025800000000
H           43.95685699999999        3.84377400000000       -3.73663100000000
H           44.06740100000000        6.08332100000000       -4.75635500000000
H           43.62228500000000        8.51869900000000       -4.62058500000000
H           42.85196499999999        9.22265700000000       -3.16066600000000
H           42.21880300000000        7.77346600000000       -1.25101300000000
H           42.11140400000000        5.53571800000000       -0.22712800000000
H           45.71269400000000        4.31179300000000       -1.14464600000000
H           47.53006299999999        2.64127200000000       -0.44317000000000
H           47.18299199999999       -2.72794700000000        0.00517100000000
H           45.22316099999999       -4.47627500000000        0.72149000000000
H           44.04092100000000       -3.98643400000000        3.61903200000000
H           44.11229500000000       -6.21240000000000        4.66924400000000
H           43.43412000000000       -8.59718500000000        4.67410700000000
H           42.37963000000000       -9.24560900000000        3.37492100000000
H           41.58220900000000       -7.76935100000000        1.54951500000000
H           41.51478300000000       -5.54683900000000        0.49237900000000
H           40.02694199999999       -3.93481800000000        2.26742200000000
H           38.34256300000000       -2.12642700000000        1.53514200000000
Cu          92.51646299999999        0.01582000000000        0.00939900000000
C           95.85805599999999       -0.07127000000000        0.12357800000000
C           95.19578799999998       -1.07612800000000        0.70410200000000
C           95.84633599999999       -2.22727000000000        1.31816600000000
C           94.90612100000000       -3.00651000000000        1.81959000000000
C           93.60119799999998       -2.38250100000000        1.56034100000000
N           93.77835200000000       -1.16062000000000        0.84242000000000
C           92.40907600000000       -2.87574800000000        1.95576300000000
C           92.35935300000000       -4.13322400000000        2.73650400000000
C           91.80241300000000       -5.29014600000000        2.17111400000000
C           91.73915499999998       -6.47471700000000        2.91076800000000
C           92.22816199999998       -6.51408000000000        4.22426000000000
N           92.16325200000000       -7.72611600000000        4.98027500000000
C           92.77921100000000       -5.35674300000000        4.79241200000000
C           92.84212599999999       -4.17140200000000        4.05405400000000
C           91.11788799999999       -2.20522800000000        1.65024400000000
C           89.83443200000001       -2.59383800000000        2.24763700000000
C           88.89991900000000       -1.81959300000000        1.73464100000000
N           90.97522599999999       -1.22823000000000        0.80792100000000
C           89.58003300000000       -0.92579500000000        0.80536800000000
C           88.98583499999999       -0.01050300000000        0.02262600000000
C           89.74941799999999        0.87199300000000       -0.88728900000000
C           89.21889700000000        1.52742000000000       -1.91194200000000
C           90.26179299999998        2.36200300000000       -2.47639800000000
C           91.35942699999998        2.16451100000000       -1.75538600000000
N           91.12558099999998        1.21175800000000       -0.71708300000000
C           92.63804000000000        2.89302200000000       -1.95755000000000
C           92.61521999999998        4.16565700000000       -2.71918900000000
C           91.87626800000000        5.25815200000000       -2.23968200000000
C           91.83529200000000        6.45350100000000       -2.96337300000000
C           92.52747500000000        6.56829500000000       -4.17710800000000
N           92.48507700000000        7.79129400000000       -4.91690400000000
C           93.25893499999999        5.47516900000000       -4.66231800000000
C           93.29998699999999        4.27908200000000       -3.93996000000000
C           93.80009799999999        2.42545600000000       -1.46232500000000
C           95.10742900000000        3.07172300000000       -1.56497200000000
C           95.96909099999999        2.24911100000000       -0.99859800000000
C           95.22063400000000        1.08697800000000       -0.52262500000000
N           93.95577400000001        1.17880100000000       -0.78744400000000
H           96.94141900000000       -0.10074900000000        0.12558900000000
H           96.90964699999999       -2.42597800000000        1.35865900000000
H           95.09392099999999       -3.94249300000000        2.32914700000000
H           91.41935099999999       -5.27341600000000        1.15806100000000
H           91.30880700000000       -7.36075900000000        2.46129000000000
H           91.75392300000000       -8.59320500000000        4.56618300000000
H           92.52424300000000       -7.76532400000000        5.95957200000000
H           93.15740499999998       -5.37292100000000        5.80681100000000
H           93.26480300000000       -3.28310200000000        4.50738100000000
H           89.66351400000001       -3.37160000000000        2.98029200000000
H           87.84614399999998       -1.86391600000000        1.97550400000000
H           88.19321600000001        1.47640800000000       -2.25199600000000
H           90.15304600000000        3.03945300000000       -3.31343500000000
H           91.33528699999999        5.18389200000000       -1.30418700000000
H           91.26391300000000        7.28914300000000       -2.57925100000000
H           91.94208799999998        8.61085200000000       -4.56427100000000
H           92.99657800000000        7.88625800000000       -5.82256400000000
H           93.79399900000000        5.54911900000000       -5.60069400000000
H           93.86142500000000        3.44000500000000       -4.33233500000000
H           95.34926599999999        4.02881200000000       -2.00796600000000
H           97.03364500000001        2.41927600000000       -0.90528400000000
C           52.55649800000000       -0.00940000000000        0.03111600000000
C           51.34755900000000       -0.02285500000000        0.02266800000000
C           49.92603000000000       -0.01403600000000        0.01068500000000
C           48.71435999999999       -0.00659700000000        0.02154800000000
C           53.97310200000000       -0.01607500000000        0.03164900000000
C           55.19379800000000       -0.00659700000000        0.02154800000000
C           68.29194800000000       -0.00940000000000        0.03111600000000
C           67.08300900000000       -0.02285500000000        0.02266800000000
C           65.66148000000000       -0.01403600000000        0.01068500000000
C           64.44981000000000       -0.00659700000000        0.02154800000000
C           69.70855200000000       -0.01607500000000        0.03164900000000
C           70.92924800000000       -0.00659700000000        0.02154800000000
C           84.02739799999999       -0.00940000000000        0.03111600000000
C           82.81845800000001       -0.02285500000000        0.02266800000000
C           81.39692900000000       -0.01403600000000        0.01068500000000
C           80.18526000000000       -0.00659700000000        0.02154800000000
C           85.44400200000000       -0.01607500000000        0.03164900000000
C           86.66469800000000       -0.00659700000000        0.02154800000000
Cu          59.85384200000000       -0.04461600000000        0.05554800000000
C           56.36965699999999        0.01168700000000       -0.02629600000000
C           57.02651700000000        1.12158300000000       -0.41024300000000
C           56.38179199999999        2.35366900000000       -0.87036200000000
C           57.31981500000000        3.24926600000000       -1.10487100000000
C           58.62266400000000        2.64147700000000       -0.81510300000000
N           58.44624600000000        1.29145600000000       -0.37759400000000
C           59.80669900000000        3.28383600000000       -0.90211400000000
C           59.82807799999999        4.70393100000000       -1.31623000000000
C           59.69440500000000        5.04722500000000       -2.67005200000000
C           59.71143199999999        6.38996700000000       -3.05917400000000
C           59.86502099999999        7.40135400000000       -2.09950000000000
N           59.88294699999999        8.77468100000000       -2.49828900000000
C           60.00067399999999        7.05726500000000       -0.74643400000000
C           59.98156900000000        5.71500900000000       -0.35606100000000
C           61.11018900000000        2.64002700000000       -0.59795600000000
C           62.38910300000000        3.36113100000000       -0.56350200000000
C           63.34059000000000        2.48438500000000       -0.31762300000000
N           61.27363099999999        1.37006200000000       -0.38949500000000
C           62.67787900000000        1.19190100000000       -0.20156300000000
C           63.29297000000000        0.01168700000000       -0.02629600000000
C           62.54761100000000       -1.26274000000000        0.06883500000000
C           63.09611300000000       -2.46237300000000       -0.07651000000000
C           62.06358999999999       -3.44288000000000        0.19367200000000
C           60.95368900000000       -2.77624200000000        0.48885900000000
N           61.16821300000000       -1.36655600000000        0.42089300000000
C           59.68847300000000       -3.41250900000000        0.93099900000000
C           59.74165599999999       -4.80052400000000        1.45076200000000
C           59.09669499999999       -5.84344600000000        0.76455800000000
C           59.16284300000000       -7.15256700000000        1.25084600000000
C           59.87848800000000       -7.43451100000000        2.42410000000000
N           59.94265200000000       -8.77315500000000        2.92371800000000
C           60.53172700000000       -6.39547400000000        3.10435200000000
C           60.46743500000000       -5.08635300000000        2.61774100000000
C           58.51252600000000       -2.75692700000000        0.88830500000000
C           57.22993100000000       -3.27077500000000        1.35792800000000
C           56.34166400000000       -2.33495200000000        1.09446800000000
C           57.04509999999999       -1.21457700000000        0.45974100000000
N           58.31485000000000       -1.45335900000000        0.33919600000000
H           55.32242900000000        2.53548000000000       -0.99424200000000
H           57.13041800000000        4.25991500000000       -1.44426000000000
H           59.57526900000000        4.27492500000000       -3.42057500000000
H           59.60548200000000        6.64212700000000       -4.10698800000000
H           59.78384100000000        9.04070600000000       -3.50338200000000
H           60.00044399999999        9.53489200000000       -1.79132600000000
H           60.12114700000000        7.82873800000000        0.00409600000000
H           60.08706300000000        5.46201300000000        0.69213300000000
H           62.54807900000000        4.42025100000000       -0.71690900000000
H           64.39565300000000        2.70919300000000       -0.23710600000000
H           64.12742400000000       -2.67848500000000       -0.32024600000000
H           62.18930800000000       -4.51804400000000        0.19205800000000
H           58.54552500000000       -5.64120800000000       -0.14625800000000
H           58.65823800000000       -7.94684800000000        0.71321000000000
H           60.47256400000000       -8.99327600000000        3.79689700000000
H           59.45729600000000       -9.55361700000000        2.42685200000000
H           61.09025300000000       -6.60003100000000        4.01042100000000
H           60.97805899999999       -4.29396000000000        3.15290100000000
H           57.02231099999999       -4.21835200000000        1.83782400000000
H           55.28722400000000       -2.40199900000000        1.32576900000000
Cu          75.58929200000000       -0.04461600000000        0.05554800000000
C           72.10510700000000        0.01168700000000       -0.02629600000000
C           72.76196700000000        1.12158300000000       -0.41024300000000
C           72.11724100000001        2.35366900000000       -0.87036200000000
C           73.05526500000001        3.24926600000000       -1.10487100000000
C           74.35811400000000        2.64147700000000       -0.81510300000000
N           74.18169600000000        1.29145600000000       -0.37759400000000
C           75.54214899999999        3.28383600000000       -0.90211400000000
C           75.56352800000001        4.70393100000000       -1.31623000000000
C           75.42985500000000        5.04722500000000       -2.67005200000000
C           75.44688200000000        6.38996700000000       -3.05917400000000
C           75.60047100000000        7.40135400000000       -2.09950000000000
N           75.61839700000000        8.77468100000000       -2.49828900000000
C           75.73612400000000        7.05726500000000       -0.74643400000000
C           75.71701899999998        5.71500900000000       -0.35606100000000
C           76.84563899999999        2.64002700000000       -0.59795600000000
C           78.12455300000001        3.36113100000000       -0.56350200000000
C           79.07604000000001        2.48438500000000       -0.31762300000000
N           77.00908099999999        1.37006200000000       -0.38949500000000
C           78.41332800000001        1.19190100000000       -0.20156300000000
C           79.02841999999998        0.01168700000000       -0.02629600000000
C           78.28306100000000       -1.26274000000000        0.06883500000000
C           78.83156200000001       -2.46237300000000       -0.07651000000000
C           77.79904000000001       -3.44288000000000        0.19367200000000
C           76.68913900000000       -2.77624200000000        0.48885900000000
N           76.90366299999999       -1.36655600000000        0.42089300000000
C           75.42392300000000       -3.41250900000000        0.93099900000000
C           75.47710600000001       -4.80052400000000        1.45076200000000
C           74.83214500000000       -5.84344600000000        0.76455800000000
C           74.89829300000000       -7.15256700000000        1.25084600000000
C           75.61393700000001       -7.43451100000000        2.42410000000000
N           75.67810199999998       -8.77315500000000        2.92371800000000
C           76.26717700000000       -6.39547400000000        3.10435200000000
C           76.20288499999998       -5.08635300000000        2.61774100000000
C           74.24797599999999       -2.75692700000000        0.88830500000000
C           72.96538099999998       -3.27077500000000        1.35792800000000
C           72.07711399999999       -2.33495200000000        1.09446800000000
C           72.78055000000001       -1.21457700000000        0.45974100000000
N           74.05029999999999       -1.45335900000000        0.33919600000000
H           71.05787900000000        2.53548000000000       -0.99424200000000
H           72.86586800000001        4.25991500000000       -1.44426000000000
H           75.31071900000001        4.27492500000000       -3.42057500000000
H           75.34093200000000        6.64212700000000       -4.10698800000000
H           75.51929000000000        9.04070600000000       -3.50338200000000
H           75.73589400000000        9.53489200000000       -1.79132600000000
H           75.85659699999999        7.82873800000000        0.00409600000000
H           75.82251300000000        5.46201300000000        0.69213300000000
H           78.28352799999999        4.42025100000000       -0.71690900000000
H           80.13110300000000        2.70919300000000       -0.23710600000000
H           79.86287400000001       -2.67848500000000       -0.32024600000000
H           77.92475799999998       -4.51804400000000        0.19205800000000
H           74.28097500000000       -5.64120800000000       -0.14625800000000
H           74.39368700000000       -7.94684800000000        0.71321000000000
H           76.20801299999999       -8.99327600000000        3.79689700000000
H           75.19274599999999       -9.55361700000000        2.42685200000000
H           76.82570300000000       -6.60003100000000        4.01042100000000
H           76.71350900000000       -4.29396000000000        3.15290100000000
H           72.75776100000000       -4.21835200000000        1.83782400000000
H           71.02267399999999       -2.40199900000000        1.32576900000000
256
 energy: -446.662178651493 gnorm: 0.467948739962 xtb: 6.5.1 (b24c23e)
Cu          42.86585367096266       -0.03270821276581        0.03671278652044
C           39.51891545871352        0.09404531554883        0.03477213523339
C           40.18600361608071        1.14796614755687       -0.48983040283599
C           39.52901317115316        2.28912441572968       -1.10682788378445
C           40.47834784115233        3.14487333451083       -1.48213533884602
C           41.77322380120201        2.57656439807159       -1.10269677567368
N           41.58043938699345        1.32286512905639       -0.49103451515548
C           42.98042256432010        3.18150287440535       -1.29463903804930
C           43.02091035178369        4.53140215334271       -1.91343771002106
C           43.57353356980397        4.70359686295436       -3.18898369919586
C           43.63572248505979        5.97018308640332       -3.76761369929742
C           43.14847725984959        7.09377236280925       -3.08060237165653
N           43.21269426250025        8.37994747843478       -3.66688514825809
C           42.59797159236117        6.91848645864259       -1.80074663401399
C           42.53511235450183        5.65089954032267       -1.22388521871226
C           44.25302243323652        2.57116685139559       -0.91338201125343
C           45.53097049108042        3.27918869265537       -0.90575343799624
C           46.47688899711204        2.41083988172211       -0.53778945587518
N           44.41392371745837        1.31451831577730       -0.55492611173766
C           45.80885829974209        1.14438999001489       -0.30597091011114
C           46.40225778442392       -0.02359819850002        0.02256628238065
C           45.62967925086176       -1.24097271715271        0.25980330654332
C           46.16013012607218       -2.49361476777515        0.23900130982668
C           45.13442413470170       -3.40691409344488        0.61681694295828
C           44.00820889126317       -2.68089090393723        0.85767316360830
N           44.25905680644443       -1.30670145323249        0.63122171605577
C           42.75043208943362       -3.25894056214362        1.34548173926688
C           42.76647138209660       -4.60304829217649        1.98531640664198
C           43.49926965894393       -4.81284565898143        3.16195017574569
C           43.53895848443749       -6.07197989264210        3.75874115244017
C           42.84902242869227       -7.15475545114990        3.18974733577685
N           42.89091857172428       -8.43324750110854        3.79380754674982
C           42.11876747747625       -6.94528412738236        2.00867962561077
C           42.07794340532224       -5.68459424504372        1.41417207038168
C           41.57472460981255       -2.59297590570724        1.23260001008338
C           40.27565458357726       -3.03730332899666        1.71301441693704
C           39.39894748601323       -2.10085243379721        1.33758713208357
C           40.13817356895230       -1.06479720349043        0.63250101590174
N           41.41972125694122       -1.35138423133993        0.57234892478500
H           38.43528510799669        0.12191385957836        0.00684759504007
H           38.46661533041404        2.43236712710917       -1.24979261657523
H           40.28970426204027        4.08541229369017       -1.98009565468942
H           43.95591543929684        3.84572950798183       -3.73521140749457
H           44.06700773924192        6.08371575864672       -4.75600247123052
H           43.61554785639965        8.51430508625141       -4.60410723626038
H           42.85773772562288        9.20683524819277       -3.16790691639451
H           42.21916870974503        7.77337123347704       -1.25153858282076
H           42.11258462530503        5.53572346713507       -0.22949136554914
H           45.70655009454529        4.31480261800560       -1.14657257985458
H           47.52968505081120        2.63459635741908       -0.44140349525790
H           47.18384632843600       -2.73290711865007        0.00510453109293
H           45.22708786924142       -4.47679523737336        0.71982782824333
H           44.03973455554246       -3.98822427563116        3.61785111106365
H           44.11171026506482       -6.21257155280369        4.66884787217369
H           43.42525387340479       -8.59234290462426        4.65874314841478
H           42.38789869191766       -9.23024629615324        3.38068245078140
H           41.58274765377374       -7.76902434627424        1.54989191133991
H           41.51629846485453       -5.54682076479059        0.49443382520646
H           40.03399286890804       -3.93468401225302        2.26634197793384
H           38.33956240872735       -2.12167981440761        1.53301150989684
Cu          92.51038973159737        0.01343709989007        0.01193058301685
C           95.85727651095098       -0.05818327128835        0.11648905359561
C           95.19022908511347       -1.07771768340781        0.70510121731756
C           95.84722424961178       -2.22252575740199        1.31533891850489
C           94.89790410019158       -3.00815831760054        1.82121172731611
C           93.60303019266325       -2.37782673837733        1.55719040310506
N           93.79584128815436       -1.17561674893335        0.85009883563619
C           92.39575734238342       -2.87206989687044        1.95535285737971
C           92.35527671975262       -4.13371680170438        2.73856447371304
C           91.80267491865884       -5.29202835706943        2.17730987792880
C           91.74048475092442       -6.47413784329186        2.91329595273926
C           92.22773210188204       -6.52233068594879        4.22939461462731
N           92.16350984274439       -7.72163266645983        4.97747802479263
C           92.77823773440065       -5.35872207494092        4.79044658938177
C           92.84108949144021       -4.17753674896200        4.05265373548950
C           91.12317078555660       -2.21715689929001        1.65728493312127
C           89.84519483511926       -2.60196871808841        2.25162111754178
C           88.89926702365645       -1.81545887938376        1.73123779899703
N           90.96222177749142       -1.22418950741404        0.80786631458761
C           89.56722142044977       -0.92248799949928        0.80370242347528
C           88.97505136864815       -0.00310855994481        0.01171176895011
C           89.74665041176274        0.86719951901118       -0.87208675443454
C           89.21601851210522        1.54189767850663       -1.92765256405956
C           90.24169301769827        2.36134496482592       -2.48001110413979
C           91.36794785108739        2.16090748235990       -1.74170720608750
N           91.11699172306875        1.21329567156474       -0.72133385297368
C           92.62579290842037        2.88691653719819       -1.95399500181807
C           92.60972483705827        4.16288096796084       -2.72079878541291
C           91.87693660113936        5.25952810216420       -2.24554826303430
C           91.83724892903345        6.45265809973170       -2.96528884179243
C           92.52718651702462        6.57666910544634       -4.18216343378898
N           92.48528901957854        7.78654306662989       -4.91401619169803
C           93.25744078508443        5.47650913115081       -4.66013602948150
C           93.29826096134872        4.28442661924997       -3.93783891548824
C           93.80152718920692        2.42491126866838       -1.46132771245950
C           95.10060721728125        3.07084148120397       -1.56626413146545
C           95.97728464047853        2.24055705454813       -0.99310300863331
C           95.23802352458334        1.08041558107244       -0.51919058176483
N           93.95664740493856        1.18866154933266       -0.79134394619140
H           96.94091957855676       -0.09682836030748        0.12427154135351
H           96.90960779251709       -2.42081898633179        1.35571212506289
H           95.08651353249107       -3.94287112334819        2.33000725860957
H           91.42029324039254       -5.27331313772438        1.16047419511242
H           91.30919994044477       -7.36068472477290        2.46181353335031
H           91.76066224197774       -8.57704324888217        4.57162496125558
H           92.51847180082711       -7.76261724751755        5.94238314974846
H           93.15704019412837       -5.37330690356326        5.80644053181237
H           93.26362208467111       -3.28507590228914        4.50607942652864
H           89.66962924593018       -3.37488342889068        2.98173512843831
H           87.84649386917522       -1.85877034122439        1.97094204697613
H           88.19231581383119        1.47908874702890       -2.25622516176519
H           90.14909876849819        3.03835721522096       -3.31480498968730
H           91.33647353915393        5.18389810063286       -1.30632912838350
H           91.26449741751898        7.28890931734327       -2.57961201950577
H           91.95095498161605        8.59537080779121       -4.56872524637544
H           92.98830903631882        7.88257085581420       -5.80657562516631
H           93.79346000348795        5.54925177715931       -5.60021119414106
H           93.85990896828756        3.44170833142657       -4.33118298517974
H           95.34222975299021        4.02786036005205       -2.00845761504735
H           97.03666322867205        2.41488967432889       -0.90251286824713
C           52.55122471930465       -0.00977011111828        0.03118701951318
C           51.32601384758153       -0.02229541598748        0.02231471635479
C           49.91500220918154       -0.01414380645204        0.01150997416525
C           48.68411804074521       -0.00841020769519        0.02190688337613
C           53.92172511983317       -0.01689547782539        0.03148440909801
C           55.12509931458559       -0.01114397400964        0.02507565423201