144
 energy: -230.661579273613 gnorm: 0.000805634555 xtb: 6.5.1 (b24c23e)
Co          12.96436720508366        0.13136389149413       -0.25694830039063
C            9.66492924452242        0.34105548402192       -0.88559313175708
C           10.25933040873737        1.37205116695074       -0.18862331017663
C            9.54746677644379        2.49664945628548        0.33688664420662
C           10.47023494234468        3.31382695916510        0.89706507413485
C           11.75070628563517        2.70912281455682        0.67136291975456
N           11.60148792996952        1.48371720409111        0.06972117077081
C           12.96370374115711        3.34885119486080        0.88358723528333
C           14.17115778938054        2.74402633522373        0.56247462354788
C           15.43417079793363        3.41726993678638        0.57668631883413
C           16.37488821723155        2.49186668911837        0.26857453211279
N           14.33550706226605        1.42368564828627        0.21778695873925
C           15.68618780419269        1.25375087352350        0.08660885489065
C           16.33686215561664        0.02317886316147       -0.02688543820788
C           15.63113911151548       -1.18091215545680       -0.09518860074752
C           16.25602711406210       -2.46449619646205       -0.04972513669335
C           15.27445067257975       -3.38094257665919       -0.22700109124639
C           14.05497180907997       -2.65146067340313       -0.40682043374056
C           12.88169008932694       -3.22210643246732       -0.87407001683388
C           12.85142429818166       -4.68470311331912       -1.12248005171737
C           12.76923943500617       -5.17242021158664       -2.42461646847548
C           12.76326463579620       -6.54303390773958       -2.66553990081594
C           12.66507715114760       -7.06242047756858       -4.07452459429739
C           12.83332336812397       -7.42340530482212       -1.59131561310940
C           12.91382840583636       -6.94991848173337       -0.28392955858573
C           13.00472114525911       -7.92048558633410        0.86249233841416
C           12.92611046589574       -5.57890990147555       -0.05543823564864
C           11.76506394649474       -2.45558200805735       -1.17976854475136
C           10.56544923199855       -2.97360017089973       -1.76887674310502
C            9.67966780095751       -1.95117831117980       -1.82040107982181
C           10.32576847341987       -0.81841412701042       -1.22966566246581
N           11.61635695222517       -1.12657193058490       -0.87746631852160
N           14.28153311547236       -1.29983332805889       -0.26903973129334
C           12.98052968604742        4.73835024785894        1.39623480100550
C           12.33581669510006        5.75803119627045        0.69695464576257
C           12.36206998430262        7.06525483902869        1.17027662966653
C           11.68586327032698        8.16654793453981        0.39918992728854
C           13.04021807915565        7.34921727851722        2.35191242480473
C           13.69214611950495        6.34331195761535        3.05939166915049
C           14.40795299730982        6.66185657479453        4.34417448252722
C           13.66026268128031        5.03995609940177        2.57595852086052
H            8.61032759194977        0.42118779892247       -1.12186558458622
H            8.47742740383068        2.62076984488292        0.28484358935321
H           10.31278283778548        4.24955991421226        1.40844738114206
H           15.57039318723231        4.46622550452454        0.78364309958187
H           17.44271657358399        2.61607394357117        0.18732584535312
H           17.31174291066700       -2.62581450208291        0.09803684807475
H           15.36041079604543       -4.45449590781064       -0.26880506574318
H           12.73124211117060       -4.47565174408291       -3.25478646312662
H           13.12125285639086       -8.04893571218246       -4.15831643297669
H           11.61589123336278       -7.14631743140131       -4.36705299925492
H           13.15762106393072       -6.38479787448648       -4.77233309730116
H           12.82908281559793       -8.49331831622223       -1.77289011652736
H           12.87717414662895       -7.41108669195474        1.81742504077009
H           12.24038738127385       -8.69352601011902        0.77131916301853
H           13.98063038767195       -8.41058362033526        0.86041267562999
H           12.98307915005753       -5.19574217224161        0.95746750893405
H           10.42867866044618       -3.99360883808952       -2.08956366149193
H            8.66656478592951       -1.95212066885751       -2.19015283967788
H           11.82901201044072        5.52909448141530       -0.23409918638523
H           11.27349188283470        8.91594414689657        1.07534426044917
H           10.88226270252443        7.77016529911297       -0.22158549207177
H           12.40891121048789        8.66070467133570       -0.25377201044546
H           13.06371489883525        8.36811511364873        2.72467508653033
H           13.69981847647781        6.65401581915606        5.17589952460994
H           14.86392317723480        7.65123657178212        4.29785205429357
H           15.18380976171428        5.92457358292595        4.55063327736734
H           14.15494253796571        4.24523353496855        3.12358420161469
Co          31.44493162952908        0.22346462204254       -0.20676655144649
C           34.73870415483127        0.79125618395700       -0.59142891494546
C           34.14929919928047       -0.16889554317833       -1.38692741482919
C           34.86485049210457       -0.98075926847597       -2.32311871312390
C           33.94662832409523       -1.75512154001859       -2.94790080827117
C           32.66468128219196       -1.38131600597461       -2.42537534517704
N           32.80943152957893       -0.45934492701411       -1.41788970238062
C           31.45276205813076       -1.77788337792055       -2.97288679096536
C           30.24321349418200       -1.30827639032167       -2.47904842515512
C           28.97996759820977       -1.52039859222242       -3.11783943860751
C           28.03790555354747       -0.96581951462140       -2.31714826915611
N           30.07717448012925       -0.60323962941912       -1.31103584867286
C           28.72589520008847       -0.43561339578488       -1.18316204965331
C           28.07405499266630        0.01847743162171       -0.03444518773858
C           28.77884125772673        0.42336446895005        1.10220991930697
C           28.15443684697405        0.73229737193916        2.34911951606850
C           29.13608876595613        1.15630673268029        3.18069912433742
C           30.35475381165248        1.13165524194211        2.42841655319096
C           31.52608138096922        1.74347352193839        2.84580959585561
C           31.55949951619942        2.37822531750267        4.18664892035349
C           31.63668853938409        3.76378992380586        4.30672792871601
C           31.64992071920051        4.36330583011430        5.56263164078734
C           31.74431174036118        5.86022676846792        5.68515455608424
C           31.59164408044450        3.56422657389109        6.69927916739964
C           31.51516495759705        2.17748912884843        6.59429026156533
C           31.43739867368579        1.33297107468259        7.83737358620644
C           31.49576610516375        1.58985601712544        5.33485801092361
C           32.63903039248955        1.83439904372706        2.02041212688353
C           33.83439633461694        2.55294736936188        2.35077191133884
C           34.71856920275290        2.32569945034409        1.35116488462902
C           34.07613294900873        1.43912017046575        0.42877273097519
N           32.78851297851416        1.17717187586121        0.82639134432192
N           30.12788901077502        0.62676286116689        1.16716978047513
C           31.43535221003318       -2.66669357929387       -4.15747910140152
C           32.07281439776408       -2.28836403755226       -5.33855431081888
C           32.04119500741673       -3.11692890625052       -6.45490043941145
C           32.70976178304414       -2.69395468001808       -7.73508592969342
C           31.36379016732829       -4.33063743642284       -6.38484488471596
C           30.71868068976575       -4.72063295251039       -5.21479812360018
C           30.00115103660555       -6.04170218370485       -5.14803166883590
C           30.75750535541845       -3.88441203449375       -4.10461952272704
H           35.79158222043487        1.00317025052653       -0.73631768162820
H           35.93420575652920       -0.95594474814710       -2.46090319876113
H           34.10820609054686       -2.50566033358024       -3.70450849389698
H           28.84418642203683       -2.01819885298489       -4.06409975118293
H           26.96965361771251       -0.92870158305625       -2.45753552079682
H           27.09908827049944        0.63255794202102        2.54585065411504
H           29.05063443139672        1.49128080193269        4.20158060447949
H           31.66559843175408        4.37707072785503        3.41276882642150
H           31.29617911552843        6.20331963392240        6.61779227306774
H           32.79250290756204        6.16789044660685        5.67757482577453
H           31.24204107771196        6.34987738555578        4.85049540482848
H           31.60210408830423        4.02602730947389        7.68128629486640
H           31.56405947271030        0.27662874633541        7.60127992152268
H           32.20845780071743        1.62897835642923        8.55010390301199
H           30.46605252245770        1.46509061455042        8.31862187357956
H           31.44229472838671        0.51109175026915        5.23761020242955
H           33.96950751891909        3.14556183517272        3.24099962242229
H           35.72858427414994        2.68894006669457        1.24623340664672
H           32.57723944012321       -1.32970015222345       -5.38985251019865
H           33.12309427957556       -3.55620513756981       -8.25906514622754
H           33.51152309106823       -1.98202601319622       -7.53873299769492
H           31.98175749980320       -2.21459719954460       -8.39355451601228
H           31.33496806419226       -4.97916641109743       -7.25446271642303
H           30.70792697296536       -6.83684489751032       -4.90009700670932
H           29.54435572667485       -6.28265507471614       -6.10833974393430
H           29.22552442542798       -6.02472117936548       -4.38229632033367
H           30.26870602508533       -4.18194900045556       -3.18335591732459
C           17.73949162343552       -0.00638165687036       -0.01459075128776
C           18.96390088996209       -0.02438361016320       -0.01232344614481
C           20.30612663312057       -0.03078308869293        0.00042107923254
C           21.53680909979760       -0.02537022633909        0.01338545948311
C           22.87430028982188       -0.01830072336778        0.01902658453806
C           24.10493397208864       -0.00231707421779        0.02564055846687
C           25.44712632369525        0.00940455473036        0.01740312243987
C           26.67149534863486        0.00922906689019       -0.00196343364940
