      -----------------------------------------------------------      
     |                   =====================                   |     
     |                           x T B                           |     
     |                   =====================                   |     
     |                         S. Grimme                         |     
     |          Mulliken Center for Theoretical Chemistry        |     
     |                    University of Bonn                     |     
      -----------------------------------------------------------      

   * xtb version 6.5.1 (b24c23e) compiled by 'conda@728c89f4b128' on 2022-07-12

   xtb is free software: you can redistribute it and/or modify it under
   the terms of the GNU Lesser General Public License as published by
   the Free Software Foundation, either version 3 of the License, or
   (at your option) any later version.
   
   xtb is distributed in the hope that it will be useful,
   but WITHOUT ANY WARRANTY; without even the implied warranty of
   MERCHANTABILITY or FITNESS FOR A PARTICULAR PURPOSE.  See the
   GNU Lesser General Public License for more details.
   
   Cite this work as:
   * C. Bannwarth, E. Caldeweyher, S. Ehlert, A. Hansen, P. Pracht,
     J. Seibert, S. Spicher, S. Grimme, WIREs Comput. Mol. Sci., 2020, 11,
     e01493. DOI: 10.1002/wcms.1493
   
   for GFN2-xTB:
   * C. Bannwarth, S. Ehlert and S. Grimme., J. Chem. Theory Comput., 2019,
     15, 1652-1671. DOI: 10.1021/acs.jctc.8b01176
   for GFN1-xTB:
   * S. Grimme, C. Bannwarth, P. Shushkov, J. Chem. Theory Comput., 2017,
     13, 1989-2009. DOI: 10.1021/acs.jctc.7b00118
   for GFN0-xTB:
   * P. Pracht, E. Caldeweyher, S. Ehlert, S. Grimme, ChemRxiv, 2019, preprint.
     DOI: 10.26434/chemrxiv.8326202.v1
   for GFN-FF:
   * S. Spicher and S. Grimme, Angew. Chem. Int. Ed., 2020, 59, 15665-15673.
     DOI: 10.1002/anie.202004239
   
   for ALPB and GBSA implicit solvation:
   * S. Ehlert, M. Stahn, S. Spicher, S. Grimme, J. Chem. Theory Comput.,
     2021, 17, 4250-4261. DOI: 10.1021/acs.jctc.1c00471
   
   for DFT-D4:
   * E. Caldeweyher, C. Bannwarth and S. Grimme, J. Chem. Phys., 2017,
     147, 034112. DOI: 10.1063/1.4993215
   * E. Caldeweyher, S. Ehlert, A. Hansen, H. Neugebauer, S. Spicher,
     C. Bannwarth and S. Grimme, J. Chem. Phys., 2019, 150, 154122.
     DOI: 10.1063/1.5090222
   * E. Caldeweyher, J.-M. Mewes, S. Ehlert and S. Grimme, Phys. Chem. Chem. Phys.
     2020, 22, 8499-8512. DOI: 10.1039/D0CP00502A
   
   for sTDA-xTB:
   * S. Grimme and C. Bannwarth, J. Chem. Phys., 2016, 145, 054103.
     DOI: 10.1063/1.4959605
   
   in the mass-spec context:
   * V. Asgeirsson, C. Bauer and S. Grimme, Chem. Sci., 2017, 8, 4879.
     DOI: 10.1039/c7sc00601b
   * J. Koopman and S. Grimme, ACS Omega 2019, 4, 12, 15120-15133.
     DOI: 10.1021/acsomega.9b02011
   
   for metadynamics refer to:
   * S. Grimme, J. Chem. Theory Comput., 2019, 155, 2847-2862
     DOI: 10.1021/acs.jctc.9b00143
   
   for SPH calculations refer to:
   * S. Spicher and S. Grimme, J. Chem. Theory Comput., 2021, 17, 1701-1714
     DOI: 10.1021/acs.jctc.0c01306
   
   with help from (in alphabetical order)
   P. Atkinson, C. Bannwarth, F. Bohle, G. Brandenburg, E. Caldeweyher
   M. Checinski, S. Dohm, S. Ehlert, S. Ehrlich, I. Gerasimov, C. Hölzer
   A. Katbashev, J. Koopman, C. Lavigne, S. Lehtola, F. März, M. Müller,
   F. Musil, H. Neugebauer, J. Pisarek, C. Plett, P. Pracht, F. Pultar,
   J. Seibert, P. Shushkov, S. Spicher, M. Stahn, M. Steiner, T. Strunk,
   J. Stückrath, T. Rose, and J. Unsleber
   
 * started run on 2022/07/30 at 12:14:12.341     

           -------------------------------------------------
          |                Calculation Setup                |
           -------------------------------------------------

          program call               : xtb xtbopt.xyz --gfn 1 --vipea
          hostname                   : cx3-15-15.cx3.hpc.ic.ac.uk
          coordinate file            : xtbopt.xyz
          omp threads                :                     1

   ID    Z sym.   atoms
    1   30 Zn     1, 63, 133
    2    6 C      2-6, 8-11, 13, 15, 17-20, 22-27, 29-32, 34, 36, 38-42,
                  64-68, 70-73, 75, 77, 79-82, 84-89, 91-94, 96, 98, 100-104,
                  125-132, 134-138, 140-143, 145, 147, 149-152, 154-159,
                  161-164, 166, 168, 170-174
    3    7 N      7, 21, 28, 43, 69, 83, 90, 105, 139, 153, 160, 175
    4    8 O      12, 14, 16, 33, 35, 37, 74, 76, 78, 95, 97, 99, 144, 146,
                  148, 165, 167, 169
    5    1 H      44-62, 106-124, 176-193

           -------------------------------------------------
          |                 I P E A - x T B                 |
           -------------------------------------------------

        Reference                      10.1039/c7sc00601b
      * Hamiltonian:
        H0-scaling (s, p, d)           2.150000    2.300000    2.000000
        zeta-weighting                 0.000000
      * Dispersion:
        s8                             2.400000
        a1                             0.630000
        a2                             5.000000
        s9                             0.000000
      * Repulsion:
        kExp                           1.500000
        rExp                           1.000000
      * Coulomb:
        alpha                          1.000000
        third order                    atomic
        anisotropic                    false
      * Halogen bond correction:
        rad-scale                      1.300000
        damping                        0.440000


          ...................................................
          :                      SETUP                      :
          :.................................................:
          :  # basis functions                 794          :
          :  # atomic orbitals                 794          :
          :  # shells                          520          :
          :  # electrons                       646          :
          :  # halogen bonds                     0          :
          :  max. iterations                   250          :
          :  Hamiltonian                  GFN1-xTB          :
          :  restarted?                      false          :
          :  GBSA solvation                  false          :
          :  PC potential                    false          :
          :  electronic temp.          300.0000000     K    :
          :  accuracy                    1.0000000          :
          :  -> integral cutoff          0.2500000E+02      :
          :  -> integral neglect         0.1000000E-07      :
          :  -> SCF convergence          0.1000000E-05 Eh   :
          :  -> wf. convergence          0.2000000E-04 e    :
          :  Broyden damping             0.4000000          :
          ...................................................

 iter      E             dE          RMSdq      gap      omega  full diag
   1   -419.0334896 -0.419033E+03  0.101E+01    0.29       0.0  T
   2   -420.2864679 -0.125298E+01  0.639E+00    1.13       1.0  T
   3   -418.1449535  0.214151E+01  0.441E+00    0.96       1.0  T
   4   -421.4829365 -0.333798E+01  0.158E+00    1.45       1.0  T
   5   -422.5907560 -0.110782E+01  0.297E-01    1.19       1.0  T
   6   -422.6271617 -0.364057E-01  0.935E-02    1.24       1.0  T
   7   -422.6288473 -0.168561E-02  0.569E-02    1.22       1.0  T
   8   -422.6300708 -0.122350E-02  0.223E-02    1.22       1.0  T
   9   -422.6301107 -0.399264E-04  0.975E-03    1.22       1.0  T
  10   -422.6301286 -0.178658E-04  0.510E-03    1.22       1.4  T
  11   -422.6301376 -0.900879E-05  0.194E-03    1.22       3.7  T
  12   -422.6301389 -0.128148E-05  0.916E-04    1.22       7.9  T
  13   -422.6301391 -0.280162E-06  0.354E-04    1.22      20.3  T
  14   -422.6301392 -0.411566E-07  0.145E-04    1.22      49.6  T
  15   -422.6301392 -0.724316E-08  0.463E-05    1.22     155.3  T

   *** convergence criteria satisfied after 15 iterations ***

         #    Occupation            Energy/Eh            Energy/eV
      -------------------------------------------------------------
         1        2.0000           -1.0428626             -28.3777
       ...           ...                  ...                  ...
       317        2.0000           -0.3907693             -10.6334
       318        2.0000           -0.3905003             -10.6261
       319        2.0000           -0.3901765             -10.6172
       320        2.0000           -0.3899634             -10.6114
       321        2.0000           -0.3839699             -10.4484
       322        2.0000           -0.3778182             -10.2810
       323        2.0000           -0.3686126             -10.0305 (HOMO)
       324                         -0.3237369              -8.8093 (LUMO)
       325                         -0.3105994              -8.4518
       326                         -0.3063824              -8.3371
       327                         -0.3053047              -8.3078
       328                         -0.3048239              -8.2947
       ...                                ...                  ...
       794                        514.1315417           13990.2313
      -------------------------------------------------------------
                  HL-Gap            0.0448757 Eh            1.2211 eV
             Fermi-level           -0.3461747 Eh           -9.4199 eV

 SCC (total)                   0 d,  0 h,  0 min,  7.720 sec
 SCC setup                      ...        0 min,  0.010 sec (  0.135%)
 Dispersion                     ...        0 min,  0.013 sec (  0.174%)
 classical contributions        ...        0 min,  0.005 sec (  0.061%)
 integral evaluation            ...        0 min,  0.886 sec ( 11.471%)
 iterations                     ...        0 min,  4.729 sec ( 61.256%)
 molecular gradient             ...        0 min,  2.005 sec ( 25.976%)
 printout                       ...        0 min,  0.072 sec (  0.927%)

         :::::::::::::::::::::::::::::::::::::::::::::::::::::
         ::                     SUMMARY                     ::
         :::::::::::::::::::::::::::::::::::::::::::::::::::::
         :: total energy            -415.583714108005 Eh    ::
         :: gradient norm              0.086380548581 Eh/a0 ::
         :: HOMO-LUMO gap              1.221129357616 eV    ::
         ::.................................................::
         :: SCC energy              -422.630139190881 Eh    ::
         :: -> electrostatic           0.498408657395 Eh    ::
         :: repulsion energy           7.218283749757 Eh    ::
         :: dispersion energy         -0.171858666882 Eh    ::
         :: halogen bond corr.         0.000000000000 Eh    ::
         :: add. restraining           0.000000000000 Eh    ::
         :: total charge              -0.000000000000 e     ::
         :::::::::::::::::::::::::::::::::::::::::::::::::::::

           ------------------------------------------------- 
          |        vertical delta SCC IP calculation        |
           ------------------------------------------------- 
   1   -422.2266221 -0.422227E+03  0.102E-01    1.22       0.0  T
   2   -422.2291643 -0.254225E-02  0.913E-02    1.15       1.0  T
   3   -422.2339379 -0.477357E-02  0.461E-02    1.19       1.0  T
   4   -422.2340566 -0.118731E-03  0.320E-02    1.19       1.0  T
   5   -422.2332414  0.815234E-03  0.346E-02    1.18       1.0  T
   6   -422.2341965 -0.955125E-03  0.189E-02    1.18       1.0  T
   7   -422.2345381 -0.341537E-03  0.544E-03    1.18       1.3  T
   8   -422.2345515 -0.134706E-04  0.209E-03    1.18       3.4  T
   9   -422.2345530 -0.144351E-05  0.930E-04    1.18       7.7  T
  10   -422.2345531 -0.137564E-06  0.699E-04    1.18      10.3  T
  11   -422.2345533 -0.160602E-06  0.273E-04    1.18      26.4  T
  12   -422.2345533 -0.175090E-07  0.124E-04    1.18      58.1  T
  13   -422.2345533 -0.477013E-08  0.526E-05    1.18     136.8  T
     SCC iter.                  ...        0 min,  4.133 sec
     gradient                   ...        0 min,  2.000 sec
------------------------------------------------------------------------
empirical IP shift (eV):    4.8455
delta SCC IP (eV):    5.9189
------------------------------------------------------------------------
           ------------------------------------------------- 
          |        vertical delta SCC EA calculation        |
           ------------------------------------------------- 
   1   -422.8972529 -0.422897E+03  0.187E-01    0.42       0.0  T
   2   -422.9106507 -0.133978E-01  0.163E-01    0.20       1.0  T
   3   -422.9227474 -0.120967E-01  0.873E-02    0.29       1.0  T
   4   -422.9239170 -0.116955E-02  0.577E-02    0.26       1.0  T
   5   -422.9240180 -0.101092E-03  0.347E-02    0.26       1.0  T
   6   -422.9237408  0.277206E-03  0.285E-02    0.26       1.0  T
   7   -422.9242540 -0.513135E-03  0.142E-02    0.27       1.0  T
   8   -422.9244298 -0.175799E-03  0.424E-03    0.27       1.7  T
   9   -422.9244369 -0.709151E-05  0.258E-03    0.27       2.8  T
  10   -422.9244393 -0.239038E-05  0.112E-03    0.27       6.4  T
  11   -422.9244396 -0.382383E-06  0.481E-04    0.27      15.0  T
  12   -422.9244397 -0.544076E-07  0.209E-04    0.27      34.4  T
  13   -422.9244397 -0.137804E-07  0.755E-05    0.27      95.3  T
  14   -422.9244397 -0.160929E-08  0.315E-05    0.27     228.3  T
     SCC iter.                  ...        0 min,  4.421 sec
     gradient                   ...        0 min,  1.996 sec
------------------------------------------------------------------------
empirical EA shift (eV):    4.8455
delta SCC EA (eV):    3.1628
------------------------------------------------------------------------
           -------------------------------------------------
          |                Property Printout                |
           -------------------------------------------------

    * Orbital Energies and Occupations

         #    Occupation            Energy/Eh            Energy/eV
      -------------------------------------------------------------
         1        2.0000           -1.0031275             -27.2965
       ...           ...                  ...                  ...
       312        2.0000           -0.3553662              -9.6700
       313        2.0000           -0.3525083              -9.5922
       314        2.0000           -0.3504397              -9.5359
       315        2.0000           -0.3495712              -9.5123
       316        2.0000           -0.3492739              -9.5042
       317        2.0000           -0.3416893              -9.2978
       318        2.0000           -0.3374891              -9.1835
       319        2.0000           -0.3373815              -9.1806
       320        2.0000           -0.3325798              -9.0500
       321        2.0000           -0.3305602              -8.9950
       322        2.0000           -0.3250851              -8.8460
       323        2.0000           -0.3111510              -8.4669
       324        0.9936           -0.2653754              -7.2212 (HOMO)
       325        0.0053           -0.2556112              -6.9555 (LUMO)
       326        0.0006           -0.2535531              -6.8995
       327        0.0005           -0.2533936              -6.8952
       328        0.0000           -0.2468834              -6.7180
       329                         -0.2423536              -6.5948
       330                         -0.2194558              -5.9717
       331                         -0.2173360              -5.9140
       332                         -0.2168321              -5.9003
       333                         -0.2162405              -5.8842
       334                         -0.2159023              -5.8750
       335                         -0.2139936              -5.8231
       ...                                ...                  ...
       794                        514.1907149           13991.8415
      -------------------------------------------------------------
                  HL-Gap            0.0097642 Eh            0.2657 eV
             Fermi-level           -0.2744243 Eh           -7.4675 eV

  Mulliken/CM5 charges         n(s)   n(p)   n(d)
     1Zn    0.36282  0.68784   0.763  0.874  0.000
     2C    -0.02995 -0.07109   1.085  2.945  0.000
     3C     0.05549  0.11719   1.119  2.826  0.000
     4C    -0.04119 -0.08724   1.089  2.953  0.000
     5C    -0.03716 -0.08280   1.084  2.953  0.000
     6C     0.05516  0.12057   1.110  2.834  0.000
     7N    -0.24022 -0.48401   1.350  3.890  0.000
     8C     0.00779  0.01319   1.092  2.900  0.000
     9C    -0.00282 -0.01096   1.079  2.923  0.000
    10C    -0.04065 -0.08879   1.063  2.978  0.000
    11C     0.08091  0.09797   1.115  2.804  0.000
    12O    -0.29497 -0.49015   1.629  4.666  0.000
    13C     0.06622  0.08596   1.092  2.842  0.000
    14O    -0.30327 -0.50314   1.623  4.681  0.000
    15C     0.07258  0.08761   1.104  2.823  0.000
    16O    -0.30337 -0.50691   1.624  4.680  0.000
    17C    -0.04696 -0.09641   1.051  2.996  0.000
    18C     0.05367  0.11821   1.108  2.838  0.000
    19C    -0.03883 -0.08446   1.081  2.958  0.000
    20C    -0.03878 -0.08392   1.087  2.952  0.000
    21N    -0.23691 -0.47989   1.352  3.885  0.000
    22C     0.06028  0.12681   1.123  2.816  0.000
    23C     0.01246  0.01934   1.085  2.903  0.000
    24C     0.06062  0.12713   1.124  2.816  0.000
    25C    -0.03806 -0.08320   1.087  2.951  0.000
    26C    -0.03752 -0.08315   1.082  2.956  0.000
    27C     0.05427  0.11881   1.108  2.838  0.000
    28N    -0.23685 -0.47975   1.352  3.885  0.000
    29C     0.00772  0.01312   1.092  2.900  0.000
    30C    -0.00271 -0.01086   1.080  2.923  0.000
    31C    -0.03991 -0.08803   1.063  2.977  0.000
    32C     0.08148  0.09854   1.115  2.803  0.000
    33O    -0.29389 -0.48906   1.629  4.665  0.000
    34C     0.06607  0.08579   1.092  2.842  0.000
    35O    -0.30332 -0.50313   1.623  4.681  0.000
    36C     0.07191  0.08691   1.104  2.824  0.000
    37O    -0.30434 -0.50794   1.624  4.680  0.000
    38C    -0.04764 -0.09708   1.051  2.997  0.000
    39C     0.05450  0.11995   1.110  2.835  0.000
    40C    -0.03864 -0.08425   1.084  2.955  0.000
    41C    -0.04197 -0.08800   1.089  2.953  0.000
    42C     0.05514  0.11687   1.119  2.826  0.000
    43N    -0.24037 -0.48405   1.350  3.890  0.000
    44H     0.02082  0.07966   0.979  0.000  0.000
    45H     0.02747  0.08396   0.973  0.000  0.000
    46H     0.02363  0.08245   0.976  0.000  0.000
    47H     0.02990  0.09069   0.970  0.000  0.000
    48H     0.23168  0.41114   0.768  0.000  0.000
    49H     0.23692  0.41632   0.763  0.000  0.000
    50H     0.23144  0.40394   0.769  0.000  0.000
    51H     0.03013  0.09030   0.970  0.000  0.000
    52H     0.02365  0.08251   0.976  0.000  0.000
    53H     0.02573  0.08372   0.974  0.000  0.000
    54H     0.02617  0.08412   0.974  0.000  0.000
    55H     0.02473  0.08360   0.975  0.000  0.000
    56H     0.03119  0.09194   0.969  0.000  0.000
    57H     0.23198  0.41144   0.768  0.000  0.000
    58H     0.23634  0.41570   0.764  0.000  0.000
    59H     0.23023  0.40281   0.770  0.000  0.000
    60H     0.02900  0.08914   0.971  0.000  0.000
    61H     0.02233  0.08110   0.978  0.000  0.000
    62H     0.02707  0.08356   0.973  0.000  0.000
    63Zn    0.36292  0.68801   0.763  0.874  0.000
    64C    -0.02979 -0.07093   1.085  2.945  0.000
    65C     0.05550  0.11720   1.119  2.826  0.000
    66C    -0.04114 -0.08719   1.089  2.953  0.000
    67C    -0.03716 -0.08280   1.084  2.953  0.000
    68C     0.05523  0.12065   1.110  2.834  0.000
    69N    -0.24015 -0.48397   1.350  3.890  0.000
    70C     0.00781  0.01321   1.092  2.900  0.000
    71C    -0.00275 -0.01090   1.079  2.923  0.000
    72C    -0.04055 -0.08869   1.063  2.978  0.000
    73C     0.08101  0.09807   1.115  2.804  0.000
    74O    -0.29487 -0.49005   1.629  4.665  0.000
    75C     0.06620  0.08592   1.092  2.842  0.000
    76O    -0.30336 -0.50324   1.623  4.681  0.000
    77C     0.07251  0.08752   1.104  2.823  0.000
    78O    -0.30355 -0.50710   1.624  4.680  0.000
    79C    -0.04698 -0.09642   1.051  2.996  0.000
    80C     0.05379  0.11834   1.108  2.838  0.000
    81C    -0.03866 -0.08428   1.081  2.957  0.000
    82C    -0.03852 -0.08366   1.087  2.952  0.000
    83N    -0.23686 -0.47982   1.352  3.885  0.000
    84C     0.06040  0.12694   1.123  2.816  0.000
    85C     0.01268  0.01956   1.085  2.903  0.000
    86C     0.06072  0.12725   1.124  2.816  0.000
    87C    -0.03792 -0.08307   1.087  2.951  0.000
    88C    -0.03732 -0.08294   1.082  2.956  0.000
    89C     0.05440  0.11894   1.108  2.837  0.000
    90N    -0.23673 -0.47971   1.352  3.885  0.000
    91C     0.00788  0.01328   1.093  2.900  0.000
    92C    -0.00278 -0.01093   1.080  2.923  0.000
    93C    -0.03999 -0.08810   1.063  2.977  0.000
    94C     0.08159  0.09866   1.115  2.803  0.000
    95O    -0.29375 -0.48893   1.629  4.664  0.000
    96C     0.06625  0.08598   1.091  2.842  0.000
    97O    -0.30307 -0.50292   1.623  4.681  0.000
    98C     0.07200  0.08700   1.104  2.824  0.000
    99O    -0.30420 -0.50777   1.624  4.680  0.000
   100C    -0.04766 -0.09708   1.051  2.997  0.000
   101C     0.05462  0.12007   1.110  2.835  0.000
   102C    -0.03852 -0.08413   1.084  2.955  0.000
   103C    -0.04188 -0.08791   1.089  2.953  0.000
   104C     0.05519  0.11692   1.118  2.826  0.000
   105N    -0.24027 -0.48397   1.350  3.890  0.000
   106H     0.02091  0.07975   0.979  0.000  0.000
   107H     0.02750  0.08399   0.973  0.000  0.000
   108H     0.02362  0.08243   0.976  0.000  0.000
   109H     0.03007  0.09084   0.970  0.000  0.000
   110H     0.23168  0.41114   0.768  0.000  0.000
   111H     0.23677  0.41619   0.763  0.000  0.000
   112H     0.23127  0.40379   0.769  0.000  0.000
   113H     0.03005  0.09020   0.970  0.000  0.000
   114H     0.02388  0.08273   0.976  0.000  0.000
   115H     0.02610  0.08408   0.974  0.000  0.000
   116H     0.02633  0.08428   0.974  0.000  0.000
   117H     0.02512  0.08398   0.975  0.000  0.000
   118H     0.03108  0.09181   0.969  0.000  0.000
   119H     0.23222  0.41166   0.768  0.000  0.000
   120H     0.23652  0.41590   0.763  0.000  0.000
   121H     0.23026  0.40283   0.770  0.000  0.000
   122H     0.02905  0.08918   0.971  0.000  0.000
   123H     0.02247  0.08123   0.978  0.000  0.000
   124H     0.02715  0.08363   0.973  0.000  0.000
   125C    -0.02588 -0.02670   1.062  2.964  0.000
   126C    -0.02729 -0.02887   1.089  2.939  0.000
   127C    -0.02953 -0.03034   1.059  2.971  0.000
   128C    -0.02350 -0.02507   1.093  2.930  0.000
   129C    -0.02928 -0.03009   1.059  2.970  0.000
   130C    -0.02329 -0.02486   1.093  2.930  0.000
   131C    -0.02561 -0.02643   1.062  2.964  0.000
   132C    -0.02710 -0.02868   1.089  2.939  0.000
   133Zn    0.36372  0.68725   0.765  0.871  0.000
   134C     0.00786  0.01476   1.081  2.912  0.000
   135C     0.05993  0.12650   1.124  2.816  0.000
   136C    -0.04134 -0.08648   1.086  2.956  0.000
   137C    -0.03941 -0.08504   1.082  2.957  0.000
   138C     0.05112  0.11564   1.106  2.843  0.000
   139N    -0.23805 -0.48083   1.351  3.887  0.000
   140C     0.00919  0.01450   1.094  2.897  0.000
   141C    -0.00380 -0.01206   1.077  2.927  0.000
   142C    -0.04622 -0.09559   1.051  2.995  0.000
   143C     0.08091  0.09817   1.112  2.807  0.000
   144O    -0.29550 -0.49241   1.624  4.671  0.000
   145C     0.07574  0.09790   1.101  2.823  0.000
   146O    -0.29648 -0.48902   1.626  4.670  0.000
   147C     0.07152  0.08649   1.105  2.824  0.000
   148O    -0.30309 -0.50805   1.622  4.681  0.000
   149C    -0.04670 -0.09616   1.052  2.995  0.000
   150C     0.05125  0.11574   1.106  2.843  0.000
   151C    -0.03903 -0.08467   1.082  2.957  0.000
   152C    -0.04098 -0.08612   1.086  2.955  0.000
   153N    -0.23814 -0.48075   1.351  3.887  0.000
   154C     0.06012  0.12671   1.124  2.816  0.000
   155C     0.00798  0.01488   1.081  2.911  0.000
   156C     0.06045  0.12699   1.124  2.816  0.000
   157C    -0.04034 -0.08549   1.086  2.955  0.000
   158C    -0.03761 -0.08324   1.082  2.956  0.000
   159C     0.05269  0.11722   1.105  2.842  0.000
   160N    -0.23741 -0.48054   1.351  3.886  0.000
   161C     0.01075  0.01609   1.093  2.896  0.000
   162C     0.00253 -0.00558   1.085  2.912  0.000
   163C    -0.03942 -0.08753   1.063  2.977  0.000
   164C     0.08407  0.10107   1.119  2.797  0.000
   165O    -0.29429 -0.48951   1.632  4.662  0.000
   166C     0.05313  0.07078   1.080  2.867  0.000
   167O    -0.31773 -0.52336   1.613  4.705  0.000
   168C     0.07794  0.09377   1.113  2.809  0.000
   169O    -0.30014 -0.49871   1.628  4.673  0.000
   170C    -0.03977 -0.08793   1.064  2.976  0.000
   171C     0.05257  0.11712   1.105  2.842  0.000
   172C    -0.03794 -0.08355   1.082  2.956  0.000
   173C    -0.04047 -0.08561   1.086  2.955  0.000
   174C     0.06035  0.12692   1.124  2.816  0.000
   175N    -0.23764 -0.48041   1.351  3.887  0.000
   176H     0.02280  0.08078   0.977  0.000  0.000
   177H     0.02202  0.08089   0.978  0.000  0.000
   178H     0.02974  0.09024   0.970  0.000  0.000
   179H     0.22831  0.40106   0.772  0.000  0.000
   180H     0.23310  0.41392   0.767  0.000  0.000
   181H     0.23103  0.40368   0.769  0.000  0.000
   182H     0.02908  0.08927   0.971  0.000  0.000
   183H     0.02293  0.08179   0.977  0.000  0.000
   184H     0.02336  0.08132   0.977  0.000  0.000
   185H     0.02319  0.08117   0.977  0.000  0.000
   186H     0.02277  0.08163   0.977  0.000  0.000
   187H     0.03137  0.09214   0.969  0.000  0.000
   188H     0.22891  0.40827   0.771  0.000  0.000
   189H     0.23469  0.40947   0.765  0.000  0.000
   190H     0.22676  0.40411   0.773  0.000  0.000
   191H     0.03040  0.09118   0.970  0.000  0.000
   192H     0.02202  0.08088   0.978  0.000  0.000
   193H     0.02313  0.08108   0.977  0.000  0.000

Wiberg/Mayer (AO) data.
largest (>0.10) Wiberg bond orders for each atom

 ---------------------------------------------------------------------------
     #   Z sym  total        # sym  WBO       # sym  WBO       # sym  WBO
 ---------------------------------------------------------------------------
     1  30 Zn   2.427 --     7 N    0.569    43 N    0.567    28 N    0.562
                            21 N    0.561
     2   6 C    3.796 --     3 C    1.387    42 C    1.385    44 H    0.999
     3   6 C    3.946 --     2 C    1.387     7 N    1.284     4 C    1.199
     4   6 C    3.847 --     5 C    1.644     3 C    1.199    45 H    0.994
     5   6 C    3.834 --     4 C    1.644     6 C    1.208    46 H    1.001
     6   6 C    3.914 --     8 C    1.369     7 N    1.276     5 C    1.208
     7   7 N    3.000 --     3 C    1.284     6 C    1.276     1 Zn   0.569
     8   6 C    3.828 --     6 C    1.369    18 C    1.362     9 C    1.049
     9   6 C    3.894 --    10 C    1.415    17 C    1.407     8 C    1.049
    10   6 C    3.846 --     9 C    1.415    11 C    1.393    47 H    0.994
    11   6 C    3.977 --    10 C    1.393    13 C    1.359    12 O    1.123
    12   8 O    2.157 --    11 C    1.123    48 H    0.965
    13   6 C    3.912 --    15 C    1.369    11 C    1.359    14 O    1.088
    14   8 O    2.099 --    13 C    1.088    49 H    0.962
    15   6 C    3.938 --    17 C    1.401    13 C    1.369    16 O    1.093
    16   8 O    2.111 --    15 C    1.093    50 H    0.963
    17   6 C    3.818 --     9 C    1.407    15 C    1.401    51 H    0.992
    18   6 C    3.901 --     8 C    1.362    21 N    1.267    19 C    1.221
    19   6 C    3.823 --    20 C    1.619    18 C    1.221    52 H    1.000
    20   6 C    3.835 --    19 C    1.619    22 C    1.230    53 H    1.000
    21   7 N    3.013 --    22 C    1.312    18 C    1.267     1 Zn   0.561
    22   6 C    3.918 --    21 N    1.312    23 C    1.287    20 C    1.230
    23   6 C    3.813 --    24 C    1.289    22 C    1.287   126 C    1.234
    24   6 C    3.919 --    28 N    1.312    23 C    1.289    25 C    1.228
    25   6 C    3.837 --    26 C    1.621    24 C    1.228    54 H    1.000
    26   6 C    3.822 --    25 C    1.621    27 C    1.220    55 H    1.000
    27   6 C    3.902 --    29 C    1.365    28 N    1.266    26 C    1.220
    28   7 N    3.013 --    24 C    1.312    27 C    1.266     1 Zn   0.562
    29   6 C    3.828 --    39 C    1.368    27 C    1.365    30 C    1.048
    30   6 C    3.894 --    31 C    1.415    38 C    1.407    29 C    1.048
    31   6 C    3.847 --    30 C    1.415    32 C    1.393    56 H    0.994
    32   6 C    3.978 --    31 C    1.393    34 C    1.359    33 O    1.124
    33   8 O    2.158 --    32 C    1.124    57 H    0.965
    34   6 C    3.912 --    36 C    1.370    32 C    1.359    35 O    1.088
    35   8 O    2.099 --    34 C    1.088    58 H    0.962
    36   6 C    3.938 --    38 C    1.400    34 C    1.370    37 O    1.091
    37   8 O    2.110 --    36 C    1.091    59 H    0.963
    38   6 C    3.817 --    30 C    1.407    36 C    1.400    60 H    0.993
    39   6 C    3.914 --    29 C    1.368    43 N    1.276    40 C    1.209
    40   6 C    3.835 --    41 C    1.642    39 C    1.209    61 H    1.001
    41   6 C    3.846 --    40 C    1.642    42 C    1.200    62 H    0.994
    42   6 C    3.946 --     2 C    1.385    43 N    1.285    41 C    1.200
    43   7 N    3.000 --    42 C    1.285    39 C    1.276     1 Zn   0.567
    44   1 H    1.034 --     2 C    0.999
    45   1 H    1.022 --     4 C    0.994
    46   1 H    1.029 --     5 C    1.001
    47   1 H    1.038 --    10 C    0.994
    48   1 H    0.997 --    12 O    0.965
    49   1 H    0.993 --    14 O    0.962
    50   1 H    0.997 --    16 O    0.963
    51   1 H    1.027 --    17 C    0.992
    52   1 H    1.027 --    19 C    1.000
    53   1 H    1.031 --    20 C    1.000
    54   1 H    1.031 --    25 C    1.000
    55   1 H    1.028 --    26 C    1.000
    56   1 H    1.038 --    31 C    0.994
    57   1 H    0.997 --    33 O    0.965
    58   1 H    0.993 --    35 O    0.962
    59   1 H    0.998 --    37 O    0.963
    60   1 H    1.027 --    38 C    0.993
    61   1 H    1.028 --    40 C    1.001
    62   1 H    1.022 --    41 C    0.994
    63  30 Zn   2.427 --    69 N    0.569   105 N    0.567    90 N    0.562
                            83 N    0.561
    64   6 C    3.796 --    65 C    1.387   104 C    1.385   106 H    0.999
    65   6 C    3.947 --    64 C    1.387    69 N    1.284    66 C    1.199
    66   6 C    3.847 --    67 C    1.644    65 C    1.199   107 H    0.994
    67   6 C    3.834 --    66 C    1.644    68 C    1.208   108 H    1.001
    68   6 C    3.915 --    70 C    1.369    69 N    1.276    67 C    1.208
    69   7 N    3.000 --    65 C    1.284    68 C    1.276    63 Zn   0.569
    70   6 C    3.828 --    68 C    1.369    80 C    1.363    71 C    1.049
    71   6 C    3.894 --    72 C    1.415    79 C    1.407    70 C    1.049
    72   6 C    3.846 --    71 C    1.415    73 C    1.393   109 H    0.994
    73   6 C    3.977 --    72 C    1.393    75 C    1.359    74 O    1.123
    74   8 O    2.157 --    73 C    1.123   110 H    0.965
    75   6 C    3.912 --    77 C    1.370    73 C    1.359    76 O    1.088
    76   8 O    2.099 --    75 C    1.088   111 H    0.962
    77   6 C    3.938 --    79 C    1.400    75 C    1.370    78 O    1.092
    78   8 O    2.111 --    77 C    1.092   112 H    0.963
    79   6 C    3.818 --    71 C    1.407    77 C    1.400   113 H    0.992
    80   6 C    3.902 --    70 C    1.363    83 N    1.267    81 C    1.220
    81   6 C    3.823 --    82 C    1.620    80 C    1.220   114 H    1.000
    82   6 C    3.836 --    81 C    1.620    84 C    1.229   115 H    1.000
    83   7 N    3.014 --    84 C    1.312    80 C    1.267    63 Zn   0.561
    84   6 C    3.918 --    83 N    1.312    85 C    1.287    82 C    1.229
    85   6 C    3.814 --    86 C    1.289    84 C    1.287   132 C    1.233
    86   6 C    3.919 --    90 N    1.312    85 C    1.289    87 C    1.228
    87   6 C    3.837 --    88 C    1.622    86 C    1.228   116 H    1.000
    88   6 C    3.822 --    87 C    1.622    89 C    1.219   117 H    1.000
    89   6 C    3.902 --    91 C    1.365    90 N    1.266    88 C    1.219
    90   7 N    3.014 --    86 C    1.312    89 C    1.266    63 Zn   0.562
    91   6 C    3.828 --   101 C    1.368    89 C    1.365    92 C    1.048
    92   6 C    3.894 --    93 C    1.415   100 C    1.408    91 C    1.048
    93   6 C    3.847 --    92 C    1.415    94 C    1.393   118 H    0.994
    94   6 C    3.978 --    93 C    1.393    96 C    1.358    95 O    1.124
    95   8 O    2.158 --    94 C    1.124   119 H    0.964
    96   6 C    3.912 --    98 C    1.370    94 C    1.358    97 O    1.088
    97   8 O    2.100 --    96 C    1.088   120 H    0.962
    98   6 C    3.938 --   100 C    1.400    96 C    1.370    99 O    1.091
    99   8 O    2.110 --    98 C    1.091   121 H    0.963
   100   6 C    3.817 --    92 C    1.408    98 C    1.400   122 H    0.993
   101   6 C    3.914 --    91 C    1.368   105 N    1.277   102 C    1.209
   102   6 C    3.835 --   103 C    1.642   101 C    1.209   123 H    1.001
   103   6 C    3.846 --   102 C    1.642   104 C    1.200   124 H    0.994
   104   6 C    3.946 --    64 C    1.385   105 N    1.284   103 C    1.200
   105   7 N    3.000 --   104 C    1.284   101 C    1.277    63 Zn   0.567
   106   1 H    1.034 --    64 C    0.999
   107   1 H    1.022 --    66 C    0.994
   108   1 H    1.029 --    67 C    1.001
   109   1 H    1.038 --    72 C    0.994
   110   1 H    0.997 --    74 O    0.965
   111   1 H    0.993 --    76 O    0.962
   112   1 H    0.998 --    78 O    0.963
   113   1 H    1.027 --    79 C    0.992
   114   1 H    1.027 --    81 C    1.000
   115   1 H    1.031 --    82 C    1.000
   116   1 H    1.031 --    87 C    1.000
   117   1 H    1.027 --    88 C    1.000
   118   1 H    1.038 --    93 C    0.994
   119   1 H    0.997 --    95 O    0.964
   120   1 H    0.993 --    97 O    0.962
   121   1 H    0.998 --    99 O    0.963
   122   1 H    1.026 --   100 C    0.993
   123   1 H    1.028 --   102 C    1.001
   124   1 H    1.022 --   103 C    0.994
   125   6 C    3.800 --   126 C    2.484   127 C    1.339
   126   6 C    3.799 --   125 C    2.484    23 C    1.234   128 C    0.176
   127   6 C    3.799 --   128 C    2.482   125 C    1.339
   128   6 C    3.801 --   127 C    2.482   134 C    1.236   126 C    0.176
   129   6 C    3.799 --   130 C    2.483   131 C    1.339
   130   6 C    3.801 --   129 C    2.483   155 C    1.236   132 C    0.177
   131   6 C    3.801 --   132 C    2.485   129 C    1.339
   132   6 C    3.799 --   131 C    2.485    85 C    1.233   130 C    0.177
   133  30 Zn   2.417 --   160 N    0.564   175 N    0.563   139 N    0.562
                           153 N    0.562
   134   6 C    3.801 --   174 C    1.284   135 C    1.282   128 C    1.236
   135   6 C    3.921 --   139 N    1.315   134 C    1.282   136 C    1.231
   136   6 C    3.832 --   137 C    1.617   135 C    1.231   176 H    1.000
   137   6 C    3.828 --   136 C    1.617   138 C    1.223   177 H    1.001
   138   6 C    3.901 --   140 C    1.366   139 N    1.262   137 C    1.223
   139   7 N    3.003 --   135 C    1.315   138 C    1.262   133 Zn   0.562
   140   6 C    3.826 --   150 C    1.367   138 C    1.366   141 C    1.050
   141   6 C    3.890 --   142 C    1.415   149 C    1.405   140 C    1.050
   142   6 C    3.816 --   141 C    1.415   143 C    1.394   178 H    0.994
   143   6 C    3.968 --   142 C    1.394   145 C    1.356   144 O    1.115
   144   8 O    2.146 --   143 C    1.115   179 H    0.965
   145   6 C    3.945 --   147 C    1.359   143 C    1.356   146 O    1.113
   146   8 O    2.142 --   145 C    1.113   180 H    0.963
   147   6 C    3.937 --   149 C    1.408   145 C    1.359   148 O    1.088
   148   8 O    2.105 --   147 C    1.088   181 H    0.963
   149   6 C    3.819 --   147 C    1.408   141 C    1.405   182 H    0.993
   150   6 C    3.901 --   140 C    1.367   153 N    1.261   151 C    1.223
   151   6 C    3.828 --   152 C    1.618   150 C    1.223   183 H    1.001
   152   6 C    3.833 --   151 C    1.618   154 C    1.230   184 H    1.000
   153   7 N    3.003 --   154 C    1.316   150 C    1.261   133 Zn   0.562
   154   6 C    3.921 --   153 N    1.316   155 C    1.283   152 C    1.230
   155   6 C    3.802 --   156 C    1.285   154 C    1.283   130 C    1.236
   156   6 C    3.921 --   160 N    1.314   155 C    1.285   157 C    1.230
   157   6 C    3.833 --   158 C    1.619   156 C    1.230   185 H    1.000
   158   6 C    3.826 --   157 C    1.619   159 C    1.222   186 H    1.001
   159   6 C    3.901 --   161 C    1.367   160 N    1.261   158 C    1.222
   160   7 N    3.004 --   156 C    1.314   159 C    1.261   133 Zn   0.564
   161   6 C    3.825 --   171 C    1.368   159 C    1.367   162 C    1.048
   162   6 C    3.903 --   163 C    1.416   170 C    1.416   161 C    1.048
   163   6 C    3.846 --   162 C    1.416   164 C    1.389   187 H    0.993
   164   6 C    3.980 --   163 C    1.389   166 C    1.367   165 O    1.131
   165   8 O    2.172 --   164 C    1.131   188 H    0.964
   166   6 C    3.870 --   168 C    1.378   164 C    1.367   167 O    1.046
   167   8 O    2.027 --   166 C    1.046   189 H    0.961
   168   6 C    3.959 --   170 C    1.391   166 C    1.378   169 O    1.112
   169   8 O    2.140 --   168 C    1.112   190 H    0.968
   170   6 C    3.848 --   162 C    1.416   168 C    1.391   191 H    0.993
   171   6 C    3.901 --   161 C    1.368   175 N    1.261   172 C    1.222
   172   6 C    3.826 --   173 C    1.619   171 C    1.222   192 H    1.001
   173   6 C    3.834 --   172 C    1.619   174 C    1.229   193 H    1.000
   174   6 C    3.921 --   175 N    1.315   134 C    1.284   173 C    1.229
   175   7 N    3.003 --   174 C    1.315   171 C    1.261   133 Zn   0.563
   176   1 H    1.031 --   136 C    1.000
   177   1 H    1.029 --   137 C    1.001
   178   1 H    1.026 --   142 C    0.994
   179   1 H    1.005 --   144 O    0.965
   180   1 H    0.999 --   146 O    0.963
   181   1 H    0.999 --   148 O    0.963
   182   1 H    1.027 --   149 C    0.993
   183   1 H    1.028 --   151 C    1.001
   184   1 H    1.031 --   152 C    1.000
   185   1 H    1.032 --   157 C    1.000
   186   1 H    1.030 --   158 C    1.001
   187   1 H    1.037 --   163 C    0.993
   188   1 H    1.001 --   165 O    0.964
   189   1 H    0.985 --   167 O    0.961
   190   1 H    0.998 --   169 O    0.968
   191   1 H    1.039 --   170 C    0.993
   192   1 H    1.032 --   172 C    1.001
   193   1 H    1.032 --   173 C    1.000
 ---------------------------------------------------------------------------

Topologies differ in total number of bonds
Writing topology from bond orders to xtbtopo.mol

 dipole moment from electron density (au)
     X       Y       Z   
 -88.9124  -1.9533  -0.4491  total (Debye):  226.050


           -------------------------------------------------
          | TOTAL ENERGY             -415.878014628578 Eh   |
          | GRADIENT NORM               0.090837625718 Eh/α |
          | HOMO-LUMO GAP               0.265696865362 eV   |
           -------------------------------------------------
########################################################################
[WARNING] Runtime exception occurred
-1- restart_readRestart: Dimension missmatch in restart file.
########################################################################

------------------------------------------------------------------------
 * finished run on 2022/07/30 at 12:14:35.430     
------------------------------------------------------------------------
 total:
 * wall-time:     0 d,  0 h,  0 min, 23.089 sec
 *  cpu-time:     0 d,  0 h,  0 min, 22.910 sec
 * ratio c/w:     0.992 speedup
 SCF:
 * wall-time:     0 d,  0 h,  0 min, 22.235 sec
 *  cpu-time:     0 d,  0 h,  0 min, 22.067 sec
 * ratio c/w:     0.992 speedup

