193
 energy: -374.290492221883 gnorm: 1.361468570033 xtb: 6.5.1 (b24c23e)
Zn          32.54472100000000       -0.05000700000000       -0.02159700000000
C           29.21158100000000        0.10100500000000        0.08481200000000
C           29.87839300000000        1.25795100000000        0.06341300000000
C           29.23002200000000        2.56356900000000        0.06220800000000
C           30.17366300000000        3.48564000000000        0.05424800000000
C           31.47880900000000        2.81059000000000        0.05217900000000
N           31.29882700000000        1.39436400000000        0.05721500000000
C           32.67275900000000        3.43548100000000        0.08209700000000
C           32.71028400000000        4.91418500000000        0.08961100000000
C           32.50094400000000        5.62945900000000       -1.09736300000000
C           32.52259800000000        7.02779900000000       -1.09442500000000
O           32.30832200000000        7.70897600000000       -2.29281300000000
C           32.75566300000000        7.72345700000000        0.10572600000000
O           32.77129100000000        9.11899000000000        0.10166100000000
C           32.96943800000000        7.00744400000000        1.29781900000000
O           33.20228300000000        7.69014200000000        2.49045900000000
C           32.94696100000000        5.60621400000000        1.28442500000000
C           33.97096700000000        2.71137600000000        0.12045200000000
C           35.27024000000000        3.38090200000000        0.25187600000000
C           36.20456600000000        2.45373300000000        0.23722200000000
N           34.10559000000000        1.42360200000000        0.01986700000000
C           35.51146099999999        1.17983100000000        0.08569400000000
C           36.10667000000000       -0.02087800000000       -0.02270300000000
C           35.35371100000000       -1.28640900000000       -0.20285400000000
C           35.91899999999999       -2.44835000000000       -0.50798100000000
C           34.87150400000000       -3.44741000000000       -0.53817900000000
C           33.72981500000000       -2.83324300000000       -0.25212300000000
N           33.94356600000000       -1.43652500000000       -0.02583400000000
C           32.42070400000000       -3.52695700000000       -0.13365400000000
C           32.40188800000000       -5.00573800000000       -0.15226000000000
C           32.54851800000000       -5.72374100000000        1.04114900000000
C           32.52723400000000       -7.12220200000000        1.03229100000000
O           32.66896300000000       -7.80748700000000        2.23902300000000
C           32.36390700000000       -7.81416900000000       -0.18169400000000
O           32.34707700000000       -9.20960300000000       -0.18271000000000
C           32.22200300000000       -7.09438800000000       -1.38223800000000
O           32.06456300000000       -7.77379100000000       -2.58944700000000
C           32.24017600000000       -5.69307600000000       -1.36222400000000
C           31.25803000000000       -2.86178200000000       -0.01155900000000
C           29.93410000000000       -3.46995300000000        0.10715600000000
C           29.07509000000000       -2.47130900000000        0.15889100000000
C           29.84120000000000       -1.22867800000000        0.07889800000000
N           31.11593300000000       -1.44343100000000       -0.02154700000000
H           28.12869800000000        0.13379000000000        0.10943300000000
H           28.16539500000000        2.75932900000000        0.07132200000000
H           29.98998200000000        4.55228900000000        0.06080500000000
H           32.31721300000000        5.09913700000000       -2.02405400000000
H           32.31329600000000        8.72041600000000       -2.34578800000000
H           32.92166500000000        9.65924500000000        0.94466700000000
H           33.35859700000000        7.19781700000000        3.36238100000000
H           33.10968800000000        5.05561400000000        2.20308500000000
H           35.45380699999999        4.44346200000000        0.34178900000000
H           37.26835400000000        2.63690900000000        0.31197700000000
H           36.96865200000000       -2.63325800000000       -0.68995500000000
H           35.00639799999999       -4.50217600000000       -0.74112300000000
H           32.67569300000000       -5.19598500000000        1.97859700000000
H           32.65064700000000       -8.81855300000000        2.28939000000000
H           32.23318400000000       -9.74772000000000       -1.03313700000000
H           31.96472500000000       -7.27949200000000       -3.46886500000000
H           32.12983600000000       -5.13959300000000       -2.28726800000000
H           29.68220900000000       -4.52211200000000        0.14164900000000
H           28.00009100000000       -2.56911300000000        0.24233600000000
Zn          60.89923399999999        0.00793900000000       -0.01830300000000
C           64.23237300000000       -0.15416100000000        0.07030500000000
C           63.56556100000000       -1.30122600000000       -0.08209200000000
C           64.21393200000000       -2.59829400000000       -0.23127400000000
C           63.27029200000000       -3.51352000000000       -0.34369600000000
C           61.96514500000000       -2.84258600000000       -0.26923700000000
N           62.14512700000000       -1.43605700000000       -0.10371200000000
C           60.77119500000000       -3.46684100000000       -0.31034200000000
C           60.73367100000000       -4.93686700000000       -0.47048000000000
C           60.94301000000000       -5.51299300000000       -1.73087800000000
C           60.92135600000000       -6.90265400000000       -1.88645500000000
O           61.13563300000000       -7.44361100000000       -3.15432800000000
C           60.68829200000000       -7.72986200000000       -0.77288700000000
O           60.67266300000000       -9.11594100000000       -0.93510400000000
C           60.47451700000000       -7.15358100000000        0.49268000000000
O           60.24167099999999       -7.96706000000000        1.60025400000000
C           60.49699300000000       -5.75986300000000        0.63819600000000
C           59.47298799999999       -2.75175000000000       -0.19015900000000
C           58.17371400000000       -3.43185700000000       -0.13547000000000
C           57.23938800000000       -2.50900200000000       -0.04493900000000
N           59.33836400000000       -1.46087300000000       -0.14413300000000
C           57.93249299999999       -1.22613400000000       -0.05110000000000
C           57.33728400000000       -0.02087800000000       -0.02270300000000
C           58.09024300000000        1.25691700000000       -0.05825100000000
C           57.52495400000000        2.44595600000000       -0.22971100000000
C           58.57245000000000        3.44200000000000       -0.14647500000000
C           59.71414000000000        2.79936800000000        0.06812500000000
N           59.50038899999999        1.38600200000000        0.13464400000000
C           61.02325000000000        3.47518300000000        0.26446000000000
C           61.04206599999999        4.94654300000000        0.41358700000000
C           60.89543599999999        5.52465100000000        1.68068700000000
C           60.91672000000000        6.91510500000000        1.83039600000000
O           60.77499200000000        7.45919500000000        3.10702500000000
C           61.08004699999999        7.74021200000000        0.70266600000000
O           61.09687800000000        9.12676800000000        0.85982200000000
C           61.22195100000000        7.16114600000000       -0.57172600000000
O           61.37939100000000        7.97300300000000       -1.69414800000000
C           61.20377899999999        5.76659500000000       -0.71067300000000
C           62.18592399999999        2.80045600000000        0.31037300000000
C           63.50985400000000        3.39125100000000        0.49725700000000
C           64.36886500000000        2.39318000000000        0.43546600000000
C           63.60275399999999        1.16762400000000        0.21514200000000
N           62.32802100000000        1.39237700000000        0.13968600000000
H           65.31525700000000       -0.18952500000000        0.09105000000000
H           65.27855900000000       -2.79382500000000       -0.24440800000000
H           63.45397199999999       -4.57403800000000       -0.45808100000000
H           61.12674200000000       -4.88105300000000       -2.59148700000000
H           61.13065900000000       -8.44252700000000       -3.32160400000000
H           60.52228999999999       -9.74826500000000       -0.15876600000000
H           60.08535800000000       -7.57673600000000        2.52235900000000
H           60.33426699999999       -5.31693800000000        1.61334300000000
H           57.99014800000000       -4.49776100000000       -0.16657300000000
H           56.17560000000000       -2.69947100000000        0.00857200000000
H           56.47530199999999        2.65029800000000       -0.38955300000000
H           58.43755700000000        4.51297100000000       -0.22855700000000
H           60.76826100000000        4.89404100000000        2.55227600000000
H           60.79330800000000        8.45803700000000        3.27166700000000
H           61.21077100000000        9.75781000000000        0.07586900000000
H           61.47923000000000        7.58156700000000       -2.62392500000000
H           61.31411800000000        5.32152900000000       -1.69249100000000
H           63.76174600000000        4.43272000000000        0.65078500000000
H           65.44386299999999        2.48089500000000        0.52945900000000
C           39.38611500000000       -0.00844100000000       -0.02026100000000
C           38.13384400000000       -0.02762200000000       -0.02461000000000
C           40.69978300000000       -0.00920700000000       -0.01832900000000
C           42.20291700000000       -0.02762200000000       -0.02461000000000
C           52.58331400000000       -0.00844100000000       -0.02026100000000
C           51.33104400000000       -0.02762200000000       -0.02461000000000
C           53.89698200000000       -0.00920700000000       -0.01832900000000
C           55.40011599999999       -0.02762200000000       -0.02461000000000
Zn          46.68222100000000       -0.03881100000000       -0.04735000000000
C           43.27259000000000        0.04606200000000        0.04937700000000
C           43.92905700000000        1.21469900000000        0.16894800000000
C           43.28746700000000        2.51375600000000        0.38137900000000
C           44.22552700000000        3.44016800000000        0.40362900000000
C           45.52433900000000        2.78867600000000        0.20633000000000
N           45.34640799999999        1.37706700000000        0.06491100000000
C           46.70929300000000        3.43289900000000        0.15429400000000
C           46.73901300000000        4.90856200000000        0.25756600000000
C           47.20151000000000        5.52151900000000        1.43099600000000
C           47.24414399999999        6.91867300000000        1.52978600000000
O           47.69708300000000        7.52925300000000        2.69971100000000
C           46.82914000000000        7.70950900000000        0.44894300000000
O           46.88165999999999        9.09890200000000        0.56470200000000
C           46.36675499999999        7.09851700000000       -0.73215200000000
O           45.95529300000000        7.88155200000000       -1.80958400000000
C           46.32264400000000        5.70041600000000       -0.82246500000000
C           48.01035300000000        2.73446000000000        0.00105200000000
C           49.28373200000000        3.42617200000000       -0.23401200000000
C           50.23750799999999        2.51735300000000       -0.26349200000000
N           48.17647299999999        1.45259900000000        0.10694100000000
C           49.57886300000000        1.23505700000000       -0.05159200000000
C           50.19391000000000        0.04606200000000        0.04937700000000
C           49.44496100000000       -1.21277800000000        0.24776600000000
C           49.98314100000000       -2.34434900000000        0.68413800000000
C           48.95068000000000       -3.36130500000000        0.62501700000000
C           47.85243600000000       -2.78152100000000        0.15431900000000
N           48.07411900000000       -1.39627500000000       -0.10529300000000
C           46.59373900000000       -3.49994400000000       -0.15789900000000
C           46.65566600000000       -4.96481800000000       -0.38083600000000
C           47.39044100000000       -5.47888000000000       -1.45618300000000
C           47.46181500000000       -6.85754800000000       -1.67158000000000
O           48.19305500000000       -7.32770100000000       -2.76306000000000
C           46.80310599999999       -7.74626700000000       -0.79973200000000
O           46.89736600000000       -9.11731600000000       -1.05306500000000
C           46.07092500000000       -7.22980100000000        0.29792800000000
O           45.39918600000000       -8.04709400000000        1.21053300000000
C           46.00683800000000       -5.84587200000000        0.49537500000000
C           45.41742599999999       -2.85147500000000       -0.26150300000000
C           44.13600399999999       -3.45337900000000       -0.61520400000000
C           43.24674500000000       -2.48306100000000       -0.55721400000000
C           43.94881600000000       -1.25381200000000       -0.17225100000000
N           45.21792800000000       -1.46180100000000        0.00019300000000
H           42.23106600000000        2.71242200000000        0.50629200000000
H           44.04066600000000        4.49611100000000        0.55155700000000
H           47.52675200000000        4.91387700000000        2.26735300000000
H           47.98784000000000        6.98479900000000        3.50791400000000
H           46.58905000000000        9.71389200000000       -0.18848900000000
H           45.59545300000000        7.46733200000000       -2.66190900000000
H           45.96892300000000        5.23045200000000       -1.73384400000000
H           49.43522900000000        4.49039300000000       -0.35963000000000
H           51.29090399999999        2.71535900000000       -0.41311000000000
H           51.00819799999999       -2.49574100000000        0.99676300000000
H           49.06797100000000       -4.40615400000000        0.88194000000000
H           47.90374800000000       -4.80631400000000       -2.13408200000000
H           48.27601200000000       -8.31533900000000       -2.97376000000000
H           46.44730700000000       -9.83081600000000       -0.49596300000000
H           45.39026900000000       -9.05557000000000        1.16784500000000
H           45.45056400000000       -5.45507000000000        1.33956800000000
H           43.92879400000000       -4.48118400000000       -0.88195300000000
H           42.19184400000000       -2.59726800000000       -0.77067700000000
193
 energy: -374.718130928546 gnorm: 0.539974247867 xtb: 6.5.1 (b24c23e)
Zn          32.54881822635231       -0.04839362170832       -0.02101503143135
C           29.21208708989373        0.08634949474678        0.08498187465316
C           29.88399812145928        1.25990535238484        0.06318435834547
C           29.22894271535873        2.55837152934821        0.06234884072749
C           30.18140356888214        3.48801779186255        0.05426685683302
C           31.47698757541451        2.80545789935071        0.05167315380755
N           31.28184695858582        1.41120717595624        0.05685313409673
C           32.68635089207991        3.43224611242498        0.08198981196446
C           32.71284119741829        4.91873013156283        0.08865914703055
C           32.50077595557048        5.63554672094437       -1.09593450408344
C           32.52273490352552        7.03800872530021       -1.09345598013652
O           32.30883565369983        7.70840818913108       -2.28962837873088
C           32.75729270890287        7.73023131596432        0.11443531556027
O           32.77095304067272        9.12079961807006        0.10021355342726
C           32.97063630577825        7.00529730196594        1.30391651836832
O           33.20206191113571        7.69196215196834        2.49005455299054
C           32.94742446221101        5.60794194761152        1.28286990825184
C           33.96599303335078        2.72467844938632        0.12067126558829
C           35.26046766941107        3.38978528979505        0.25171903221886
C           36.20578057299841        2.44892145121721        0.23663831361422
N           34.11995707487485        1.42081925996040        0.02190803112573
C           35.52329069507307        1.17757940620412        0.08566222815528
C           36.13158262096993       -0.03224354591788       -0.02546843781853
C           35.35572007317003       -1.27262867076501       -0.19696902147037
C           35.92181334614028       -2.46801306808666       -0.51087425210743
C           34.89059286478732       -3.44918187255086       -0.54022129749348
C           33.71985174697974       -2.82220403575406       -0.24685764431611
N           33.95410426178843       -1.44085074257960       -0.02923762639260
C           32.43300209918936       -3.51920340274260       -0.13354055037147
C           32.40656115651055       -5.00861005852535       -0.15199101753098
C           32.54851078564151       -5.72951794925208        1.03982996037307
C           32.52671811490495       -7.13231308796635        1.03128041725515
O           32.66836520593412       -7.80674084308507        2.23569067020861
C           32.36287828137932       -7.82085613517103       -0.19051628719612
O           32.34712317771584       -9.21134770614609       -0.18126703041404
C           32.22129931027713       -7.09196487738423       -1.38829859215935
O           32.06444978051710       -7.77535788520982       -2.58883845001748
C           32.24059420082707       -5.69409789628478       -1.36061902869399
C           31.25638284812084       -2.86066533892485       -0.01118207532674
C           29.94035885407815       -3.47048553367263        0.10640110302135
C           29.06723124852818       -2.46224030278473        0.15917402764990
C           29.82462514357096       -1.22127067429224        0.07917844818850
N           31.11368354229959       -1.45415065470088       -0.02029327935088
H           28.12898053180471        0.13019993350509        0.10962815987883
H           28.16536841081099        2.75412234061376        0.07128853048745
H           29.99634504179894        4.55292413574313        0.06056341913924
H           32.31763047766728        5.10141827935840       -2.02295617580455
H           32.31554126494274        8.70389220422732       -2.33270704342677
H           32.92022085292022        9.63997233365127        0.93670257182592
H           33.35482184377631        7.19821667798451        3.34196539509186
H           33.10956495561273        5.05617115787514        2.20237971147823
H           35.44858155717213        4.44676380779505        0.34181035224301
H           37.26823267077665        2.63100400043397        0.31159703126754
H           36.96990383216239       -2.63711943268353       -0.69087696102293
H           35.00986787908893       -4.50231411979242       -0.74204044750979
H           32.67564133176866       -5.19831593447278        1.97758511744751
H           32.64947760398012       -8.80201143754480        2.27624019461687
H           32.23447793422229       -9.72839270477412       -1.02502264921997
H           31.96728326202608       -7.27993330391386       -3.44814810198758
H           32.12999421462796       -5.14006335920987       -2.28646988948085
H           29.68829605102420       -4.52176839742110        0.14126288708502
H           27.99760647627503       -2.56470458404474        0.24254235605424
Zn          60.89513236401493        0.00629838614418       -0.01791485050494
C           64.23185181729478       -0.13965706955745        0.07212992696605
C           63.55999418699329       -1.30315574237715       -0.08254355285106
C           64.21502296840724       -2.59314624574365       -0.23054427508930
C           63.26254425651348       -3.51587454523195       -0.34394519322527
C           61.96701089731646       -2.83734926791634       -0.26915382874069
N           62.16207903934281       -1.45278970072187       -0.10597853000617
C           60.75743217322834       -3.46355785342778       -0.31007334114684
C           60.73109763744318       -4.94127670119844       -0.47194283656109
C           60.94318711278288       -5.51919448442065       -1.73015382141291
C           60.92121634874309       -6.91292161931193       -1.88667844352970
O           61.13513051620822       -7.44338967167001       -3.15104333182780
C           60.68665720860552       -7.73759565247464       -0.76500423656001
O           60.67300471656481       -9.11754824624587       -0.93673309674953
C           60.47331800305204       -7.15214869102154        0.49898245681989
O           60.24189320789178       -7.96880987739269        1.59963965544835
C           60.49652771386034       -5.76139720391296        0.63646449307368
C           59.47800296668718       -2.76496167068105       -0.19146743107198
C           58.18356504723933       -3.44073123964490       -0.13664860806769
C           57.23819971791973       -2.50433634573786       -0.04495760325510
N           59.32336314924519       -1.45784534926172       -0.14170839573906
C           57.92008395961370       -1.22423592454254       -0.05088612730637
C           57.30590102102796       -0.00935870433993       -0.02414246850524
C           58.08733141344881        1.24261264006533       -0.05394300364001
C           57.52205176789236        2.46591716919536       -0.23038063127738
C           58.55340255157097        3.44396412457871       -0.14828905373010
C           59.72403481036408        2.78769119733469        0.07211129828105
N           59.48934858817850        1.39036062343871        0.13169619578979
C           61.01093206638843        3.46746340735984        0.26369796003054
C           61.03738660353325        4.94938619856852        0.41418200541870
C           60.89544064140247        5.53053750103550        1.68004809171380
C           60.91722028486041        6.92530627602126        1.83057449369477
O           60.77563646265290        7.45878587830534        3.10357002609693
C           61.08106420156980        7.74792816164007        0.69465848794834
O           61.09688377386540        9.12822255259785        0.86143337273526
C           61.22264520567685        7.15945894281306       -0.57804868756183
O           61.37953425375331        7.97442042549445       -1.69331794355596
C           61.20336649540225        5.76742293917923       -0.70898179827745
C           62.18756237839784        2.79929946602053        0.31062046397011
C           63.50359592246649        3.39186299621356        0.49656634723026
C           64.37671658563471        2.38415314449188        0.43472381545655
C           63.61929963792518        1.16027741094390        0.21458628361290
N           62.33027397800663        1.40285979268272        0.14213948178805
H           65.31496286190394       -0.18598637252080        0.09164781325147
H           65.27858213732789       -2.78864792785680       -0.24385163331529
H           63.44759806415320       -4.57463138343358       -0.45839303921654
H           61.12632182854016       -4.88344332758531       -2.59065969537671
H           61.12840484236523       -8.42758149572673       -3.30674958773895
H           60.52373730839778       -9.72821252855934       -0.16449919584230
H           60.08913431919850       -7.57481916923347        2.50203252325584
H           60.33438859064556       -5.31740946128986        1.61258501137351
H           57.99538665674508       -4.50104468331204       -0.16692895568972
H           56.17567224146096       -2.69349549394226        0.00886138613268
H           56.47397891035861        2.65426143729040       -0.39003767816112
H           58.43410453351427        4.51317403352475       -0.22945022547760
H           60.76831052838248        4.89646866086495        2.55154277776448
H           60.79444166100595        8.44309193035077        3.25673187299875
H           61.20943814608425        9.73770664962392        0.08175703862088
H           61.47665149642643        7.57968331411417       -2.60330156199780
H           61.31395955441658        5.32190030977017       -1.69165303831403
H           63.75565367072566        4.43241172016503        0.65036060816467
H           65.44633649955190        2.47648844522191        0.52916357512654
C           39.36905885081560       -0.00997768525509       -0.02078238220474
C           38.10367236715691       -0.02938048543062       -0.02484345870336
C           40.70975215183161       -0.00877144490490       -0.01790285976409
C           42.03756910938856       -0.03742096156294       -0.02858001571346
C           52.64648278997850       -0.01143262200146       -0.02141339690147
C           51.41399755381718       -0.03921402961361       -0.02690865340550
C           53.98042774398029       -0.00922383526397       -0.01912975727089
C           55.37317187655096       -0.02417477453857       -0.02430265381845
Zn          46.68418991001493       -0.03612589386696       -0.04542668252378
C           43.32270669724921        0.03700643044760        0.04736662563856
C           43.96018572980779        1.23575071713465        0.17312522566219
C           43.28852694887127        2.50458111289458        0.38063261218805
C           44.23618736183290        3.44402379184193        0.40307040783971
C           45.52187727610037        2.78700611870003        0.20627519283915
N           45.33517748166296        1.39708912648101        0.06868490129754
C           46.72315918618683        3.43219913131281        0.15254164529667
C           46.74203386975127        4.91233443421787        0.25699752026111
C           47.20167008349527        5.52470069743186        1.42875332204093
C           47.24554235594078        6.91979967472260        1.53418394788600
O           47.69626608404742        7.52803474220631        2.69822876792112
C           46.82738732624433        7.71804783269772        0.44460249298693
O           46.88123930635946        9.09939452641397        0.56377816487128
C           46.36467616424172        7.09691397827028       -0.73656517177246
O           45.95560339539913        7.88293278135082       -1.80814586274444
C           46.32269630724328        5.70189182045308       -0.82042587469490
C           48.00291528767805        2.75531662129402        0.00215753144973
C           49.27125646044814        3.43739065209533       -0.23225492097828
C           50.23430043362766        2.51067123676112       -0.26242427823979
N           48.18100475739077        1.45560639836938        0.10353458583707
C           49.55334852595388        1.25278011935027       -0.05290012185518
C           50.13649882734955        0.03719078407338        0.05202543278553
C           49.41883830541047       -1.21305052077085        0.24366861038721
C           49.98193153639248       -2.36339254012618        0.68720921874363
C           48.96815286282105       -3.36491852943912        0.62775477474452
C           47.84273321672925       -2.77630785204165        0.14560718617298
N           48.07472938118895       -1.40598343911254       -0.10054854713473
C           46.60485645463456       -3.49626235682326       -0.15731048708827
C           46.66013374785912       -4.96809263076341       -0.37893713040839
C           47.39134965115917       -5.48449163836899       -1.45588287861703
C           47.46217892768813       -6.86729544062747       -1.67357159482693
O           48.19116545153754       -7.32768157469351       -2.76058659079968
C           46.79978026584299       -7.75303017951081       -0.79594044845934
O           46.89807602980816       -9.11960521233631       -1.05419593833190
C           46.07093171072023       -7.23658424892428        0.29747104920379
O           45.40030575472186       -8.04696407673933        1.20873743525341
C           46.00657938554063       -5.84987942580549        0.49363880470661
C           45.41647522561552       -2.85441707517835       -0.26237852543074
C           44.14314364438248       -3.45486237393583       -0.61393880777945
C           43.24041264060408       -2.47286304650940       -0.55589000545841
C           43.95338007442675       -1.26098834596335       -0.17432452415084
N           45.22438581917736       -1.47684415341647       -0.00338120077371
H           42.23136382048676        2.70390221432875        0.50514379001507
H           44.04691976601796        4.49704072481147        0.55098925627883
H           47.52632072804446        4.91501853560143        2.26611533839611
H           47.98034952819384        6.98634962104588        3.48740522415804
H           46.59136653159349        9.69355186994588       -0.18247979286551
H           45.60347158740112        7.46596124695726       -2.64233623463687
H           45.96946578030327        5.23104872175981       -1.73261605169262
H           49.43034619120603        4.49422389039039       -0.35929333758375
H           51.28909025647226        2.70780054976914       -0.41241931890170
H           51.00738079838781       -2.49800053775834        0.99790790191401
H           49.07157555168116       -4.40670734774987        0.88383217120044
H           47.90337189684821       -4.80864103262326       -2.13359486809936
H           48.26765118093431       -8.30111043737658       -2.96032125017661
H           46.45099391619411       -9.81119114711337       -0.49924200530161