298
 energy: -527.060736205841 gnorm: 0.000643512336 xtb: 6.5.1 (b24c23e)
Co          46.84053061262542        0.00885617524569        0.04021807507421
C           43.46277894083084       -0.05045579756287        0.12640452317168
C           44.13212598581514        0.60235050760299        1.13851052993580
C           43.47340846866670        1.25959367781976        2.22644517594534
C           44.42989155401212        1.92759991446125        2.91192554814719
C           45.67290600825400        1.67435417764258        2.24476613301070
N           45.48545795959630        0.82518981695990        1.18283198628372
C           46.85976563222567        2.32120650798552        2.55193706732370
C           48.03959787211055        2.05067238111411        1.87935742766575
C           49.28942495471373        2.67985248137635        2.18295640149348
C           50.23815783378738        2.03208230071871        1.46666583717315
N           48.21753359178796        1.05067043248442        0.94984987899804
C           49.56614421642754        1.00980696247971        0.72767568877433
C           50.23704776156641        0.04664453115525       -0.02541904653276
C           49.55890432718276       -0.92429472985851       -0.76113420303499
C           50.22209215053014       -1.93702598914118       -1.52140375333659
C           49.26114791019344       -2.59363616628073       -2.21307426872484
C           48.01440007558246       -1.97506438699315       -1.87749986270108
C           46.81271529820287       -2.28148561475798       -2.49331537469093
C           46.80294548839900       -3.28068920775251       -3.59629519358167
C           47.41151756758712       -2.98655519573929       -4.82392270298483
O           47.97736721226388       -1.75540300732986       -4.92628477336254
C           48.63696324706936       -1.36548941582611       -6.11345467066334
C           47.40353115270266       -3.92301919168488       -5.85727768426687
C           46.79287939299679       -5.15175922105755       -5.65693540345265
C           46.18695547587022       -5.46626419955024       -4.44997055882359
C           46.18915804021815       -4.52781505715897       -3.41838204010684
O           45.62922193937591       -4.74591952143221       -2.19945968149834
C           44.97873290049775       -5.96815017015065       -1.91755891160879
C           45.61976837629864       -1.68951918070531       -2.10982263475492
C           44.35761444186474       -1.95880829219445       -2.73305863086717
C           43.41332496439077       -1.33562821232871       -1.99065982711098
C           44.10107100971188       -0.67850142946752       -0.92053659502654
N           45.45697632387381       -0.85846342464936       -1.03007467095834
N           48.20482270311604       -0.98291910590080       -0.94278910502510
C           46.86795299147872        3.33818485972609        3.63942039694516
C           46.73708506202264        2.94625452119421        4.97788110158011
O           46.60964075560248        1.61033975804490        5.19511346191197
C           46.48140474090167        1.10771349697359        6.50943335808165
C           46.75054969994181        3.89888197138985        5.99625246216536
C           46.89002098401999        5.23972017256162        5.67115098906331
C           47.01836952573493        5.65138092680445        4.35323597825439
C           47.00969113464116        4.69831196013271        3.33515953202717
O           47.12503141664133        5.00218160012643        2.01539683508291
C           47.27339047835218        6.34457157980975        1.59965361178863
H           42.37942924773829       -0.06638258394553        0.15302813228002
H           42.41189836777280        1.21551382972666        2.41303146179161
H           44.31829210267300        2.55005973285006        3.78479192173130
H           49.41304760483540        3.50127971971451        2.86959773146590
H           51.30161521354633        2.20794949742590        1.43829713807738
H           51.28748078182318       -2.10328544761468       -1.51971392083577
H           49.37229753021519       -3.41713177724671       -2.89970624322423
H           47.94945674653447       -1.34569303781298       -6.96787356077148
H           49.01432983195071       -0.35707624553646       -5.93380332848788
H           49.47943321154069       -2.02972510537570       -6.34167501034546
H           47.86624963066688       -3.70362048458324       -6.81020908573458
H           46.78924186039209       -5.88096873000646       -6.45970187252241
H           45.72075970592725       -6.43384263510189       -4.32057630711417
H           44.60716670256483       -5.88535645868098       -0.89448644607765
H           44.13301249080727       -6.13910666876558       -2.59473755991816
H           45.67123944432306       -6.81632074704854       -1.98151216552159
H           44.22772549130836       -2.56141156183240       -3.61753293832841
H           42.34406862384479       -1.31627049426519       -2.13171103879709
H           46.39366833160606        0.02393888927299        6.41299735864325
H           45.58374899230083        1.49871524928769        7.00386831003771
H           47.36249729464995        1.34487313356175        7.11810011344273
H           46.65403236584504        3.60616660830753        7.03320947745741
H           46.89894569096517        5.98072929106695        6.46298628661325
H           47.12428464005514        6.70428392845049        4.12858013123787
H           48.18676445386304        6.79333382933979        2.00881562321023
H           47.34350724826713        6.31919272748512        0.51063761972333
H           46.40882463055253        6.95350903454057        1.89063696620557
Co          87.00639617605020       -0.15045934856749        0.00946645096400
C           90.36828608923193       -0.37851684885457        0.15432801259026
C           89.69158757197152       -1.21007134610216       -0.71218732214235
C           90.33545509705901       -2.16513221179904       -1.56258772871352
C           89.38896724663357       -2.62648582917266       -2.41333183453421
C           88.16529715218184       -1.96246424761937       -2.07338705662744
N           88.35242831573456       -1.12920079701343       -1.00066741992310
C           86.99941041267724       -2.04777058956458       -2.82188133002652
C           85.83083023141573       -1.41418210965584       -2.43485907417492
C           84.59094250418931       -1.52405974984714       -3.14296356289078
C           83.63502017870759       -0.99436752354008       -2.34280896597506
N           85.64075731729781       -0.76611478121548       -1.23417210374991
C           84.29486616820537       -0.55368799089265       -1.15426236848876
C           83.61650847066511       -0.08035626078786       -0.02719533099405
C           84.29476464137288        0.41814569464244        1.08837006872922
C           83.63208796322569        0.94622723619710        2.23962705960588
C           84.58703041690589        1.53260654166079        3.00059431635170
C           85.83039825032553        1.35372886759724        2.31418755548934
C           87.02813545964671        1.92049453963992        2.71787756079587
C           87.02623572561372        2.84089226300342        3.88656932630080
C           86.38834250995103        4.08630300917378        3.80073249299539
O           85.81485550559586        4.37813892077212        2.60437266977124
C           85.12163734569536        5.59555699093681        2.41859062638137
C           86.37791448832303        4.95031280241451        4.89521506951054
C           86.99879123975035        4.56334451742019        6.07313756889009
C           87.63193154024636        3.33464464986934        6.18307784161346
C           87.64761666522875        2.47209471277684        5.08735883713978
O           88.23066321049609        1.24457975288295        5.10324823230787
C           88.89008559845503        0.77927373422385        6.26322789417499
C           88.22603173200176        1.63406931425116        2.07954488620725
C           89.49510821593367        2.16891629379165        2.47656142723819
C           90.43912284323487        1.49851819766459        1.77531201724994
C           89.74396495533099        0.57168307838167        0.93404138812536
N           88.38704496243349        0.69966679653076        1.08806725713309
N           85.64333563667115        0.61963772418244        1.16547948045296
C           86.99671015567270       -2.86755638004384       -4.06439207109560
C           87.05344039075146       -4.26536705262422       -3.98926062724678
O           87.10558085344684       -4.79054071154489       -2.73666992766344
C           87.14923239278997       -6.19051149803730       -2.54843240167994
C           87.04493174398317       -5.03471798815428       -5.15227993040920
C           86.98400505439619       -4.40277465634071       -6.38505811181107
C           86.92732192268438       -3.02076448975169       -6.48370428461616
C           86.93006068111413       -2.25136679139834       -5.32057887958866
O           86.87847084260090       -0.89315067906182       -5.31313499345603
C           86.82634494554149       -0.17263531534449       -6.52772448518065
H           91.44781447831524       -0.45955463782639        0.20743591878630
H           91.38280862549128       -2.41838186090703       -1.51331196835482
H           89.49691678134201       -3.34385544865398       -3.21051855588926
H           84.47748528021751       -1.97036077072079       -4.11740246252747
H           82.57472243472299       -0.91099682223477       -2.52054607903411
H           82.57043821046132        0.88323323010893        2.41738262029699
H           84.47329072461906        2.04776037726985        3.94066447856176
H           85.78486100685154        6.45979954431716        2.54555359527446
H           84.74788894178404        5.57826662371252        1.39315087312089
H           84.27433906552419        5.68422477112414        3.10933532509897
H           85.89245036051365        5.91529133765531        4.83722252268727
H           86.98820181120772        5.23416188070970        6.92520169339596
H           88.10454122671716        3.05719689870866        7.11576159160842
H           89.27574904057307       -0.21159914784037        6.01629596488609
H           89.72668526925146        1.43264135055881        6.53915588492529
H           88.20024434428572        0.69588803327063        7.11180645391230
H           89.62982442601064        2.94319649217649        3.21445029330569
H           91.51200511745098        1.60420229795291        1.81143185687402
H           87.18633044008342       -6.35077961062848       -1.46935105890364
H           88.04236237366133       -6.63047210794811       -3.00853058167019
H           86.25475607804570       -6.67827710930762       -2.95447094391777
H           87.08487199226934       -6.11471129370699       -5.10498650417105
H           86.97953328481731       -5.00107687728692       -7.28956169943740
H           86.88015459781225       -2.55479153622660       -7.45882884818296
H           85.92438905041791       -0.41734187066596       -7.10193000560593
H           86.80079941109499        0.88361582165170       -6.25354746613742
H           87.71204008718392       -0.36290533280648       -7.14599079145405
C           52.86511025296697        0.06373225791928       -0.06102733015590
C           51.64432531221333        0.05611736991808       -0.04487383534788
C           54.21685806059116        0.07085594773773       -0.07025487093782
C           55.43794493693628        0.07093168813237       -0.07971433883042
C           66.26956071035299        0.12277385479107       -0.05178476524758
C           65.04648115585806        0.12076903020730       -0.06383211905014
C           67.61668641519289        0.11517383677346       -0.04215010296519
C           68.83978478298283        0.10061157306587       -0.03031802307195
C           79.64476745630375       -0.06242400975733       -0.00712650127584
C           78.42162404208123       -0.04921320341500       -0.00174778341042
C           80.99195833351195       -0.07313818859814       -0.01683188179078
C           82.21497171448040       -0.07797340846927       -0.02628915299496
Co          60.24485594077427        0.07598391888800       -0.07502444682401
C           56.84427056420549        0.06782138719651       -0.08008255103052
C           57.51901360443802       -0.17274234708279        1.11786135832636
C           56.85519265600312       -0.45921045463016        2.35051162521955
C           57.81092473283631       -0.47356900309731        3.31040239772020
C           59.05221076758222       -0.18466498006221        2.65984022466526
N           58.86844174775688       -0.05822232549217        1.30311118247505
C           60.23977293690415        0.05634375571518        3.33350270793682
C           61.42644536554283        0.31219105475972        2.66714341610314
C           62.66214145724700        0.61389820331373        3.32274802812312
C           63.61896149627652        0.62858548693809        2.36382245040535
N           61.61617788029476        0.19971439602865        1.30870849943279
C           62.96180281975820        0.34044635756060        1.12795931013213
C           63.64536442822168        0.10929534901884       -0.06918748595009
C           62.97239953006054       -0.14678455789139       -1.26726054134888
C           63.64096556640614       -0.43680132446193       -2.49659617773960
C           62.68570010964503       -0.47592755366296       -3.45622263045523
C           61.43981527866445       -0.19783565819281       -2.80906618529303
C           60.24968744146244        0.01737150504815       -3.48304780705411
C           60.24719773249971       -0.01559010401268       -4.97056120251410
C           59.59232370411947       -1.04992734785241       -5.65292388219040
O           58.99363897819134       -1.98832999936583       -4.87447395172665
C           58.30366429046083       -3.07344090226004       -5.46082879066852
C           59.59166884827010       -1.08433545803025       -7.04703592188314
C           60.24024244477872       -0.08201777577003       -7.75237612891593
C           60.89163915854635        0.95298225185946       -7.09873841282085
C           60.89765614503258        0.98549368224314       -5.70455053345523
O           61.49961855301456        1.96076649262245       -4.97519969543225
C           62.17760544589786        3.02154711602192       -5.61747080022501
C           59.05855580286245        0.26569848654039       -2.81734238428718
C           57.81965379199583        0.54533892422619       -3.47625513874777
C           56.86286005952363        0.56165840461528       -2.51720756226320
C           57.52288589699160        0.29601598248171       -1.27796742531631
N           58.87186052000371        0.16746172560022       -1.45924069760595
N           61.62334906998748       -0.05316120825505       -1.45228126645056
C           60.23917902250520        0.04480176681886        4.82132784332886
C           60.90224020415539       -0.97273127179342        5.52068970864495
O           61.51135526867184       -1.91744650401352        4.75800084358800
C           62.19888508380485       -2.99393294099682        5.36289717440655
C           60.90082146763910       -0.98516926940742        6.91516004670478
C           60.24135711761046        0.02179116059132        7.60361236771287
C           59.58090218665122        1.03993193621487        6.93284147212067
C           59.57742571899782        1.05072622643073        5.53831323234788
O           58.96830162965982        2.00880883503410        4.79243697194136
C           58.26607406797881        3.06477701477330        5.41642341508793
H           55.79348811801039       -0.61783260241671        2.45104151458447
H           57.69791055990824       -0.64787920385618        4.36807257245644
H           62.77063956373856        0.77933142390016        4.38238112796961
H           64.67751444009836        0.80576691279614        2.46738927419032
H           64.70497446624235       -0.58110117862530       -2.59521046671289
H           62.80164976038299       -0.66024095706303       -4.51190728915255
H           57.46690411273969       -2.72949846447340       -6.08082314018359
H           57.91510977627937       -3.66883932123217       -4.63260252772913
H           58.97341226577703       -3.69451238952903       -6.06794566731836
H           59.09315196506680       -1.88064944843510       -7.58330512223996
H           60.23808104944826       -0.10810616976335       -8.83656143592119
H           61.38748650694213        1.72260901262875       -7.67494926361851
H           62.56675509398676        3.65898330438633       -4.82142858746802
H           61.49932129021294        3.60774790480219       -6.24926654068571
H           63.01316486323552        2.65450286308525       -6.22576133637280
H           57.70912053161980        0.69637792672913       -4.53781466517280
H           55.80232825625902        0.72533905411868       -2.62243654970275
H           61.52587783349473       -3.60744522967928        5.97408216811436
H           62.59304505819151       -3.59994923521902        4.54507054699093
H           63.03158298954886       -2.64112669009202        5.98338902037211
H           61.40639626844442       -1.76784149842680        7.46472660311068
H           60.24238264122528        0.01301542892500        8.68807215655675
H           59.07648519308524        1.81358714025389        7.49607139174088
H           58.92884250624603        3.67208527573107        6.04477393141946
H           57.43378260199302        2.68955145889948        6.02412400792983
H           57.87018506740891        3.68428034868990        4.60963143333709
Co          73.63152001225272        0.06516080343600       -0.01502118574960
C           70.24017191770429        0.07935321810329       -0.02394906618815
C           70.91305710668003       -0.16058020026052        1.17843661801368
C           70.25127599867521       -0.42945846698717        2.41598206464596
C           71.20632149919962       -0.41091559424662        3.37735020682926
C           72.44480558343288       -0.11799780857729        2.72292453576137
N           72.26023752389395       -0.03773142828081        1.36144669038223
C           73.62453456025928        0.18792047849638        3.38439675298773
C           74.80657785099093        0.43504185070546        2.70088546220836
C           76.03851792092848        0.80756269902210        3.32540897463545
C           76.99653141477687        0.74544449228588        2.36796178197078
N           74.99850591751624        0.21108684834476        1.35792075178939
C           76.34327670750740        0.34264949659151        1.16317573876576
C           77.02131870199138       -0.03224805931874       -0.00164886164776
C           76.33747392570588       -0.38681595119024       -1.16943911934429
C           76.98784730099686       -0.80279436701450       -2.37176613172065
C           76.03476000094074       -0.83845546031635       -3.33480935422560
C           74.80890602598291       -0.43591406249536       -2.71651745504062
C           73.64083814045749       -0.15393464588126       -3.40881001672028
C           73.64873473323988       -0.22022525355970       -4.89406980356880
C           72.89430957494200       -1.19247423032624       -5.56559054047779
O           72.19277731098022       -2.04868784997450       -4.77862598679139
C           71.39385394886187       -3.06249867332391       -5.35455393037086
C           72.90383971423118       -1.25347375494705       -6.95873681760828
C           73.66203012212293       -0.33977565903711       -7.67488141243826
C           74.41344057275595        0.63265410999081       -7.03265275273649
C           74.40940286888998        0.69159709403520       -5.63947142019357
O           75.10216082202625        1.61388285312621       -4.92224841490566
C           75.91133492769573        2.57135593326239       -5.57512475981506
C           72.46637739514469        0.19204876522337       -2.75732525893895
C           71.24460018721896        0.53041826143463       -3.42022749319898
C           70.28504534143080        0.58938688833795       -2.46435445993426
C           70.92791650682618        0.29612914399841       -1.22275347470462
N           72.26819477760692        0.10974939336609       -1.39880610610795
N           74.99596495936385       -0.23062980000499       -1.36892447599556
C           73.62245869382421        0.25612058122655        4.86951781701498
C           74.36174874028059       -0.66733855684051        5.62245972598737
O           75.04535922255977       -1.60204930248806        4.91303705691735
C           75.84135218219411       -2.56502701774578        5.57421900835966
C           74.35465055572236       -0.60732586363859        7.01566962183157
C           73.61466842379255        0.37809590636640        7.65103868952527
C           72.87957853935831        1.30487405343747        6.92766061493785
C           72.88081294308473        1.24286048230035        5.53462972776841
O           72.20248700579552        2.11281574858443        4.74198860426762
C           71.40268732283938        3.12930471102788        5.31194620629262
H           69.19117597969201       -0.59719087174165        2.51941921816526
H           71.09259999135006       -0.56174022810682        4.43853286895773
H           76.14602269058945        1.06697246291072        4.36611618410446
H           78.05368193980763        0.93861506349088        2.45642214533820
H           78.04050290214992       -1.02125110356161       -2.45420504992418
H           76.14226544406759       -1.09479821926725       -4.37625003754363
H           70.60456417228393       -2.64019995956193       -5.98818530006522
H           70.93615270054637       -3.59799560311166       -4.52079832517950
H           71.99714011488690       -3.76270223602301       -5.94489958643771
H           72.32866106924109       -2.00266673654664       -7.48601094502280
H           73.66723732731162       -0.38633972598001       -8.75834177249551
H           74.99331391828071        1.33454272122410       -7.61683764513027
H           76.36287151960863        3.17530961702015       -4.78594748751869
H           75.31726437111068        3.22017722173463       -6.23004829729368
H           76.70515428568696        2.09312612497264       -6.16155785627245
H           71.14398092827471        0.68535833273167       -4.48219515120683
H           69.23336526867986        0.80022557264997       -2.57473256902593
H           75.23690013002485       -3.20683885935283        6.22650807778166
H           76.29326428370233       -3.17494556567911        4.78989240526660
H           76.63501079145745       -2.09207077294615        6.16514404959348
H           74.91707527489775       -1.31885398866001        7.60520222310358
H           73.61085287589451        0.42505925327998        8.73447636090712
H           72.31403929065699        2.06513359086509        7.44949345003074
H           72.00349912357393        3.82686329244070        5.90799819182097
H           70.60645955958223        2.70946839807532        5.93850499170027
H           70.95403735708727        3.66727820292952        4.47483685758578
