      -----------------------------------------------------------      
     |                   =====================                   |     
     |                           x T B                           |     
     |                   =====================                   |     
     |                         S. Grimme                         |     
     |          Mulliken Center for Theoretical Chemistry        |     
     |                    University of Bonn                     |     
      -----------------------------------------------------------      

   * xtb version 6.5.1 (b24c23e) compiled by 'conda@728c89f4b128' on 2022-07-12

   xtb is free software: you can redistribute it and/or modify it under
   the terms of the GNU Lesser General Public License as published by
   the Free Software Foundation, either version 3 of the License, or
   (at your option) any later version.
   
   xtb is distributed in the hope that it will be useful,
   but WITHOUT ANY WARRANTY; without even the implied warranty of
   MERCHANTABILITY or FITNESS FOR A PARTICULAR PURPOSE.  See the
   GNU Lesser General Public License for more details.
   
   Cite this work as:
   * C. Bannwarth, E. Caldeweyher, S. Ehlert, A. Hansen, P. Pracht,
     J. Seibert, S. Spicher, S. Grimme, WIREs Comput. Mol. Sci., 2020, 11,
     e01493. DOI: 10.1002/wcms.1493
   
   for GFN2-xTB:
   * C. Bannwarth, S. Ehlert and S. Grimme., J. Chem. Theory Comput., 2019,
     15, 1652-1671. DOI: 10.1021/acs.jctc.8b01176
   for GFN1-xTB:
   * S. Grimme, C. Bannwarth, P. Shushkov, J. Chem. Theory Comput., 2017,
     13, 1989-2009. DOI: 10.1021/acs.jctc.7b00118
   for GFN0-xTB:
   * P. Pracht, E. Caldeweyher, S. Ehlert, S. Grimme, ChemRxiv, 2019, preprint.
     DOI: 10.26434/chemrxiv.8326202.v1
   for GFN-FF:
   * S. Spicher and S. Grimme, Angew. Chem. Int. Ed., 2020, 59, 15665-15673.
     DOI: 10.1002/anie.202004239
   
   for ALPB and GBSA implicit solvation:
   * S. Ehlert, M. Stahn, S. Spicher, S. Grimme, J. Chem. Theory Comput.,
     2021, 17, 4250-4261. DOI: 10.1021/acs.jctc.1c00471
   
   for DFT-D4:
   * E. Caldeweyher, C. Bannwarth and S. Grimme, J. Chem. Phys., 2017,
     147, 034112. DOI: 10.1063/1.4993215
   * E. Caldeweyher, S. Ehlert, A. Hansen, H. Neugebauer, S. Spicher,
     C. Bannwarth and S. Grimme, J. Chem. Phys., 2019, 150, 154122.
     DOI: 10.1063/1.5090222
   * E. Caldeweyher, J.-M. Mewes, S. Ehlert and S. Grimme, Phys. Chem. Chem. Phys.
     2020, 22, 8499-8512. DOI: 10.1039/D0CP00502A
   
   for sTDA-xTB:
   * S. Grimme and C. Bannwarth, J. Chem. Phys., 2016, 145, 054103.
     DOI: 10.1063/1.4959605
   
   in the mass-spec context:
   * V. Asgeirsson, C. Bauer and S. Grimme, Chem. Sci., 2017, 8, 4879.
     DOI: 10.1039/c7sc00601b
   * J. Koopman and S. Grimme, ACS Omega 2019, 4, 12, 15120-15133.
     DOI: 10.1021/acsomega.9b02011
   
   for metadynamics refer to:
   * S. Grimme, J. Chem. Theory Comput., 2019, 155, 2847-2862
     DOI: 10.1021/acs.jctc.9b00143
   
   for SPH calculations refer to:
   * S. Spicher and S. Grimme, J. Chem. Theory Comput., 2021, 17, 1701-1714
     DOI: 10.1021/acs.jctc.0c01306
   
   with help from (in alphabetical order)
   P. Atkinson, C. Bannwarth, F. Bohle, G. Brandenburg, E. Caldeweyher
   M. Checinski, S. Dohm, S. Ehlert, S. Ehrlich, I. Gerasimov, C. Hölzer
   A. Katbashev, J. Koopman, C. Lavigne, S. Lehtola, F. März, M. Müller,
   F. Musil, H. Neugebauer, J. Pisarek, C. Plett, P. Pracht, F. Pultar,
   J. Seibert, P. Shushkov, S. Spicher, M. Stahn, M. Steiner, T. Strunk,
   J. Stückrath, T. Rose, and J. Unsleber
   
 * started run on 2022/07/30 at 07:36:38.275     

           -------------------------------------------------
          |                Calculation Setup                |
           -------------------------------------------------

          program call               : xtb xtbopt.xyz --gfn 1 --vipea
          hostname                   : cx3-15-15.cx3.hpc.ic.ac.uk
          coordinate file            : xtbopt.xyz
          omp threads                :                     1

   ID    Z sym.   atoms
    1   29 Cu     1, 63, 137, 198
    2    6 C      2-6, 8-12, 15-20, 22-27, 29-35, 38-42, 64-68, 70-74, 77-82,
                  84-89, 91-97, 100-104, 125-136, 138-142, 144-148, 151-156,
                  158-163, 165-171, 174-178, 199-203, 205-209, 212-217,
                  219-224, 226-232, 235-239
    3    7 N      7, 21, 28, 43, 69, 83, 90, 105, 143, 157, 164, 179, 204,
                  218, 225, 240
    4    8 O      13, 14, 36, 37, 75, 76, 98, 99, 149, 150, 172, 173, 210,
                  211, 233, 234
    5    1 H      44-62, 106-124, 180-197, 241-258

           -------------------------------------------------
          |                 I P E A - x T B                 |
           -------------------------------------------------

        Reference                      10.1039/c7sc00601b
      * Hamiltonian:
        H0-scaling (s, p, d)           2.150000    2.300000    2.000000
        zeta-weighting                 0.000000
      * Dispersion:
        s8                             2.400000
        a1                             0.630000
        a2                             5.000000
        s9                             0.000000
      * Repulsion:
        kExp                           1.500000
        rExp                           1.000000
      * Coulomb:
        alpha                          1.000000
        third order                    atomic
        anisotropic                    false
      * Halogen bond correction:
        rad-scale                      1.300000
        damping                        0.440000


          ...................................................
          :                      SETUP                      :
          :.................................................:
          :  # basis functions                1088          :
          :  # atomic orbitals                1084          :
          :  # shells                          700          :
          :  # electrons                       886          :
          :  # halogen bonds                     0          :
          :  max. iterations                   250          :
          :  Hamiltonian                  GFN1-xTB          :
          :  restarted?                      false          :
          :  GBSA solvation                  false          :
          :  PC potential                    false          :
          :  electronic temp.          300.0000000     K    :
          :  accuracy                    1.0000000          :
          :  -> integral cutoff          0.2500000E+02      :
          :  -> integral neglect         0.1000000E-07      :
          :  -> SCF convergence          0.1000000E-05 Eh   :
          :  -> wf. convergence          0.2000000E-04 e    :
          :  Broyden damping             0.4000000          :
          ...................................................

 iter      E             dE          RMSdq      gap      omega  full diag
   1   -560.6789183 -0.560679E+03  0.103E+01    0.01       0.0  T
   2   -561.0153725 -0.336454E+00  0.638E+00    0.02       1.0  T
   3   -549.9656936  0.110497E+02  0.497E+00    0.46       1.0  T
   4   -550.1052349 -0.139541E+00  0.221E+00    0.05       1.0  T
   5   -557.7797563 -0.767452E+01  0.151E+00    0.09       1.0  T
   6   -562.7630774 -0.498332E+01  0.855E-01    0.11       1.0  T
   7   -562.7697374 -0.666000E-02  0.778E-01    0.09       1.0  T
   8   -562.9124490 -0.142712E+00  0.777E-01    0.17       1.0  T
   9   -563.0058562 -0.934072E-01  0.618E-01    0.02       1.0  T
  10   -563.1606178 -0.154762E+00  0.742E-01    0.07       1.0  T
  11   -563.2304548 -0.698371E-01  0.503E-01    0.04       1.0  T
  12   -563.1183572  0.112098E+00  0.683E-01    0.03       1.0  T
  13   -563.1417296 -0.233724E-01  0.677E-01    0.08       1.0  T
  14   -563.1678414 -0.261118E-01  0.644E-01    0.02       1.0  T
  15   -563.1692222 -0.138078E-02  0.607E-01    0.05       1.0  T
  16   -563.3070010 -0.137779E+00  0.359E-01    0.01       1.0  T
  17   -563.3109300 -0.392894E-02  0.361E-01    0.03       1.0  T
  18   -563.3683148 -0.573848E-01  0.167E-01    0.01       1.0  T
  19   -563.3740229 -0.570806E-02  0.126E-01    0.00       1.0  T
  20   -563.3766223 -0.259943E-02  0.940E-02    0.01       1.0  T
  21   -563.3815264 -0.490409E-02  0.325E-02    0.00       1.0  T
  22   -563.3806184  0.907946E-03  0.508E-02    0.00       1.0  T
  23   -563.3814714 -0.852988E-03  0.305E-02    0.00       1.0  T
  24   -563.3819200 -0.448588E-03  0.124E-02    0.00       1.0  T
  25   -563.3819813 -0.612978E-04  0.587E-03    0.00       1.1  T
  26   -563.3819907 -0.935593E-05  0.347E-03    0.00       1.8  T
  27   -563.3819972 -0.656499E-05  0.107E-03    0.00       5.8  T
  28   -563.3819977 -0.431983E-06  0.771E-04    0.00       8.1  T
  29   -563.3819979 -0.224089E-06  0.520E-04    0.00      12.0  T
  30   -563.3819977  0.206622E-06  0.723E-04    0.00       8.6  T
  31   -563.3819980 -0.316001E-06  0.234E-04    0.00      26.6  T
  32   -563.3819980 -0.270962E-07  0.899E-05    0.00      69.3  T
  33   -563.3819980 -0.286218E-08  0.530E-05    0.00     117.4  T

   *** convergence criteria satisfied after 33 iterations ***

         #    Occupation            Energy/Eh            Energy/eV
      -------------------------------------------------------------
         1        2.0000           -1.0623044             -28.9068
       ...           ...                  ...                  ...
       437        2.0000           -0.3909484             -10.6382
       438        2.0000           -0.3909303             -10.6378
       439        2.0000           -0.3879142             -10.5557
       440        2.0000           -0.3779862             -10.2855
       441        2.0000           -0.3687194             -10.0334
       442        1.2197           -0.3244981              -8.8300
       443        0.7758           -0.3236404              -8.8067 (HOMO)
       444        0.7248           -0.3235370              -8.8039 (LUMO)
       445        0.6700           -0.3234223              -8.8008
       446        0.6084           -0.3232877              -8.7971
       447        0.0014           -0.3171702              -8.6306
       448        0.0000           -0.3103462              -8.4450
       ...           ...                  ...                  ...
      1084                        524.8113173           14280.8428
      -------------------------------------------------------------
                  HL-Gap            0.0001034 Eh            0.0028 eV
             Fermi-level           -0.3240738 Eh           -8.8185 eV

 SCC (total)                   0 d,  0 h,  0 min, 17.899 sec
 SCC setup                      ...        0 min,  0.009 sec (  0.049%)
 Dispersion                     ...        0 min,  0.012 sec (  0.069%)
 classical contributions        ...        0 min,  0.004 sec (  0.022%)
 integral evaluation            ...        0 min,  0.819 sec (  4.574%)
 iterations                     ...        0 min, 15.224 sec ( 85.058%)
 molecular gradient             ...        0 min,  1.736 sec (  9.696%)
 printout                       ...        0 min,  0.095 sec (  0.532%)

         :::::::::::::::::::::::::::::::::::::::::::::::::::::
         ::                     SUMMARY                     ::
         :::::::::::::::::::::::::::::::::::::::::::::::::::::
         :: total energy            -553.418457244046 Eh    ::
         :: gradient norm              0.119235226605 Eh/a0 ::
         :: HOMO-LUMO gap              0.002813524929 eV    ::
         ::.................................................::
         :: SCC energy              -563.381998027987 Eh    ::
         :: -> electrostatic           0.504188057115 Eh    ::
         :: repulsion energy          10.198486336166 Eh    ::
         :: dispersion energy         -0.234945552225 Eh    ::
         :: halogen bond corr.         0.000000000000 Eh    ::
         :: add. restraining           0.000000000000 Eh    ::
         :: total charge              -0.000000000004 e     ::
         :::::::::::::::::::::::::::::::::::::::::::::::::::::

           ------------------------------------------------- 
          |        vertical delta SCC IP calculation        |
           ------------------------------------------------- 
   1   -563.0279315 -0.563028E+03  0.139E-01    0.00       0.0  T
   2   -562.9528191  0.751125E-01  0.396E-01    0.07       1.0  T
   3   -562.8523602  0.100459E+00  0.516E-01    0.14       1.0  T
   4   -562.9429482 -0.905879E-01  0.368E-01    0.00       1.0  T
   5   -562.9782600 -0.353118E-01  0.298E-01    0.03       1.0  T
   6   -563.0000120 -0.217520E-01  0.237E-01    0.02       1.0  T
   7   -563.0202570 -0.202450E-01  0.142E-01    0.00       1.0  T
   8   -563.0283571 -0.810014E-02  0.928E-02    0.00       1.0  T
   9   -563.0326068 -0.424966E-02  0.467E-02    0.00       1.0  T
  10   -563.0340569 -0.145011E-02  0.844E-03    0.00       1.0  T
  11   -563.0336671  0.389755E-03  0.258E-02    0.00       1.0  T
  12   -563.0340638 -0.396682E-03  0.683E-03    0.00       1.0  T
  13   -563.0340889 -0.251460E-04  0.236E-03    0.00       2.6  T
  14   -563.0340921 -0.311199E-05  0.854E-04    0.00       7.3  T
  15   -563.0340915  0.541767E-06  0.133E-03    0.00       4.7  T
  16   -563.0340923 -0.768889E-06  0.707E-04    0.00       8.8  T
  17   -563.0340926 -0.285848E-06  0.235E-04    0.00      26.4  T
  18   -563.0340926 -0.295933E-07  0.834E-05    0.00      74.6  T
  19   -563.0340926 -0.416992E-08  0.205E-05    0.00     303.1  T
     SCC iter.                  ...        0 min,  8.802 sec
     gradient                   ...        0 min,  1.735 sec
------------------------------------------------------------------------
empirical IP shift (eV):    4.8455
delta SCC IP (eV):    4.6215
------------------------------------------------------------------------
           ------------------------------------------------- 
          |        vertical delta SCC EA calculation        |
           ------------------------------------------------- 
   1   -563.6563951 -0.563656E+03  0.292E-01    0.00       0.0  T
   2   -563.5141007  0.142294E+00  0.503E-01    0.03       1.0  T
   3   -563.3021777  0.211923E+00  0.756E-01    0.28       1.0  T
   4   -563.5661387 -0.263961E+00  0.476E-01    0.02       1.0  T
   5   -563.5140378  0.521009E-01  0.485E-01    0.02       1.0  T
   6   -563.5488715 -0.348337E-01  0.421E-01    0.05       1.0  T
   7   -563.6195133 -0.706418E-01  0.336E-01    0.04       1.0  T
   8   -563.6219259 -0.241265E-02  0.315E-01    0.04       1.0  T
   9   -563.6275468 -0.562085E-02  0.250E-01    0.01       1.0  T
  10   -563.6623297 -0.347830E-01  0.164E-01    0.00       1.0  T
  11   -563.6725952 -0.102654E-01  0.111E-01    0.00       1.0  T
  12   -563.6811202 -0.852499E-02  0.449E-02    0.01       1.0  T
  13   -563.6811060  0.141702E-04  0.438E-02    0.01       1.0  T
  14   -563.6820069 -0.900891E-03  0.234E-02    0.00       1.0  T
  15   -563.6823272 -0.320292E-03  0.567E-03    0.00       1.1  T
  16   -563.6823373 -0.101833E-04  0.369E-03    0.00       1.7  T
  17   -563.6823467 -0.934707E-05  0.750E-04    0.00       8.3  T
  18   -563.6823459  0.799302E-06  0.127E-03    0.00       4.9  T
  19   -563.6823467 -0.836783E-06  0.615E-04    0.00      10.1  T
  20   -563.6823470 -0.263106E-06  0.191E-04    0.00      32.7  T
  21   -563.6823470 -0.222035E-07  0.689E-05    0.00      90.4  T
     SCC iter.                  ...        0 min,  9.693 sec
     gradient                   ...        0 min,  1.736 sec
------------------------------------------------------------------------
empirical EA shift (eV):    4.8455
delta SCC EA (eV):    3.3274
------------------------------------------------------------------------
           -------------------------------------------------
          |                Property Printout                |
           -------------------------------------------------

    * Orbital Energies and Occupations

         #    Occupation            Energy/Eh            Energy/eV
      -------------------------------------------------------------
         1        2.0000           -1.0307475             -28.0481
       ...           ...                  ...                  ...
       432        2.0000           -0.3684638             -10.0264
       433        2.0000           -0.3680243             -10.0145
       434        2.0000           -0.3510403              -9.5523
       435        2.0000           -0.3509392              -9.5495
       436        2.0000           -0.3493454              -9.5062
       437        2.0000           -0.3450005              -9.3879
       438        2.0000           -0.3449975              -9.3879
       439        2.0000           -0.3432944              -9.3415
       440        2.0000           -0.3327877              -9.0556
       441        2.0000           -0.3229859              -8.7889
       442        1.6396           -0.2785415              -7.5795
       443        0.9279           -0.2768954              -7.5347
       444        0.8458           -0.2767291              -7.5302 (HOMO)
       445        0.8004           -0.2766354              -7.5276 (LUMO)
       446        0.7754           -0.2765832              -7.5262
       447        0.0107           -0.2719847              -7.4011
       448        0.0001           -0.2672565              -7.2724
       449        0.0001           -0.2671547              -7.2696
       450        0.0000           -0.2623252              -7.1382
       451        0.0000           -0.2616848              -7.1208
       452        0.0000           -0.2615013              -7.1158
       453                         -0.2530064              -6.8847
       454                         -0.2376864              -6.4678
       455                         -0.2374606              -6.4616
       ...                                ...                  ...
      1084                        524.8562122           14282.0645
      -------------------------------------------------------------
                  HL-Gap            0.0000938 Eh            0.0026 eV
             Fermi-level           -0.2770397 Eh           -7.5386 eV

  Mulliken/CM5 charges         n(s)   n(p)   n(d)
     1Cu    0.30486  0.66063   0.538  0.895  9.263
     2C    -0.02596 -0.06723   1.083  2.943  0.000
     3C     0.05947  0.12089   1.117  2.823  0.000
     4C    -0.03794 -0.08411   1.087  2.951  0.000
     5C    -0.03484 -0.08060   1.081  2.953  0.000
     6C     0.05875  0.12385   1.108  2.833  0.000
     7N    -0.21193 -0.46254   1.327  3.885  0.000
     8C     0.00905  0.01439   1.089  2.902  0.000
     9C     0.01182  0.00323   1.089  2.899  0.000
    10C    -0.00830 -0.05749   1.082  2.926  0.000
    11C     0.00696  0.00344   1.088  2.905  0.000
    12C     0.23390  0.28887   1.195  2.571  0.000
    13O    -0.28076 -0.47734   1.681  4.600  0.000
    14O    -0.32913 -0.37899   1.629  4.700  0.000
    15C    -0.01701 -0.06868   1.087  2.930  0.000
    16C    -0.02299 -0.07862   1.087  2.936  0.000
    17C    -0.01383 -0.06720   1.086  2.928  0.000
    18C     0.05726  0.12160   1.106  2.837  0.000
    19C    -0.03694 -0.08267   1.079  2.958  0.000
    20C    -0.03661 -0.08185   1.085  2.952  0.000
    21N    -0.20888 -0.45878   1.329  3.880  0.000
    22C     0.06315  0.12923   1.122  2.815  0.000
    23C     0.01487  0.02169   1.083  2.903  0.000
    24C     0.06325  0.12936   1.122  2.815  0.000
    25C    -0.03644 -0.08168   1.085  2.951  0.000
    26C    -0.03678 -0.08254   1.079  2.957  0.000
    27C     0.05704  0.12134   1.106  2.837  0.000
    28N    -0.20899 -0.45879   1.329  3.880  0.000
    29C     0.00859  0.01389   1.089  2.902  0.000
    30C     0.01096  0.00231   1.088  2.901  0.000
    31C    -0.01331 -0.06671   1.086  2.928  0.000
    32C    -0.02173 -0.07733   1.087  2.935  0.000
    33C    -0.01478 -0.06641   1.090  2.925  0.000
    34C     0.00663  0.00312   1.088  2.905  0.000
    35C     0.23366  0.28861   1.195  2.571  0.000
    36O    -0.27887 -0.47561   1.681  4.598  0.000
    37O    -0.33179 -0.38153   1.628  4.704  0.000
    38C    -0.01076 -0.05997   1.080  2.931  0.000
    39C     0.05806  0.12314   1.108  2.834  0.000
    40C    -0.03576 -0.08152   1.081  2.954  0.000
    41C    -0.03856 -0.08472   1.087  2.952  0.000
    42C     0.05917  0.12059   1.117  2.824  0.000
    43N    -0.21214 -0.46274   1.327  3.886  0.000
    44H     0.02448  0.08341   0.976  0.000  0.000
    45H     0.03114  0.08769   0.969  0.000  0.000
    46H     0.02484  0.08374   0.975  0.000  0.000
    47H     0.03661  0.09912   0.963  0.000  0.000
    48H     0.24192  0.41769   0.758  0.000  0.000
    49H     0.04523  0.10646   0.955  0.000  0.000
    50H     0.03614  0.09207   0.964  0.000  0.000
    51H     0.02742  0.08526   0.973  0.000  0.000
    52H     0.02342  0.08226   0.977  0.000  0.000
    53H     0.02730  0.08535   0.973  0.000  0.000
    54H     0.02777  0.08580   0.972  0.000  0.000
    55H     0.02399  0.08284   0.976  0.000  0.000
    56H     0.02837  0.08625   0.972  0.000  0.000
    57H     0.03749  0.09342   0.963  0.000  0.000
    58H     0.04431  0.10477   0.956  0.000  0.000
    59H     0.24095  0.41677   0.759  0.000  0.000
    60H     0.03704  0.10039   0.963  0.000  0.000
    61H     0.02510  0.08401   0.975  0.000  0.000
    62H     0.03109  0.08764   0.969  0.000  0.000
    63Cu    0.30343  0.65870   0.537  0.894  9.265
    64C    -0.02610 -0.06737   1.083  2.943  0.000
    65C     0.05941  0.12084   1.117  2.823  0.000
    66C    -0.03808 -0.08424   1.087  2.951  0.000
    67C    -0.03496 -0.08071   1.081  2.953  0.000
    68C     0.05866  0.12379   1.108  2.833  0.000
    69N    -0.21195 -0.46258   1.326  3.886  0.000
    70C     0.00899  0.01433   1.089  2.902  0.000
    71C     0.01188  0.00328   1.089  2.899  0.000
    72C    -0.00835 -0.05749   1.082  2.926  0.000
    73C     0.00688  0.00337   1.088  2.905  0.000
    74C     0.23384  0.28881   1.195  2.571  0.000
    75O    -0.28089 -0.47746   1.681  4.600  0.000
    76O    -0.32920 -0.37907   1.629  4.701  0.000
    77C    -0.01710 -0.06876   1.087  2.930  0.000
    78C    -0.02300 -0.07863   1.086  2.937  0.000
    79C    -0.01375 -0.06717   1.086  2.928  0.000
    80C     0.05714  0.12148   1.106  2.837  0.000
    81C    -0.03713 -0.08288   1.079  2.958  0.000
    82C    -0.03678 -0.08202   1.085  2.952  0.000
    83N    -0.20905 -0.45876   1.329  3.880  0.000
    84C     0.06311  0.12925   1.122  2.815  0.000
    85C     0.01462  0.02144   1.082  2.903  0.000
    86C     0.06305  0.12915   1.122  2.815  0.000
    87C    -0.03674 -0.08198   1.085  2.951  0.000
    88C    -0.03702 -0.08275   1.079  2.958  0.000
    89C     0.05694  0.12128   1.106  2.837  0.000
    90N    -0.20906 -0.45887   1.329  3.880  0.000
    91C     0.00850  0.01380   1.089  2.902  0.000
    92C     0.01096  0.00232   1.088  2.901  0.000
    93C    -0.01353 -0.06690   1.086  2.928  0.000
    94C    -0.02187 -0.07747   1.087  2.935  0.000
    95C    -0.01478 -0.06641   1.090  2.925  0.000
    96C     0.00670  0.00319   1.088  2.905  0.000
    97C     0.23370  0.28865   1.195  2.571  0.000
    98O    -0.27880 -0.47552   1.681  4.598  0.000
    99O    -0.33167 -0.38142   1.628  4.704  0.000
   100C    -0.01069 -0.05992   1.079  2.931  0.000
   101C     0.05800  0.12309   1.108  2.834  0.000
   102C    -0.03583 -0.08159   1.081  2.955  0.000
   103C    -0.03860 -0.08476   1.087  2.952  0.000
   104C     0.05915  0.12061   1.117  2.824  0.000
   105N    -0.21234 -0.46277   1.327  3.886  0.000
   106H     0.02430  0.08323   0.976  0.000  0.000
   107H     0.03095  0.08750   0.969  0.000  0.000
   108H     0.02461  0.08349   0.975  0.000  0.000
   109H     0.03652  0.09905   0.963  0.000  0.000
   110H     0.24179  0.41759   0.758  0.000  0.000
   111H     0.04510  0.10631   0.955  0.000  0.000
   112H     0.03609  0.09202   0.964  0.000  0.000
   113H     0.02746  0.08529   0.973  0.000  0.000
   114H     0.02312  0.08198   0.977  0.000  0.000
   115H     0.02704  0.08510   0.973  0.000  0.000
   116H     0.02728  0.08530   0.973  0.000  0.000
   117H     0.02379  0.08262   0.976  0.000  0.000
   118H     0.02797  0.08583   0.972  0.000  0.000
   119H     0.03719  0.09312   0.963  0.000  0.000
   120H     0.04438  0.10486   0.956  0.000  0.000
   121H     0.24104  0.41685   0.759  0.000  0.000
   122H     0.03712  0.10045   0.963  0.000  0.000
   123H     0.02507  0.08398   0.975  0.000  0.000
   124H     0.03101  0.08756   0.969  0.000  0.000
   125C    -0.02476 -0.02559   1.063  2.962  0.000
   126C    -0.02714 -0.02876   1.087  2.940  0.000
   127C    -0.02917 -0.02999   1.059  2.970  0.000
   128C    -0.02342 -0.02503   1.092  2.932  0.000
   129C    -0.02799 -0.02882   1.061  2.967  0.000
   130C    -0.02632 -0.02794   1.089  2.937  0.000
   131C    -0.02799 -0.02881   1.060  2.968  0.000
   132C    -0.02614 -0.02775   1.089  2.937  0.000
   133C    -0.02961 -0.03043   1.059  2.971  0.000
   134C    -0.02392 -0.02553   1.092  2.932  0.000
   135C    -0.02526 -0.02609   1.063  2.963  0.000
   136C    -0.02739 -0.02902   1.087  2.940  0.000
   137Cu    0.33437  0.68618   0.544  0.906  9.215
   138C     0.00773  0.01458   1.076  2.916  0.000
   139C     0.06312  0.12939   1.122  2.815  0.000
   140C    -0.03857 -0.08381   1.084  2.955  0.000
   141C    -0.03588 -0.08162   1.080  2.956  0.000
   142C     0.05454  0.11888   1.102  2.843  0.000
   143N    -0.20754 -0.45682   1.328  3.880  0.000
   144C     0.01067  0.01593   1.090  2.899  0.000
   145C     0.01238  0.00376   1.089  2.899  0.000
   146C    -0.00758 -0.05677   1.082  2.925  0.000
   147C     0.00718  0.00367   1.088  2.905  0.000
   148C     0.23406  0.28903   1.195  2.571  0.000
   149O    -0.28108 -0.47768   1.681  4.600  0.000
   150O    -0.32854 -0.37840   1.629  4.700  0.000
   151C    -0.01704 -0.06870   1.087  2.930  0.000
   152C    -0.02311 -0.07875   1.087  2.937  0.000
   153C    -0.01373 -0.06713   1.086  2.928  0.000
   154C     0.05424  0.11860   1.102  2.844  0.000
   155C    -0.03703 -0.08276   1.080  2.957  0.000
   156C    -0.03856 -0.08380   1.084  2.955  0.000
   157N    -0.20721 -0.45656   1.328  3.879  0.000
   158C     0.06276  0.12901   1.122  2.815  0.000
   159C     0.00939  0.01624   1.078  2.913  0.000
   160C     0.06280  0.12912   1.122  2.815  0.000
   161C    -0.03855 -0.08378   1.084  2.955  0.000
   162C    -0.03704 -0.08275   1.080  2.958  0.000
   163C     0.05386  0.11821   1.102  2.844  0.000
   164N    -0.20731 -0.45651   1.328  3.879  0.000
   165C     0.01004  0.01527   1.090  2.900  0.000
   166C     0.01157  0.00288   1.088  2.900  0.000
   167C    -0.01402 -0.06736   1.086  2.928  0.000
   168C    -0.02248 -0.07807   1.087  2.935  0.000
   169C    -0.01501 -0.06664   1.090  2.925  0.000
   170C     0.00714  0.00363   1.088  2.904  0.000
   171C     0.23404  0.28903   1.195  2.571  0.000
   172O    -0.27747 -0.47420   1.680  4.597  0.000
   173O    -0.33204 -0.38177   1.628  4.704  0.000
   174C    -0.00972 -0.05889   1.079  2.930  0.000
   175C     0.05377  0.11814   1.102  2.844  0.000
   176C    -0.03719 -0.08290   1.080  2.957  0.000
   177C    -0.03935 -0.08458   1.084  2.956  0.000
   178C     0.06288  0.12917   1.122  2.815  0.000
   179N    -0.20790 -0.45722   1.328  3.880  0.000
   180H     0.02550  0.08350   0.974  0.000  0.000
   181H     0.02385  0.08280   0.976  0.000  0.000
   182H     0.03693  0.09944   0.963  0.000  0.000
   183H     0.24149  0.41729   0.759  0.000  0.000
   184H     0.04458  0.10581   0.955  0.000  0.000
   185H     0.03533  0.09126   0.965  0.000  0.000
   186H     0.02679  0.08465   0.973  0.000  0.000
   187H     0.02246  0.08133   0.978  0.000  0.000
   188H     0.02595  0.08399   0.974  0.000  0.000
   189H     0.02618  0.08421   0.974  0.000  0.000
   190H     0.02414  0.08304   0.976  0.000  0.000
   191H     0.02646  0.08425   0.974  0.000  0.000
   192H     0.03546  0.09138   0.965  0.000  0.000
   193H     0.04356  0.10404   0.956  0.000  0.000
   194H     0.24190  0.41768   0.758  0.000  0.000
   195H     0.03844  0.10172   0.962  0.000  0.000
   196H     0.02237  0.08119   0.978  0.000  0.000
   197H     0.02481  0.08287   0.975  0.000  0.000
   198Cu    0.33376  0.68543   0.544  0.905  9.217
   199C     0.00947  0.01633   1.078  2.913  0.000
   200C     0.06316  0.12946   1.122  2.815  0.000
   201C    -0.03796 -0.08320   1.084  2.954  0.000
   202C    -0.03608 -0.08184   1.079  2.957  0.000
   203C     0.05451  0.11884   1.102  2.843  0.000
   204N    -0.20709 -0.45642   1.328  3.879  0.000
   205C     0.01051  0.01578   1.090  2.899  0.000
   206C     0.01235  0.00374   1.089  2.899  0.000
   207C    -0.00752 -0.05673   1.082  2.925  0.000
   208C     0.00712  0.00360   1.088  2.905  0.000
   209C     0.23405  0.28901   1.195  2.571  0.000
   210O    -0.28131 -0.47788   1.681  4.601  0.000
   211O    -0.32802 -0.37790   1.629  4.700  0.000
   212C    -0.01727 -0.06894   1.087  2.931  0.000
   213C    -0.02342 -0.07906   1.086  2.937  0.000
   214C    -0.01387 -0.06725   1.086  2.928  0.000
   215C     0.05390  0.11828   1.102  2.844  0.000
   216C    -0.03732 -0.08306   1.080  2.957  0.000
   217C    -0.03960 -0.08483   1.083  2.956  0.000
   218N    -0.20785 -0.45731   1.328  3.880  0.000
   219C     0.06265  0.12891   1.122  2.815  0.000
   220C     0.00739  0.01425   1.076  2.917  0.000
   221C     0.06270  0.12898   1.122  2.815  0.000
   222C    -0.03927 -0.08451   1.083  2.956  0.000
   223C    -0.03690 -0.08265   1.080  2.957  0.000
   224C     0.05378  0.11814   1.102  2.844  0.000
   225N    -0.20798 -0.45708   1.328  3.880  0.000
   226C     0.01009  0.01532   1.090  2.900  0.000
   227C     0.01146  0.00279   1.088  2.900  0.000
   228C    -0.01368 -0.06705   1.086  2.928  0.000
   229C    -0.02218 -0.07778   1.087  2.935  0.000
   230C    -0.01482 -0.06645   1.090  2.925  0.000
   231C     0.00701  0.00349   1.088  2.905  0.000
   232C     0.23394  0.28891   1.195  2.571  0.000
   233O    -0.27796 -0.47471   1.680  4.598  0.000
   234O    -0.33203 -0.38176   1.628  4.704  0.000
   235C    -0.00984 -0.05906   1.079  2.930  0.000
   236C     0.05390  0.11827   1.102  2.844  0.000
   237C    -0.03716 -0.08289   1.080  2.957  0.000
   238C    -0.03871 -0.08394   1.084  2.955  0.000
   239C     0.06279  0.12909   1.122  2.815  0.000
   240N    -0.20739 -0.45664   1.328  3.879  0.000
   241H     0.02625  0.08429   0.974  0.000  0.000
   242H     0.02384  0.08281   0.976  0.000  0.000
   243H     0.03715  0.09968   0.963  0.000  0.000
   244H     0.24160  0.41740   0.758  0.000  0.000
   245H     0.04429  0.10552   0.956  0.000  0.000
   246H     0.03491  0.09083   0.965  0.000  0.000
   247H     0.02657  0.08445   0.973  0.000  0.000
   248H     0.02156  0.08040   0.978  0.000  0.000
   249H     0.02446  0.08250   0.976  0.000  0.000
   250H     0.02537  0.08338   0.975  0.000  0.000
   251H     0.02398  0.08293   0.976  0.000  0.000
   252H     0.02686  0.08473   0.973  0.000  0.000
   253H     0.03611  0.09204   0.964  0.000  0.000
   254H     0.04378  0.10426   0.956  0.000  0.000
   255H     0.24129  0.41709   0.759  0.000  0.000
   256H     0.03789  0.10125   0.962  0.000  0.000
   257H     0.02274  0.08158   0.977  0.000  0.000
   258H     0.02581  0.08384   0.974  0.000  0.000

Wiberg/Mayer (AO) data.
largest (>0.10) Wiberg bond orders for each atom

 ---------------------------------------------------------------------------
     #   Z sym  total        # sym  WBO       # sym  WBO       # sym  WBO
 ---------------------------------------------------------------------------
     1  29 Cu   2.678 --     7 N    0.610    43 N    0.609    21 N    0.606
                            28 N    0.605
     2   6 C    3.797 --     3 C    1.386    42 C    1.385    44 H    0.997
     3   6 C    3.947 --     2 C    1.386     7 N    1.272     4 C    1.197
     4   6 C    3.838 --     5 C    1.644     3 C    1.197    45 H    0.993
     5   6 C    3.824 --     4 C    1.644     6 C    1.204    46 H    0.998
     6   6 C    3.915 --     8 C    1.368     7 N    1.264     5 C    1.204
     7   7 N    2.957 --     3 C    1.272     6 C    1.264     1 Cu   0.610
     8   6 C    3.832 --     6 C    1.368    18 C    1.359     9 C    1.048
     9   6 C    3.898 --    10 C    1.440    17 C    1.419     8 C    1.048
    10   6 C    3.851 --     9 C    1.440    11 C    1.407    47 H    0.996
    11   6 C    3.908 --    10 C    1.407    15 C    1.401    12 C    1.035
    12   6 C    4.097 --    14 O    1.820    13 O    1.210    11 C    1.035
    13   8 O    2.366 --    12 C    1.210    48 H    0.944    14 O    0.184
    14   8 O    2.033 --    12 C    1.820    13 O    0.184
    15   6 C    3.887 --    16 C    1.454    11 C    1.401    49 H    0.987
    16   6 C    3.908 --    15 C    1.454    17 C    1.445    50 H    0.982
    17   6 C    3.870 --    16 C    1.445     9 C    1.419    51 H    0.989
    18   6 C    3.902 --     8 C    1.359    21 N    1.256    19 C    1.218
    19   6 C    3.815 --    20 C    1.618    18 C    1.218    52 H    0.998
    20   6 C    3.826 --    19 C    1.618    22 C    1.228    53 H    0.999
    21   7 N    2.972 --    22 C    1.298    18 C    1.256     1 Cu   0.606
    22   6 C    3.920 --    21 N    1.298    23 C    1.287    20 C    1.228
    23   6 C    3.813 --    22 C    1.287    24 C    1.286   126 C    1.232
    24   6 C    3.920 --    28 N    1.299    23 C    1.286    25 C    1.228
    25   6 C    3.826 --    26 C    1.619    24 C    1.228    54 H    0.999
    26   6 C    3.815 --    25 C    1.619    27 C    1.218    55 H    0.998
    27   6 C    3.903 --    29 C    1.360    28 N    1.255    26 C    1.218
    28   7 N    2.971 --    24 C    1.299    27 C    1.255     1 Cu   0.605
    29   6 C    3.832 --    39 C    1.367    27 C    1.360    30 C    1.048
    30   6 C    3.897 --    38 C    1.438    31 C    1.421    29 C    1.048
    31   6 C    3.870 --    32 C    1.444    30 C    1.421    56 H    0.989
    32   6 C    3.907 --    33 C    1.456    31 C    1.444    57 H    0.981
    33   6 C    3.891 --    32 C    1.456    34 C    1.401    58 H    0.987
    34   6 C    3.908 --    38 C    1.407    33 C    1.401    35 C    1.036
    35   6 C    4.097 --    37 O    1.817    36 O    1.212    34 C    1.036
    36   8 O    2.369 --    35 C    1.212    59 H    0.944    37 O    0.183
    37   8 O    2.029 --    35 C    1.817    36 O    0.183
    38   6 C    3.848 --    30 C    1.438    34 C    1.407    60 H    0.996
    39   6 C    3.915 --    29 C    1.367    43 N    1.264    40 C    1.205
    40   6 C    3.824 --    41 C    1.643    39 C    1.205    61 H    0.999
    41   6 C    3.837 --    40 C    1.643    42 C    1.198    62 H    0.993
    42   6 C    3.947 --     2 C    1.385    43 N    1.273    41 C    1.198
    43   7 N    2.957 --    42 C    1.273    39 C    1.264     1 Cu   0.609
    44   1 H    1.034 --     2 C    0.997
    45   1 H    1.023 --     4 C    0.993
    46   1 H    1.036 --     5 C    0.998
    47   1 H    1.051 --    10 C    0.996
    48   1 H    0.980 --    13 O    0.944
    49   1 H    1.016 --    15 C    0.987
    50   1 H    1.029 --    16 C    0.982
    51   1 H    1.054 --    17 C    0.989
    52   1 H    1.037 --    19 C    0.998
    53   1 H    1.033 --    20 C    0.999
    54   1 H    1.033 --    25 C    0.999
    55   1 H    1.037 --    26 C    0.998
    56   1 H    1.053 --    31 C    0.989
    57   1 H    1.029 --    32 C    0.981
    58   1 H    1.026 --    33 C    0.987
    59   1 H    0.981 --    36 O    0.944
    60   1 H    1.042 --    38 C    0.996
    61   1 H    1.034 --    40 C    0.999
    62   1 H    1.023 --    41 C    0.993
    63  29 Cu   2.674 --    69 N    0.609   105 N    0.609    90 N    0.605
                            83 N    0.605
    64   6 C    3.796 --    65 C    1.386   104 C    1.385   106 H    0.997
    65   6 C    3.947 --    64 C    1.386    69 N    1.272    66 C    1.197
    66   6 C    3.838 --    67 C    1.644    65 C    1.197   107 H    0.993
    67   6 C    3.825 --    66 C    1.644    68 C    1.204   108 H    0.999
    68   6 C    3.915 --    70 C    1.368    69 N    1.264    67 C    1.204
    69   7 N    2.956 --    65 C    1.272    68 C    1.264    63 Cu   0.609
    70   6 C    3.831 --    68 C    1.368    80 C    1.359    71 C    1.048
    71   6 C    3.898 --    72 C    1.440    79 C    1.420    70 C    1.048
    72   6 C    3.852 --    71 C    1.440    73 C    1.408   109 H    0.996
    73   6 C    3.908 --    72 C    1.408    77 C    1.401    74 C    1.035
    74   6 C    4.097 --    76 O    1.820    75 O    1.210    73 C    1.035
    75   8 O    2.366 --    74 C    1.210   110 H    0.944    76 O    0.184
    76   8 O    2.033 --    74 C    1.820    75 O    0.184
    77   6 C    3.887 --    78 C    1.454    73 C    1.401   111 H    0.987
    78   6 C    3.908 --    77 C    1.454    79 C    1.445   112 H    0.982
    79   6 C    3.870 --    78 C    1.445    71 C    1.420   113 H    0.989
    80   6 C    3.902 --    70 C    1.359    83 N    1.256    81 C    1.218
    81   6 C    3.814 --    82 C    1.618    80 C    1.218   114 H    0.998
    82   6 C    3.825 --    81 C    1.618    84 C    1.228   115 H    0.999
    83   7 N    2.971 --    84 C    1.300    80 C    1.256    63 Cu   0.605
    84   6 C    3.919 --    83 N    1.300    85 C    1.285    82 C    1.228
    85   6 C    3.812 --    86 C    1.287    84 C    1.285   136 C    1.233
    86   6 C    3.920 --    90 N    1.299    85 C    1.287    87 C    1.228
    87   6 C    3.826 --    88 C    1.619    86 C    1.228   116 H    0.999
    88   6 C    3.815 --    87 C    1.619    89 C    1.218   117 H    0.998
    89   6 C    3.902 --    91 C    1.359    90 N    1.256    88 C    1.218
    90   7 N    2.971 --    86 C    1.299    89 C    1.256    63 Cu   0.605
    91   6 C    3.831 --   101 C    1.368    89 C    1.359    92 C    1.048
    92   6 C    3.898 --   100 C    1.438    93 C    1.420    91 C    1.048
    93   6 C    3.870 --    94 C    1.444    92 C    1.420   118 H    0.989
    94   6 C    3.908 --    95 C    1.456    93 C    1.444   119 H    0.982
    95   6 C    3.891 --    94 C    1.456    96 C    1.401   120 H    0.987
    96   6 C    3.908 --   100 C    1.407    95 C    1.401    97 C    1.036
    97   6 C    4.097 --    99 O    1.817    98 O    1.212    96 C    1.036
    98   8 O    2.369 --    97 C    1.212   121 H    0.944    99 O    0.183
    99   8 O    2.029 --    97 C    1.817    98 O    0.183
   100   6 C    3.848 --    92 C    1.438    96 C    1.407   122 H    0.996
   101   6 C    3.915 --    91 C    1.368   105 N    1.264   102 C    1.205
   102   6 C    3.824 --   103 C    1.644   101 C    1.205   123 H    0.999
   103   6 C    3.838 --   102 C    1.644   104 C    1.197   124 H    0.993
   104   6 C    3.947 --    64 C    1.385   105 N    1.273   103 C    1.197
   105   7 N    2.956 --   104 C    1.273   101 C    1.264    63 Cu   0.609
   106   1 H    1.034 --    64 C    0.997
   107   1 H    1.023 --    66 C    0.993
   108   1 H    1.036 --    67 C    0.999
   109   1 H    1.051 --    72 C    0.996
   110   1 H    0.980 --    75 O    0.944
   111   1 H    1.016 --    77 C    0.987
   112   1 H    1.029 --    78 C    0.982
   113   1 H    1.054 --    79 C    0.989
   114   1 H    1.037 --    81 C    0.998
   115   1 H    1.033 --    82 C    0.999
   116   1 H    1.033 --    87 C    0.999
   117   1 H    1.037 --    88 C    0.998
   118   1 H    1.053 --    93 C    0.989
   119   1 H    1.030 --    94 C    0.982
   120   1 H    1.026 --    95 C    0.987
   121   1 H    0.981 --    98 O    0.944
   122   1 H    1.042 --   100 C    0.996
   123   1 H    1.034 --   102 C    0.999
   124   1 H    1.023 --   103 C    0.993
   125   6 C    3.803 --   126 C    2.485   127 C    1.338
   126   6 C    3.798 --   125 C    2.485    23 C    1.232   128 C    0.176
   127   6 C    3.800 --   128 C    2.483   125 C    1.338
   128   6 C    3.799 --   127 C    2.483   138 C    1.234   126 C    0.176
   129   6 C    3.800 --   130 C    2.475   131 C    1.345
   130   6 C    3.798 --   129 C    2.475   159 C    1.241   132 C    0.174
   131   6 C    3.800 --   132 C    2.475   129 C    1.345
   132   6 C    3.798 --   131 C    2.475   199 C    1.241   130 C    0.174
   133   6 C    3.800 --   134 C    2.482   135 C    1.339
   134   6 C    3.799 --   133 C    2.482   220 C    1.235   136 C    0.175
   135   6 C    3.803 --   136 C    2.485   133 C    1.339
   136   6 C    3.798 --   135 C    2.485    85 C    1.233   134 C    0.175
   137  29 Cu   2.751 --   157 N    0.626   143 N    0.626   179 N    0.625
                           164 N    0.625
   138   6 C    3.795 --   139 C    1.281   178 C    1.281   128 C    1.234
   139   6 C    3.921 --   143 N    1.299   138 C    1.281   140 C    1.229
   140   6 C    3.821 --   141 C    1.616   139 C    1.229   180 H    0.999
   141   6 C    3.815 --   140 C    1.616   142 C    1.220   181 H    0.998
   142   6 C    3.899 --   144 C    1.367   143 N    1.243   141 C    1.220
   143   7 N    2.971 --   139 C    1.299   142 C    1.243   137 Cu   0.626
   144   6 C    3.828 --   142 C    1.367   154 C    1.361   145 C    1.048
   145   6 C    3.898 --   146 C    1.441   153 C    1.420   144 C    1.048
   146   6 C    3.852 --   145 C    1.441   147 C    1.407   182 H    0.996
   147   6 C    3.908 --   146 C    1.407   151 C    1.401   148 C    1.035
   148   6 C    4.097 --   150 O    1.821   149 O    1.210   147 C    1.035
   149   8 O    2.366 --   148 C    1.210   183 H    0.944   150 O    0.184
   150   8 O    2.034 --   148 C    1.821   149 O    0.184
   151   6 C    3.886 --   152 C    1.454   147 C    1.401   184 H    0.987
   152   6 C    3.908 --   151 C    1.454   153 C    1.445   185 H    0.982
   153   6 C    3.870 --   152 C    1.445   145 C    1.420   186 H    0.990
   154   6 C    3.900 --   144 C    1.361   157 N    1.245   155 C    1.222
   155   6 C    3.816 --   156 C    1.613   154 C    1.222   187 H    0.999
   156   6 C    3.821 --   155 C    1.613   158 C    1.232   188 H    0.999
   157   7 N    2.972 --   158 C    1.299   154 C    1.245   137 Cu   0.626
   158   6 C    3.919 --   157 N    1.299   159 C    1.279   156 C    1.232
   159   6 C    3.794 --   158 C    1.279   160 C    1.278   130 C    1.241
   160   6 C    3.920 --   164 N    1.300   159 C    1.278   161 C    1.232
   161   6 C    3.821 --   162 C    1.613   160 C    1.232   189 H    0.999
   162   6 C    3.813 --   161 C    1.613   163 C    1.223   190 H    0.999
   163   6 C    3.898 --   165 C    1.363   164 N    1.244   162 C    1.223
   164   7 N    2.972 --   160 C    1.300   163 C    1.244   137 Cu   0.625
   165   6 C    3.827 --   175 C    1.366   163 C    1.363   166 C    1.046
   166   6 C    3.898 --   174 C    1.439   167 C    1.422   165 C    1.046
   167   6 C    3.870 --   168 C    1.443   166 C    1.422   191 H    0.990
   168   6 C    3.908 --   169 C    1.456   167 C    1.443   192 H    0.982
   169   6 C    3.891 --   168 C    1.456   170 C    1.402   193 H    0.987
   170   6 C    3.909 --   174 C    1.407   169 C    1.402   171 C    1.036
   171   6 C    4.097 --   173 O    1.817   172 O    1.214   170 C    1.036
   172   8 O    2.370 --   171 C    1.214   194 H    0.943   173 O    0.183
   173   8 O    2.029 --   171 C    1.817   172 O    0.183
   174   6 C    3.848 --   166 C    1.439   170 C    1.407   195 H    0.996
   175   6 C    3.901 --   165 C    1.366   179 N    1.243   176 C    1.221
   176   6 C    3.817 --   177 C    1.615   175 C    1.221   196 H    0.999
   177   6 C    3.820 --   176 C    1.615   178 C    1.230   197 H    1.000
   178   6 C    3.920 --   179 N    1.299   138 C    1.281   177 C    1.230
   179   7 N    2.970 --   178 C    1.299   175 C    1.243   137 Cu   0.625
   180   1 H    1.033 --   140 C    0.999
   181   1 H    1.036 --   141 C    0.998
   182   1 H    1.051 --   146 C    0.996
   183   1 H    0.980 --   149 O    0.944
   184   1 H    1.017 --   151 C    0.987
   185   1 H    1.030 --   152 C    0.982
   186   1 H    1.054 --   153 C    0.990
   187   1 H    1.038 --   155 C    0.999
   188   1 H    1.033 --   156 C    0.999
   189   1 H    1.033 --   161 C    0.999
   190   1 H    1.034 --   162 C    0.999
   191   1 H    1.054 --   167 C    0.990
   192   1 H    1.030 --   168 C    0.982
   193   1 H    1.026 --   169 C    0.987
   194   1 H    0.980 --   172 O    0.943
   195   1 H    1.041 --   174 C    0.996
   196   1 H    1.037 --   176 C    0.999
   197   1 H    1.033 --   177 C    1.000
   198  29 Cu   2.749 --   204 N    0.625   218 N    0.625   240 N    0.625
                           225 N    0.624
   199   6 C    3.794 --   239 C    1.278   200 C    1.278   132 C    1.241
   200   6 C    3.920 --   204 N    1.300   199 C    1.278   201 C    1.231
   201   6 C    3.821 --   202 C    1.614   200 C    1.231   241 H    0.999
   202   6 C    3.814 --   201 C    1.614   203 C    1.222   242 H    0.998
   203   6 C    3.899 --   205 C    1.363   204 N    1.244   202 C    1.222
   204   7 N    2.972 --   200 C    1.300   203 C    1.244   198 Cu   0.625
   205   6 C    3.828 --   215 C    1.364   203 C    1.363   206 C    1.049
   206   6 C    3.898 --   207 C    1.440   214 C    1.419   205 C    1.049
   207   6 C    3.852 --   206 C    1.440   208 C    1.408   243 H    0.996
   208   6 C    3.908 --   207 C    1.408   212 C    1.401   209 C    1.035
   209   6 C    4.097 --   211 O    1.821   210 O    1.209   208 C    1.035
   210   8 O    2.365 --   209 C    1.209   244 H    0.944   211 O    0.184
   211   8 O    2.034 --   209 C    1.821   210 O    0.184
   212   6 C    3.886 --   213 C    1.454   208 C    1.401   245 H    0.987
   213   6 C    3.908 --   212 C    1.454   214 C    1.445   246 H    0.982
   214   6 C    3.870 --   213 C    1.445   206 C    1.419   247 H    0.990
   215   6 C    3.900 --   205 C    1.364   218 N    1.244   216 C    1.222
   216   6 C    3.817 --   217 C    1.614   215 C    1.222   248 H    0.999
   217   6 C    3.820 --   216 C    1.614   219 C    1.231   249 H    1.000
   218   7 N    2.969 --   219 C    1.299   215 C    1.244   198 Cu   0.625
   219   6 C    3.920 --   218 N    1.299   220 C    1.280   217 C    1.231
   220   6 C    3.794 --   221 C    1.281   219 C    1.280   134 C    1.235
   221   6 C    3.921 --   225 N    1.300   220 C    1.281   222 C    1.230
   222   6 C    3.821 --   223 C    1.615   221 C    1.230   250 H    0.999
   223   6 C    3.814 --   222 C    1.615   224 C    1.221   251 H    0.999
   224   6 C    3.899 --   226 C    1.366   225 N    1.244   223 C    1.221
   225   7 N    2.969 --   221 C    1.300   224 C    1.244   198 Cu   0.624
   226   6 C    3.827 --   224 C    1.366   236 C    1.362   227 C    1.049
   227   6 C    3.898 --   235 C    1.438   228 C    1.421   226 C    1.049
   228   6 C    3.870 --   229 C    1.443   227 C    1.421   252 H    0.990
   229   6 C    3.908 --   230 C    1.456   228 C    1.443   253 H    0.982
   230   6 C    3.891 --   229 C    1.456   231 C    1.401   254 H    0.987
   231   6 C    3.908 --   235 C    1.408   230 C    1.401   232 C    1.036
   232   6 C    4.097 --   234 O    1.817   233 O    1.213   231 C    1.036
   233   8 O    2.369 --   232 C    1.213   255 H    0.944   234 O    0.183
   234   8 O    2.029 --   232 C    1.817   233 O    0.183
   235   6 C    3.848 --   227 C    1.438   231 C    1.408   256 H    0.996
   236   6 C    3.900 --   226 C    1.362   240 N    1.245   237 C    1.222
   237   6 C    3.816 --   238 C    1.613   236 C    1.222   257 H    0.999
   238   6 C    3.821 --   237 C    1.613   239 C    1.232   258 H    0.999
   239   6 C    3.919 --   240 N    1.300   199 C    1.278   238 C    1.232
   240   7 N    2.971 --   239 C    1.300   236 C    1.245   198 Cu   0.625
   241   1 H    1.033 --   201 C    0.999
   242   1 H    1.036 --   202 C    0.998
   243   1 H    1.051 --   207 C    0.996
   244   1 H    0.980 --   210 O    0.944
   245   1 H    1.017 --   212 C    0.987
   246   1 H    1.030 --   213 C    0.982
   247   1 H    1.054 --   214 C    0.990
   248   1 H    1.038 --   216 C    0.999
   249   1 H    1.033 --   217 C    1.000
   250   1 H    1.033 --   222 C    0.999
   251   1 H    1.035 --   223 C    0.999
   252   1 H    1.054 --   228 C    0.990
   253   1 H    1.030 --   229 C    0.982
   254   1 H    1.026 --   230 C    0.987
   255   1 H    0.981 --   233 O    0.944
   256   1 H    1.042 --   235 C    0.996
   257   1 H    1.037 --   237 C    0.999
   258   1 H    1.033 --   238 C    0.999
 ---------------------------------------------------------------------------

Topologies differ in total number of bonds
Writing topology from bond orders to xtbtopo.mol

 dipole moment from electron density (au)
     X       Y       Z   
-127.6298  -1.8741  -2.1172  total (Debye):  324.482


           -------------------------------------------------
          | TOTAL ENERGY             -553.718806235244 Eh   |
          | GRADIENT NORM               0.130562587750 Eh/α |
          | HOMO-LUMO GAP               0.002551251229 eV   |
           -------------------------------------------------
########################################################################
[WARNING] Runtime exception occurred
-1- restart_readRestart: Dimension missmatch in restart file.
########################################################################

------------------------------------------------------------------------
 * finished run on 2022/07/30 at 07:37:20.784     
------------------------------------------------------------------------
 total:
 * wall-time:     0 d,  0 h,  0 min, 42.509 sec
 *  cpu-time:     0 d,  0 h,  0 min, 42.320 sec
 * ratio c/w:     0.996 speedup
 SCF:
 * wall-time:     0 d,  0 h,  0 min, 41.749 sec
 *  cpu-time:     0 d,  0 h,  0 min, 41.567 sec
 * ratio c/w:     0.996 speedup

