258
 energy: -496.914927507626 gnorm: 0.000564468686 xtb: 6.5.1 (b24c23e)
Cu          47.48336516909583        0.22661846584545       -0.60021804839908
C           44.10339070706694        0.16161995317621       -0.18649132637781
C           44.71969021125829        1.40033263495603       -0.09636382609004
C           44.03065474489700        2.64139192064845        0.11431010039191
C           44.97220178047012        3.61643571432393        0.14007785105046
C           46.24772129217072        2.97725596525308       -0.04025770031355
N           46.06239742190787        1.63298765235149       -0.19087881646907
C           47.47991335342839        3.63389243969472       -0.06895506756722
C           47.47855730688695        5.10238967764027        0.14849198600530
C           47.01368477137179        5.64144183658671        1.34461202689215
C           47.01057176653190        7.02138369486417        1.54482716615951
C           46.50203963215355        7.53462431671532        2.84173337321963
O           46.54624201064166        8.87094622502540        2.94372249625797
O           46.08354230338095        6.83881092245666        3.73132263873489
C           47.47323742291962        7.87443480762126        0.54298945540341
C           47.93625917285686        7.34023037545580       -0.64920625774874
C           47.94127712339806        5.96661274968466       -0.84675365090290
C           48.71380694494314        3.01621657858911       -0.28272979797980
C           49.98496707120694        3.68104056864841       -0.23174661789325
C           50.93488455120167        2.74298650300064       -0.47640226345767
N           48.90993708861667        1.68665933591650       -0.54710239223494
C           50.25226591616816        1.49993268006787       -0.67437056456986
C           50.89214844088657        0.28418026135091       -0.97225311713154
C           50.24229122548935       -0.94978272262879       -1.14891505897359
C           50.90568565639779       -2.16537853571947       -1.51279253578401
C           49.95505057775547       -3.13235800567679       -1.57056623071677
C           48.70476997158480       -2.51450938935956       -1.23039701263936
N           48.91038232025810       -1.18139994810400       -0.99131213785748
C           47.47687900202910       -3.17592784532446       -1.16542569105755
C           47.47323295619358       -4.64098177951473       -1.40530710042656
C           48.18892242792650       -5.49855259628424       -0.56682410749631
C           48.18284046369680       -6.86925760006603       -0.78525392142613
C           47.46461078695658       -7.40087577292902       -1.84316970317658
C           46.74597715128548       -6.55434943431952       -2.68880448661850
C           45.98776978051533       -7.16229066029069       -3.81068148855260
O           45.32177140390609       -6.26804437062644       -4.55619646063738
O           45.95567153204626       -8.34260235794003       -4.04852642136785
C           46.75084017282844       -5.17842192797178       -2.46851067426234
C           46.25105659073059       -2.56705655524276       -0.88683711230679
C           44.99537269926570       -3.25562977199859       -0.75684307453902
C           44.05344568068765       -2.31904905841915       -0.48489897587902
C           44.72566042391704       -1.05229745110412       -0.43538044334831
N           46.05793080661091       -1.23179025532760       -0.67779653116873
H           43.02703583219374        0.14024710537631       -0.05082811193856
H           42.96161340591220        2.74019306039921        0.21764438983750
H           44.82248117726175        4.67716239046731        0.26110846394122
H           46.66273474727156        4.99310139485041        2.14004022086415
H           46.19909892808259        9.12537157217802        3.81415779907357
H           47.46805419674988        8.94631002224431        0.69939340744297
H           48.29459899299344        7.99744789344690       -1.43346447965988
H           48.29308570723953        5.55623374908267       -1.78673969863060
H           50.12969050245008        4.72782779618394       -0.01864555706480
H           52.00478282557430        2.87108738895102       -0.51604998525231
H           51.96259421969680       -2.25576504451593       -1.70623430389379
H           50.08350817851199       -4.16986952768739       -1.83344545919192
H           48.74060219047942       -5.08582525757643        0.27041250411737
H           48.74006076769183       -7.52255865691336       -0.12357464013535
H           47.44866991511635       -8.46904977118440       -2.02784233387103
H           44.85507449757542       -6.74322618966362       -5.26272501901393
H           46.20322465581305       -4.52224263719452       -3.13464645846806
H           44.86074477246719       -4.32119779541096       -0.85036651597404
H           42.99676906690519       -2.46023839185866       -0.32106458976374
Cu          87.84658677852048        0.29851088309856       -0.58458790406452
C           91.25159945064011        0.20777674807052       -0.59358564695717
C           90.59451593767001       -0.98685121025519       -0.84578423555821
C           91.24639048389737       -2.23100398545635       -1.14048312440830
C           90.27101511282773       -3.15640281664034       -1.31426854050721
C           89.01340284869839       -2.48680532780067       -1.11873703297015
N           89.24080566321868       -1.16918959373730       -0.84392745573817
C           87.75770676414709       -3.09006789388671       -1.21860212820226
C           87.72127114043413       -4.55166939325662       -1.47579936757551
C           88.28024163220827       -5.44115882893936       -0.56256058285762
C           88.24604510362846       -6.81458322426060       -0.80035290214361
C           88.85757740551469       -7.71078021430501        0.21292581046896
O           88.76712754486087       -9.01211572355144       -0.09785114643724
O           89.38987711724913       -7.33045467931143        1.22417694590114
C           87.65161848526836       -7.30830767879587       -1.96157018045101
C           87.09650080300706       -6.42461715916334       -2.87372788909970
C           87.12842779092961       -5.05782088801094       -2.63486331458644
C           86.53556820841550       -2.42654810954713       -1.09361252402591
C           85.24730467631204       -3.05743540888646       -1.14827589285426
C           84.31863309865838       -2.08049036057185       -0.98918428156603
N           86.37139166168691       -1.08260665485049       -0.88573985260736
C           85.03194077852170       -0.84991046762054       -0.82388699565621
C           84.41855414109378        0.39990225276446       -0.62692257142577
C           85.09921024948167        1.60802099366563       -0.39622088006675
C           84.45562348808156        2.87485102922812       -0.21910828734245
C           85.43552584977618        3.78981713325589       -0.00752008631671
C           86.68567895804352        3.08542567063409       -0.05017963342066
N           86.44816676457643        1.75906371881557       -0.29593427771825
C           87.94122385149174        3.67568251983485        0.10813997623397
C           87.97994960252203        5.12543139834531        0.42612219252642
C           87.40428871158171        5.60506174683587        1.60481994012106
C           87.44278269716524        6.95818981176045        1.91142196106584
C           88.05363356298959        7.84933135606228        1.04516451607663
C           88.63074952661042        7.38278663527355       -0.13689965944474
C           89.27552918353125        8.36946200749387       -1.03905924410983
O           89.81169796476811        7.82141078190208       -2.13956811564607
O           89.32777635249039        9.55351484043703       -0.82466289590968
C           88.59375665450143        6.02395770105172       -0.44375152448470
C           89.16292043837932        3.00890054641561       -0.00883688531598
C           90.45561853822123        3.60599119811528        0.19239850044954
C           91.37951972383411        2.63538513535034       -0.01405551347191
C           90.66051138795601        1.43372549335043       -0.32764662573338
N           89.31856543873653        1.68779005793271       -0.31616819033491
H           92.33630739781368        0.17911000681836       -0.59794057946305
H           92.31459312623680       -2.36312440669003       -1.20964244167076
H           90.38500847868943       -4.19888184492108       -1.56430437894166
H           88.73534169268387       -5.07599977191270        0.35165448502892
H           89.18674761537920       -9.52763616842957        0.60998153220828
H           87.62725111014157       -8.37550242451491       -2.14576113317421
H           86.63605702959853       -6.80123915218556       -3.78013640561825
H           86.70344093858820       -4.37180297014044       -3.35908124486675
H           85.07830768746302       -4.11431127407832       -1.27688932434587
H           83.24479982671707       -2.17690195497236       -0.97296493418265
H           83.39002027700501        3.03489993470259       -0.25881539759190
H           85.32619506088210        4.85101884458780        0.14739545152318
H           86.93715178061892        4.90703991095656        2.29055836495038
H           86.99524492420785        7.31488169303377        2.83208585597455
H           88.09282441660962        8.90937086662410        1.26908737043552
H           90.21059639777943        8.52865619459673       -2.67205559659642
H           89.03034915031542        5.66652982544631       -1.36884548952054
H           90.62717564435056        4.63432282262965        0.46697400130725
H           92.45374365435579        2.70953343914934        0.04844521614076
C           53.51192725214777        0.31873085441505       -1.17992453151762
C           52.29312883548433        0.30310250355014       -1.09484421734645
C           54.85941516948661        0.34546750712943       -1.25774017133776
C           56.08004009203272        0.36679218784086       -1.31084420609111
C           66.98275693976034        0.55201215026034       -1.35191540835368
C           65.76077050033702        0.53953303009193       -1.37077614208706
C           68.33181324866388        0.56199200968169       -1.32188432683001
C           69.55355945375484        0.56749721490554       -1.28872014798714
C           80.44378390950796        0.49621116015725       -0.75693085545818
C           79.22319510451254        0.51337493787843       -0.81326106259813
C           81.79232849766487        0.46969914623492       -0.70267913761954
C           83.01321459144188        0.44161506608163       -0.66197907019024
Cu          60.91960624291502        0.46838897220207       -1.38661050966125
C           57.48500100171937        0.40044149914042       -1.35040124810418
C           58.15041885480501       -0.73906317068191       -1.83612992782340
C           57.48951279316878       -1.89831575831769       -2.35581738440090
C           58.45902944784732       -2.77361986916189       -2.72453881452983
C           59.71947035938386       -2.15792987878716       -2.41981110864393
N           59.49838519522969       -0.91521783748679       -1.88832509094495
C           60.96984007530320       -2.73649117813281       -2.64623299215633
C           60.99423986983537       -4.11607555371251       -3.19458808453248
C           60.43260889644953       -5.17191155619664       -2.48251323657608
C           60.46058436264423       -6.46704994693270       -2.99841953534957
C           59.84580014710157       -7.55075223054379       -2.19117882696206
O           59.93920829674965       -8.76155462784673       -2.75994232752805
O           59.30769557741171       -7.38410085174712       -1.12665974324584
C           61.05143397664885       -6.71363709833568       -4.23759344084955
C           61.60904699721063       -5.66349035273755       -4.94982137153308
C           61.58331710300517       -4.37524770268905       -4.43444364259250
C           62.20134585272892       -2.12752547598383       -2.39532537057196
C           63.47981440311341       -2.75940052371965       -2.55775048915781
C           64.42157829153739       -1.84867939619182       -2.20239547840698
N           62.38382465057545       -0.85067105602770       -1.93549806202340
C           63.72529799638512       -0.65906132409169       -1.81472294119070
C           64.35550004744886        0.52215168170466       -1.38374409094739
C           63.68881251387145        1.68673200296694       -0.96203813358842
C           64.34773852440891        2.89769357197975       -0.57472838035650
C           63.37749023405026        3.78341875817566       -0.23316340294062
C           62.11924265209881        3.11384380935038       -0.40158308422940
N           62.34170093754767        1.84033170095682       -0.85359580057799
C           60.86930813823229        3.68553054045339       -0.15745282223129
C           60.84678300360643        5.07270718059917        0.37307716462910
C           60.26687228114224        6.10457123647498       -0.36772203313780
C           60.24676841681390        7.40260477422011        0.12373143182737
C           60.79967292578705        7.68507710135518        1.36150597869703
C           61.37884515318920        6.66138474194811        2.11294202031942
C           61.95604110476644        7.00404493675183        3.43715211113237
O           62.48470018739610        5.95334333309294        4.08069181147799
O           61.96090748185223        8.11208133785806        3.90930711579918
C           61.40387916611289        5.35935847031229        1.61726529544953
C           59.63845979140905        3.06014112134327       -0.36464149978484
C           58.36176926819394        3.63102394225226       -0.04234121673759
C           57.42015484026202        2.71095400337274       -0.37314298532049
C           58.11506049406562        1.57209580612515       -0.89362871143972
N           59.45539466417448        1.80382071682734       -0.87784314867668
H           56.42035922664235       -2.01443504015662       -2.43372422994341
H           58.33473726827165       -3.74558598955516       -3.17366317808705
H           59.98114317788997       -5.00132080801978       -1.51129334756744
H           59.51682895435613       -9.41055486520368       -2.17407404998712
H           61.07119101955649       -7.72024523765299       -4.63729679779060
H           62.06693480583029       -5.84724591336839       -5.91520763652492
H           62.01089075785468       -3.55637402650386       -5.00219256704399
H           63.63388448486738       -3.77492934488589       -2.88485081330768
H           65.49337894608841       -1.96607430986948       -2.19246908874974
H           65.41591148340352        3.04481237082442       -0.57515599529358
H           63.49901762578644        4.80377941971973        0.09261534553836
H           59.84236988353351        5.88667032052310       -1.34139385366525
H           59.79787753186790        8.19461371358308       -0.46483045996133
H           60.79119161037821        8.69288654865705        1.76104652473985
H           62.83626771510090        6.25857193565327        4.93282898301259
H           61.84432677029827        4.56411075688184        2.20694719192771
H           58.20956526172743        4.60431492077569        0.39543696016177
H           56.34938776742401        2.78553815183424       -0.27053057837294
Cu          74.38941115503161        0.55223002688815       -1.07944835770800
C           70.95813538494774        0.56811561595623       -1.23981267439344
C           71.62281134897853       -0.58869791729154       -1.68537651682380
C           70.96577248377379       -1.73066079000152       -2.24655857609630
C           71.93244120361733       -2.63540952638412       -2.54520059092439
C           73.18619716861357       -2.05526816441173       -2.15529999517929
N           72.96544940817273       -0.80310703048854       -1.64612085678914
C           74.43136081705693       -2.67377171948077       -2.28451878228296
C           74.45253162930064       -4.05884544381446       -2.81810264246209
C           73.79821178308453       -5.08834626092514       -2.14769847951075
C           73.81772746167924       -6.38723819403306       -2.65449437843596
C           73.09999490461288       -7.44103819119063       -1.89417241634535
O           73.17786469862399       -8.65568846049483       -2.45740641241193
O           72.49713073799222       -7.24912957422505       -0.86937724657350
C           74.49442251751211       -6.66456807826064       -3.84222218358836
C           75.14672918461071       -5.64122682448179       -4.51180011375753
C           75.12851780725428       -4.34921716715678       -4.00574014544285
C           75.65964361201058       -2.09713158626764       -1.95342970592429
C           76.92659290119538       -2.76896773894375       -2.01094598985544
C           77.86908731529941       -1.87472293938430       -1.61714701760098
N           75.84819547916615       -0.81452407834578       -1.51294329242807
C           77.18400408678944       -0.65534860264746       -1.31047735383242
C           77.81945599818020        0.52617863675463       -0.88762640667742
C           77.16050454522374        1.71953105630064       -0.54202376138809
C           77.82742808649155        2.92991609353687       -0.16678379530466
C           76.86214597702974        3.84552657033929        0.10226003915390
C           75.59817133554182        3.19500675306352       -0.09724174782682
N           75.81340774495747        1.90374697185349       -0.49916570028054
C           74.35022128200340        3.79532362984302        0.08276054528784
C           74.33304603859203        5.19489498011532        0.57808111029432
C           73.77526205344935        6.21349207354159       -0.19772514661385
C           73.76100526396360        7.52389544197413        0.25971466262729
C           74.30047798216548        7.83345715231311        1.49694561182731
C           74.85926955577698        6.82408301820701        2.28244053300388
C           75.42808989383667        7.19632507228603        3.60217049918167
O           75.94421579676927        6.15853788115026        4.27654443292969
O           75.43920794279772        8.31613279622265        4.04545606935760
C           74.87541484397947        5.50895304389702        1.82237262713243
C           73.11698960480372        3.18744223310531       -0.16191206571227
C           71.83838056098881        3.78467250925435        0.10026804259870
C           70.89451847076316        2.88051335127556       -0.26633229372139
C           71.58952772312341        1.72492992328584       -0.74808984067633
N           72.93202237045659        1.92962336073595       -0.67056201502736
H           69.90165781791472       -1.81665905961832       -2.39772733715586
H           71.81084846253712       -3.60519497259358       -2.99975721282586
H           73.27831648784623       -4.89440315470160       -1.21588242695599
H           72.68645346055705       -9.28382617227038       -1.90346477830804
H           74.50676028132274       -7.67382924079625       -4.23545823437060
H           75.67234603931166       -5.84878454653535       -5.43705198587175
H           75.62991726784787       -3.55094199988046       -4.54157353639226
H           77.07191243124556       -3.79755901489639       -2.29907077431975
H           78.93388782310652       -2.02159575666713       -1.53161039748857
H           78.89749795071818        3.05605901995709       -0.12539180639462
H           76.99183453378033        4.87415199808900        0.39736165075115
H           73.36419440821955        5.97520376607496       -1.17238698699313
H           73.32819301357878        8.30446739091187       -0.35553392090534
H           74.29772358720861        8.85155122602610        1.86953295812874
H           76.29237536876063        6.48323718380841        5.12280520859770
H           75.29759222236663        4.72505146689550        2.43995080377229
H           71.68550875104265        4.76329533218084        0.52571178804552
H           69.82186162889981        2.97627346189762       -0.21246072604026
