132
 energy: -262.958472584233 gnorm: 1.316735213618 xtb: 6.5.1 (b24c23e)
Cu          13.57888000000000       -0.03007600000000        0.00044300000000
C           10.24574100000000        0.12093600000000        0.10685300000000
C           10.91255300000000        1.27788200000000        0.08545300000000
C           10.26418200000000        2.58350000000000        0.08424900000000
C           11.20782200000000        3.50557100000000        0.07628800000000
C           12.51296900000000        2.83052100000000        0.07422000000000
N           12.33298700000000        1.41429500000000        0.07925500000000
C           13.70691900000000        3.45541200000000        0.10413700000000
C           13.74444300000000        4.93411600000000        0.11165200000000
C           13.53510400000000        5.64939000000000       -1.07532200000000
C           13.55675800000000        7.04772900000000       -1.07238400000000
O           13.34248100000000        7.72890700000000       -2.27077200000000
C           13.78982200000000        7.74338800000000        0.12776700000000
O           13.80545100000000        9.13892100000000        0.12370100000000
C           14.00359700000000        7.02737500000000        1.31985900000000
O           14.23644300000000        7.71007300000000        2.51250000000000
C           13.98112100000000        5.62614500000000        1.30646600000000
C           15.00512600000000        2.73130700000000        0.14249300000000
C           16.30440000000000        3.40083300000000        0.27391700000000
C           17.23872600000000        2.47366400000000        0.25926200000000
N           15.13975000000000        1.44353300000000        0.04190700000000
C           16.54562100000000        1.19976200000000        0.10773400000000
C           17.14083000000000       -0.00094700000000       -0.00066200000000
C           16.38787100000000       -1.26647800000000       -0.18081300000000
C           16.95316000000000       -2.42841900000000       -0.48594100000000
C           15.90566400000000       -3.42747900000000       -0.51613900000000
C           14.76397400000000       -2.81331200000000       -0.23008200000000
N           14.97772500000000       -1.41659400000000       -0.00379300000000
C           13.45486400000000       -3.50702600000000       -0.11161300000000
C           13.43604800000000       -4.98580700000000       -0.13021900000000
C           13.58267800000000       -5.70381000000000        1.06318900000000
C           13.56139400000000       -7.10227100000000        1.05433200000000
O           13.70312200000000       -7.78755600000000        2.26106300000000
C           13.39806700000000       -7.79423800000000       -0.15965300000000
O           13.38123600000000       -9.18967200000000       -0.16066900000000
C           13.25616300000000       -7.07445700000000       -1.36019800000000
O           13.09872300000000       -7.75386000000000       -2.56740700000000
C           13.27433500000000       -5.67314500000000       -1.34018400000000
C           12.29219000000000       -2.84185100000000        0.01048100000000
C           10.96826000000000       -3.45002200000000        0.12919700000000
C           10.10924900000000       -2.45137800000000        0.18093100000000
C           10.87536000000000       -1.20874700000000        0.10093800000000
N           12.15009300000000       -1.42350000000000        0.00049400000000
H            9.16285700000000        0.15372100000000        0.13147300000000
H            9.19955500000000        2.77926000000000        0.09336300000000
H           11.02414200000000        4.57222000000000        0.08284600000000
H           13.35137200000000        5.11906800000000       -2.00201300000000
H           13.34745500000000        8.74034700000000       -2.32374700000000
H           13.95582400000000        9.67917600000000        0.96670800000000
H           14.39275600000000        7.21774800000000        3.38442100000000
H           14.14384700000000        5.07554500000000        2.22512500000000
H           16.48796600000000        4.46339300000000        0.36383000000000
H           18.30251400000000        2.65684000000000        0.33401700000000
H           18.00281200000000       -2.61332800000000       -0.66791400000000
H           16.04055700000000       -4.48224500000000       -0.71908200000000
H           13.70985300000000       -5.17605400000000        2.00063800000000
H           13.68480600000000       -8.79862200000000        2.31143000000000
H           13.26734300000000       -9.72778900000000       -1.01109600000000
H           12.99888400000000       -7.25956100000000       -3.44682500000000
H           13.16399600000000       -5.11966200000000       -2.26522800000000
H           10.71636800000000       -4.50218100000000        0.16369000000000
H            9.03425100000000       -2.54918200000000        0.26437700000000
Cu          31.85463600000000        0.02787000000000        0.00373800000000
C           35.18777499999999       -0.13423000000000        0.09234500000000
C           34.52096300000000       -1.28129500000000       -0.06005100000000
C           35.16933400000000       -2.57836300000000       -0.20923400000000
C           34.22569400000000       -3.49358900000000       -0.32165600000000
C           32.92054700000000       -2.82265500000000       -0.24719700000000
N           33.10052900000000       -1.41612600000000       -0.08167100000000
C           31.72659700000000       -3.44691000000000       -0.28830100000000
C           31.68907300000000       -4.91693600000000       -0.44843900000000
C           31.89841200000000       -5.49306200000000       -1.70883700000000
C           31.87675800000000       -6.88272300000000       -1.86441400000000
O           32.09103500000000       -7.42368000000000       -3.13228800000000
C           31.64369400000000       -7.70993100000000       -0.75084700000000
O           31.62806500000000       -9.09601000000000       -0.91306300000000
C           31.42991800000000       -7.13365000000000        0.51472000000000
O           31.19707300000000       -7.94712900000000        1.62229400000000
C           31.45239500000000       -5.73993200000000        0.66023700000000
C           30.42838900000000       -2.73181900000000       -0.16811900000000
C           29.12911600000000       -3.41192600000000       -0.11342900000000
C           28.19479000000000       -2.48907100000000       -0.02289900000000
N           30.29376600000000       -1.44094200000000       -0.12209200000000
C           28.88789500000000       -1.20620300000000       -0.02905900000000
C           28.29268600000000       -0.00094700000000       -0.00066200000000
C           29.04564500000000        1.27684800000000       -0.03621000000000
C           28.48035600000000        2.46588700000000       -0.20767000000000
C           29.52785200000000        3.46193100000000       -0.12443400000000
C           30.66954100000000        2.81929900000000        0.09016500000000
N           30.45579100000000        1.40593300000000        0.15668500000000
C           31.97865200000000        3.49511400000000        0.28650000000000
C           31.99746800000000        4.96647400000000        0.43562800000000
C           31.85083800000000        5.54458200000000        1.70272700000000
C           31.87212200000000        6.93503600000000        1.85243700000000
O           31.73039300000000        7.47912600000000        3.12906500000000
C           32.03544900000000        7.76014300000000        0.72470600000000
O           32.05228000000000        9.14669900000000        0.88186300000000
C           32.17735300000000        7.18107700000000       -0.54968500000000
O           32.33479300000000        7.99293400000000       -1.67210700000000
C           32.15918000000000        5.78652600000000       -0.68863300000000
C           33.14132600000000        2.82038700000000        0.33241300000000
C           34.46525600000000        3.41118200000000        0.51929700000000
C           35.32426700000000        2.41311100000000        0.45750700000000
C           34.55815600000000        1.18755500000000        0.23718200000000
N           33.28342300000000        1.41230800000000        0.16172700000000
H           36.27065900000000       -0.16959400000000        0.11309100000000
H           36.23396100000000       -2.77389400000000       -0.22236700000000
H           34.40937400000000       -4.55410700000000       -0.43604000000000
H           32.08214400000000       -4.86112200000000       -2.56944700000000
H           32.08606100000000       -8.42259700000000       -3.29956300000000
H           31.47769200000000       -9.72833400000000       -0.13672500000000
H           31.04076000000000       -7.55680500000000        2.54439900000000
H           31.28966900000000       -5.29700700000000        1.63538400000000
H           28.94555000000000       -4.47783000000000       -0.14453200000000
H           27.13100200000000       -2.67954000000000        0.03061200000000
H           27.43070400000000        2.67022900000000       -0.36751200000000
H           29.39295800000000        4.53290200000000       -0.20651700000000
H           31.72366299999999        4.91397200000000        2.57431600000000
H           31.74871000000000        8.47796800000000        3.29370800000000
H           32.16617300000000        9.77774100000000        0.09791000000000
H           32.43463100000000        7.60149800000000       -2.60188400000000
H           32.26952000000000        5.34146000000000       -1.67045000000000
H           34.71714799999999        4.45265100000000        0.67282600000000
H           36.39926499999999        2.50082600000000        0.55150000000000
C           18.21639500000000        0.01467300000000        0.01026400000000
C           19.67462100000000       -0.00716400000000       -0.00761000000000
C           20.80854900000000       -0.02791700000000       -0.00910100000000
C           22.16993099999999       -0.04050700000000       -0.01129200000000
C           23.44415000000000       -0.03020100000000       -0.01605700000000
C           24.63261200000000       -0.01140300000000       -0.02221300000000
C           25.98497300000000        0.01338200000000       -0.00634500000000
C           27.08524000000000        0.01467300000000        0.01026400000000
132
 energy: -263.312431672019 gnorm: 0.448145652060 xtb: 6.5.1 (b24c23e)
Cu          13.58581696418167       -0.02547255713016        0.00171122119167
C           10.24587146166677        0.10481727218133        0.10689587398511
C           10.91842563175677        1.27961637785612        0.08483411402887
C           10.26350026426480        2.57701220720932        0.08449878667280
C           11.21711990965008        3.50764888272958        0.07570793763061
C           12.51128474497214        2.82655789947721        0.07314290863117
N           12.31602137150977        1.42844666206690        0.08163313476364
C           13.71937437577388        3.45455905908718        0.10425993991474
C           13.74674578190081        4.93970629205311        0.11072304286934
C           13.53484919217272        5.65623066726455       -1.07378014263280
C           13.55702643969920        7.05868355717132       -1.07103338332821
O           13.34301867518344        7.72787167671842       -2.26712712096010
C           13.79158701399621        7.75064523830583        0.13706226968687
O           13.80498931667424        9.14065498882579        0.12182228733587
C           14.00489364805495        7.02530739501020        1.32630964942126
O           14.23607344406271        7.71232074090100        2.51165553177307
C           13.98164089193345        5.62812685967906        1.30496054493378
C           14.99597091992742        2.75527311149109        0.14320338869697
C           16.28704628284952        3.41347799268298        0.27275951866156
C           17.23207799189102        2.46343881204132        0.25857675392976
N           15.14033655731804        1.44653248255972        0.04364728954576
C           16.50982691857775        1.22433618284482        0.11059946761121
C           17.06907941942066       -0.01506159649368       -0.00350761549002
C           16.35413817768823       -1.27092136364213       -0.17954321649112
C           16.95094554412597       -2.44690209379348       -0.48879292694845
C           15.92184407524931       -3.43161267531482       -0.51771786055090
C           14.75108657275100       -2.80705779392652       -0.22524339861637
N           14.97432163640971       -1.42656679776415       -0.00677982304112
C           13.46639009890729       -3.50036751414979       -0.11147997950063
C           13.44095259912155       -4.98931928518490       -0.12991583876713
C           13.58270685564936       -5.71028925134740        1.06174648931126
C           13.56081772923044       -7.11312758053932        1.05293050732320
O           13.70241782816112       -7.78630608410522        2.25724393692147
C           13.39698894037475       -7.80143491668812       -0.16908301414698
O           13.38128486010273       -9.19124480153131       -0.15878661153318
C           13.25543951321530       -7.07208738428120       -1.36663372993912
O           13.09860675850769       -7.75577385135176       -2.56626869826359
C           13.27478253621418       -5.67431742328399       -1.33859133561812
C           12.29174691213858       -2.84074967263271        0.01109554435368
C           10.97557618352190       -3.44961844997303        0.12863403372643
C           10.10152447798575       -2.44083822477087        0.18132521178006
C           10.85779645808665       -1.19972772607848        0.10135228924913
N           12.14996619989167       -1.43186934122943       -0.00057889544776
H            9.16316255805542        0.14940401678817        0.13181836874889
H            9.19976827548587        2.77302958860493        0.09325662686930
H           11.03166001928613        4.57269433565252        0.08255477014585
H           13.35184546165330        5.12178385645370       -2.00074773836357
H           13.35000035428383        8.72242891013042       -2.30912592428488
H           13.95431238055347        9.65797595389026        0.95827327097657
H           14.38865430178186        7.21794217578152        3.36207919282146
H           14.14372530269237        5.07616071913314        2.22431952675573
H           16.48156561477471        4.46785918604045        0.36401118913569
H           18.29909115223052        2.64659547056158        0.33320036419296
H           18.00245274631115       -2.61460706461231       -0.66810624684004
H           16.04439653374789       -4.48301138533190       -0.72009929070985
H           13.70978635667219       -5.17882736115460        1.99946775434794
H           13.68350744363346       -8.78068920303610        2.29672642036125
H           13.26875350256797       -9.70654891367222       -1.00249516732399
H           13.00170853905987       -7.25983129789726       -3.42417638202661
H           13.16417095304841       -5.12017306993867       -2.26432984208481
H           10.72353861295161       -4.50136369221415        0.16328921161374
H            9.03173502316529       -2.54385011284389        0.26464458729182
Cu          31.84779013028318        0.02362091106973        0.00476266903414
C           35.18736673581458       -0.11873026180485        0.09422368033794
C           34.51529212222264       -1.28293884491099       -0.06069649380432
C           35.17017220756225       -2.57235712768686       -0.20836050910026
C           34.21692141591269       -3.49570162504451       -0.32215985735052
C           32.92233136573279       -2.81777908024934       -0.24748477091983
N           33.11754582279072       -1.43143329161216       -0.08239767743136
C           31.71367292473056       -3.44559969039663       -0.28822970594515
C           31.68661884040640       -4.92235832865649       -0.45004321449543
C           31.89865473704130       -5.50004480379111       -1.70809489267533
C           31.87651903536362       -6.89380552664236       -1.86435218992093
O           32.09047794151048       -7.42303607353847       -3.12847661747635
C           31.64193656075071       -7.71825304051866       -0.74243331025837
O           31.62851706121224       -9.09742702325422       -0.91510303705083
C           31.42862282046634       -7.13237149711138        0.52139455037334
O           31.19743029323054       -7.94920393957630        1.62115015764453
C           31.45184691659279       -5.74172570599538        0.65851925728429
C           30.43813552835088       -2.75275752200232       -0.17000489372977
C           29.14296330272834       -3.42311280633234       -0.11529497391778
C           28.19966363925118       -2.48071300156911       -0.02284427936080
N           30.29410332804715       -1.44502094894797       -0.12041379466468
C           28.91927476751099       -1.22151187485934       -0.02883394974046
C           28.37397687796987        0.01068918981688       -0.00040867258306
C           29.07573548821003        1.27433672449389       -0.03351217138888
C           28.48188653214143        2.48504015575217       -0.20790771268665
C           29.50988026901817        3.46558779194533       -0.12582267397220
C           30.68266008308523        2.81147452508283        0.09437425443862
N           30.45830358385454        1.41632279057997        0.15401604803168
C           31.96621614432966        3.48819004412975        0.28586224750573
C           31.99246351901178        4.96986833217428        0.43629610248369
C           31.85081701773027        5.55115398321173        1.70202323414191
C           31.87269784630070        6.94599144613737        1.85228778464958
O           31.73111460421818        7.47829288955344        3.12508515621788
C           32.03652267709230        7.76838920661469        0.71615210780002
O           32.05224288948632        9.14799820712698        0.88390066431893
C           32.17807558752430        7.17946098333872       -0.55636034366572
O           32.33491393953087        7.99466653345367       -1.67073011744062
C           32.15873923084734        5.78748589365245       -0.68692732544638
C           33.14213293654004        2.81903546743868        0.33286028436554
C           34.45797356114463        3.41097963336450        0.51858455981699
C           35.33217883575803        2.40267405897201        0.45667856972971
C           34.57570058372111        1.17908552318715        0.23658268577824
N           33.28419744206698        1.42154772035407        0.16256380616070
H           36.27026416076531       -0.16543815014064        0.11385722818087
H           36.23383213097056       -2.76782928338834       -0.22174818660768
H           34.40194427858624       -4.55460870848557       -0.43638355564655
H           32.08166778629430       -4.86396533670196       -2.56850120845225
H           32.08352183751472       -8.40644850547490       -3.28302378184755
H           31.47920927262063       -9.70633130261377       -0.14271520806057
H           31.04487264131206       -7.55449746136463        2.52219767066449
H           31.28980431567186       -5.29752551162131        1.63452352712857
H           28.95146053216520       -4.48200554912153       -0.14492799246986
H           27.13376732809380       -2.67050941825446        0.03096850097208
H           27.43103036432649        2.67232226101757       -0.36770371937005
H           29.38888461443516        4.53365372741352       -0.20747307771717
H           31.72372322329224        4.91685506042230        2.57347025486579
H           31.74999817457789        8.46181003480478        3.27707156889419
H           32.16475460344128        9.75566957988153        0.10405453074820
H           32.43179990023528        7.59921218395751       -2.57935712603537
H           32.26934025002731        5.34186080595225       -1.66950693398710
H           34.70998345788281        4.45193363674621        0.67232417851562
H           36.40186860565613        2.49552851790628        0.55114534520926
C           18.34193202600481        0.00056691601182        0.01096031192997
C           19.62914783271057       -0.00895390688758       -0.00690417068613
C           20.86383005684435       -0.02855785859780       -0.00929563462480
C           22.14616469803719       -0.04047322803072       -0.01155441578161
C           23.41180354724697       -0.03091422596966       -0.01633009293268
C           24.62814024572374       -0.01223993015571       -0.02207654044369
C           25.90421478179320        0.01746934440735       -0.00643811180048
C           27.09746187994917        0.02799122605796        0.01071422996564
132
 energy: -263.418287326291 gnorm: 0.178346381284 xtb: 6.5.1 (b24c23e)
Cu          13.59532014455414       -0.01747230859774        0.00728877638429
C           10.24771724339531        0.08736321181890        0.10709071957437
C           10.92174994129621        1.28177463286384        0.08472372858952
C           10.26451802561122        2.57051044175139        0.08470629188400
C           11.22732883814895        3.50894744292368        0.07520894424221
C           12.50819383912516        2.82421062351279        0.07163082557130
N           12.29222931076414        1.45258194740310        0.08061422225644
C           13.73415264760902        3.45585277620545        0.10275492645864
C           13.75081525286151        4.94864988169716        0.10977526120603
C           13.53496567068061        5.66813675878052       -1.06887330879581
C           13.55783583116513        7.07037976431686       -1.06377947352034
O           13.34449185357988        7.71860816545909       -2.25640703642383
C           13.79326635059303        7.75854996832978        0.14658332678981
O           13.80307418905025        9.13888629445818        0.11236539638665
C           14.00602804594207        7.02671102488010        1.33100365160753
O           14.23368711991839        7.72318603227509        2.50142238458368
C           13.98383979632087        5.63285758018417        1.30412201135486
C           14.98449125634606        2.78302376293914        0.14372037466491
C           16.27094411222260        3.42783727975133        0.27154806666597
C           17.21814911885702        2.45969488715966        0.25755063906849
N           15.14733648334752        1.45513848827673        0.05008216887414
C           16.49519321730400        1.22776203592421        0.11168133025459
C           17.05105396528545       -0.03444467815390       -0.00829562364431
C           16.33776421929802       -1.26794736707961       -0.17381953550824
C           16.94948857605514       -2.47361217100332       -0.48919537615606
C           15.94565988120906       -3.43626671570208       -0.51628257615790
C           14.74313217022504       -2.80256705621965       -0.21806034014953
N           14.97914212855172       -1.44111130377234       -0.01793306224603
C           13.48674984517745       -3.49027601358674       -0.10941614576813
C           13.45415704428396       -4.99146089422293       -0.13072137884203
C           13.58451364890757       -5.71970043292162        1.05617628654424
C           13.55908152215755       -7.12308652034001        1.04533011447081
O           13.70048036616712       -7.77605170750746        2.24613095349409
C           13.39594096453173       -7.80803700710471       -0.17872040055166
O           13.38217372210224       -9.18857557042580       -0.14926357418552
C           13.25485414513599       -7.07098529008300       -1.37064271862129
O           13.09895054248812       -7.76501872123014       -2.55479338636307
C           13.27760275028617       -5.67559258275892       -1.33724979707633
C           12.29036391293346       -2.83593620609217        0.01282225627692
C           10.98271856909988       -3.44315141312492        0.12764998261138
C           10.09200496485586       -2.43008241853723        0.18108285683107
C           10.83584958174815       -1.19315617303840        0.10099163974742
N           12.14424815225105       -1.44500240393108        0.00017804134062
H            9.16469099106744        0.14052627351805        0.13293879001765
H            9.20076501293619        2.75952117857498        0.09310952995855
H           11.04903726654532        4.57385786692688        0.08164908186341
H           13.35328118062634        5.13219549124489       -1.99643173741980
H           13.35652405914173        8.69456748186657       -2.27265613208477
H           13.95295791574217        9.61620690885879        0.95018426910041
H           14.38094172977495        7.21369810561515        3.32067317647161
H           14.14393546049396        5.07859924337175        2.22296244738076
H           16.46889052369656        4.47985384296451        0.36380642254827
H           18.28628954600840        2.63032870147540        0.33196317361822
H           18.00168555516792       -2.62281159863676       -0.66988792696416
H           16.05383116452853       -4.48678418681003       -0.72269835454546
H           13.71002845699922       -5.18883514059075        1.99548061378589
H           13.67971595706490       -8.75210655112462        2.25966654638882
H           13.27047052904510       -9.66425463741041       -0.99410823638354
H           13.00700669146986       -7.25530379496046       -3.38194154793218
H           13.16507593754574       -5.12141239277964       -2.26292129279469
H           10.74013628896590       -4.49665737671127        0.16255222479976
H            9.02427269427885       -2.53357554188179        0.26527276700567
Cu          31.84064841758846        0.01467928860065        0.00902796890106
C           35.18578484401204       -0.10117898177656        0.09628616066610
C           34.51220171531610       -1.28504391974290       -0.06138194895246
C           35.16941227497566       -2.56584498394642       -0.20735298900281
C           34.20706928865683       -3.49717010765672       -0.32295945748206
C           32.92601243354130       -2.81623778957319       -0.24905450171778
N           33.14164033785336       -1.45557694430646       -0.08509772530908
C           31.70133659165729       -3.44922269130065       -0.28998981586132
C           31.68335004036808       -4.93219538729658       -0.45202764452606
C           31.89863135709099       -5.51279676980150       -1.70473827243743
C           31.87569846376838       -6.90644229450944       -1.85855619810686
O           32.08900630294929       -7.41519337308023       -3.11692271322265
C           31.64026781531733       -7.72727136228914       -0.73388884648098
O           31.63042020466004       -9.09476220639701       -0.92433027450904
C           31.42746132577345       -7.13449885580960        0.52591308639762
O           31.19977481749704       -7.95901792836937        1.60984626594060
C           31.44974835237126       -5.74670379050283        0.65720368801475
C           30.45305756516055       -2.78584520865072       -0.17294580446751
C           29.16185548932829       -3.43930641917089       -0.11868468569611
C           28.21830767695766       -2.47551993959785       -0.02347832940721
N           30.29813900971370       -1.46014104507222       -0.11565222574427
C           28.95294162562096       -1.23523435458130       -0.02698558696069
C           28.42948522146641        0.03355456209838       -0.00036644237051
C           29.11068497738967        1.27994858394412       -0.02942918917596
C           28.48923679121224        2.51188432504661       -0.20537728162381
C           29.48858889544857        3.47197580562299       -0.12366561751958
C           30.69369326001593        2.81048705781258        0.10079800490637
N           30.46510005920734        1.43773375155042        0.14624578640127
C           31.94802276046950        3.47967152685003        0.28684657986582
C           31.97996618797024        4.97289667892174        0.43584686418382
C           31.84907387815732        5.56140764657560        1.69764942487968
C           31.87443947728397        6.95689422180288        1.84591699312030
O           31.73301194609474        7.46945733654901        3.11295863698108
C           32.03760015054630        7.77612009560183        0.70733415036968
O           32.05132726411507        9.14437078829767        0.89306859880699
C           32.17868937066668        7.17901061213118       -0.56050440590901
O           32.33455070307630        8.00269092693880       -1.65836511009300
C           32.15603021569652        5.78893169397887       -0.68551902765305
C           33.14395786757157        2.81459546942782        0.33417919215665
C           34.45122589572451        3.40473413106231        0.51692389476209
C           35.34184791292052        2.39195448401976        0.45524803276452
C           34.59786090576246        1.17236589749227        0.23552596545311
N           33.28983794842107        1.43452681260620        0.16446133498245
H           36.26885115373308       -0.15658638791390        0.11604167213753
H           36.23310672107177       -2.75426091532537       -0.22033698413229
H           34.38478020436066       -4.55588381887371       -0.43741556413515
H           32.08025737576452       -4.87489612552428       -2.56540428935605
H           32.07700858920426       -8.38300136382430       -3.24368110004612
H           31.48056186801531       -9.66395605522463       -0.14599972223152
H           31.05258941816555       -7.54559106230129        2.48154527773346
H           31.28962712114665       -5.29988076489448        1.63284960793693
H           28.96416936795949       -4.49478112035547       -0.14651408215059
H           27.14876991913946       -2.65018837379755        0.03155583507561
H           27.43492686979298        2.67721160921283       -0.36794447763677
H           29.37933350643464        4.53859875346601       -0.20960327530247