134
 energy: -211.557707103817 gnorm: 19.377836028153 xtb: 6.5.1 (b24c23e)
Ni          19.49668100000000        1.95924900000000        1.63100400000000
C           15.74559000000000        0.06576500000000       -0.02863600000000
C           16.39522300000000        0.91896700000000        0.76847200000000
C           15.73051600000000        1.83760600000000        1.68481300000000
C           16.66072100000000        2.55076400000000        2.29207700000000
C           17.97295200000000        2.12977500000000        1.78196200000000
N           17.81115400000000        1.08559800000000        0.82107100000000
C           19.15836500000000        2.66006400000000        2.14854200000000
C           19.19222800000000        3.77354700000000        3.12443300000000
C           18.70442600000000        5.04065300000000        2.77376300000000
C           18.75262500000000        6.09250600000000        3.69247200000000
C           19.29368200000000        5.89805500000000        4.97325300000000
N           19.33013700000000        7.00137700000000        5.89724700000000
C           19.87154900000000        6.90383100000000        7.24876900000000
C           19.78910300000000        4.62577600000000        5.31874100000000
C           19.73950100000000        3.57400700000000        4.39935700000000
C           20.45750400000000        2.18154400000000        1.60692900000000
C           21.73430600000000        2.87562700000000        1.81474600000000
C           22.67876000000000        2.16589100000000        1.23147500000000
N           20.61366200000000        1.09190600000000        0.91942300000000
C           22.01177000000000        1.01137200000000        0.64222700000000
C           22.61855100000000        0.00000000000000        0.00000000000000
C           21.86793200000000       -1.13347600000000       -0.58449300000000
C           22.40966500000000       -2.30090200000000       -0.90788200000000
C           21.37759900000000       -3.09219500000000       -1.54930100000000
C           20.27463800000000       -2.35312100000000       -1.57959600000000
N           20.49430600000000       -1.08011600000000       -0.96991500000000
C           19.00408500000000       -2.76879700000000       -2.22721700000000
C           19.04263700000000       -3.86982400000000       -3.22042900000000
C           19.78835400000000       -3.72644800000000       -4.39909100000000
C           19.84538600000000       -4.76724800000000       -5.33044000000000
C           19.15949800000000       -5.97401100000000       -5.09322100000000
N           19.19823900000000       -7.06435900000000       -6.03240500000000
C           19.93496400000000       -7.01871200000000       -7.29112300000000
C           18.42192800000000       -6.11511500000000       -3.90725000000000
C           18.36622400000000       -5.07438900000000       -2.97640300000000
C           17.83532100000000       -2.16652700000000       -1.93483900000000
C           16.53494400000000       -2.46329700000000       -2.53339000000000
C           15.66264600000000       -1.68704200000000       -1.91982500000000
C           16.39739900000000       -0.88633800000000       -0.94190900000000
N           17.66428000000000       -1.15735600000000       -0.94180100000000
H           14.66199100000000        0.06874300000000       -0.01016600000000
H           14.66507500000000        1.92705100000000        1.85389600000000
H           16.46135700000000        3.30977000000000        3.03716000000000
H           18.28869800000000        5.21270000000000        1.78844700000000
H           18.36884200000000        7.06306600000000        3.40418300000000
H           18.95055800000000        7.92711900000000        5.59403400000000
H           20.94386300000000        6.61903100000000        7.20699400000000
H           19.30154800000000        6.14966100000000        7.83102800000000
H           19.78557700000000        7.88546700000000        7.76084100000000
H           20.21561500000000        4.43788000000000        6.29450000000000
H           20.12659900000000        2.60223300000000        4.68086300000000
H           21.89416300000000        3.80453000000000        2.34624500000000
H           23.73093400000000        2.41684100000000        1.21216900000000
H           23.43639200000000       -2.60365800000000       -0.75164700000000
H           21.49691700000000       -4.08976100000000       -1.95181100000000
H           20.32341500000000       -2.80572100000000       -4.59769100000000
H           20.42673900000000       -4.62222700000000       -6.23062200000000
H           18.67322200000000       -7.94088300000000       -5.81090700000000
H           19.54659200000000       -6.19560800000000       -7.92702900000000
H           19.80842800000000       -7.97761900000000       -7.83675200000000
H           21.01623200000000       -6.86521600000000       -7.09112000000000
H           17.89066700000000       -7.03596700000000       -3.70182100000000
H           17.79914500000000       -5.20780800000000       -2.06322000000000
H           16.30462900000000       -3.16892400000000       -3.32066600000000
H           14.59941900000000       -1.65530900000000       -2.11851400000000
Ni          29.14867300000000       -2.01921100000000       -1.55615500000000
C           32.89976400000000        0.01359600000000       -0.07042900000000
C           32.25013100000000       -0.95047300000000       -0.72914300000000
C           32.91483800000000       -2.04518000000000       -1.42570200000000
C           31.98463300000000       -2.79342300000000       -1.98917200000000
C           30.67240200000000       -2.20374000000000       -1.68963300000000
N           30.83420000000000       -1.03816400000000       -0.88028300000000
C           29.48698900000000       -2.67719500000000       -2.12715700000000
C           29.45312600000000       -3.87253300000000       -3.00087100000000
C           29.94092800000000       -3.80679400000000       -4.31396100000000
C           29.89272900000000       -4.93288000000000       -5.14000700000000
C           29.35167200000000       -6.14037000000000       -4.67077600000000
N           29.31521700000000       -7.28284400000000       -5.54589700000000
C           28.77380399999999       -8.58051600000000       -5.15580100000000
C           28.85625100000000       -6.19992300000000       -3.35376800000000
C           28.90585300000000       -5.07319700000000       -2.52795200000000
C           28.18785000000000       -2.04422100000000       -1.77834700000000
C           26.91104700000000       -2.39847800000000       -2.41036000000000
C           25.96659400000000       -1.67439800000000       -1.84499500000000
N           28.03169100000000       -1.13552200000000       -0.86497800000000
C           26.63358400000000       -0.84743300000000       -0.84686900000000
C           26.02680200000000        0.00000000000000        0.00000000000000
C           26.77742200000000        0.81773300000000        0.97862800000000
C           26.23568900000000        1.38806100000000        2.04736000000000
C           27.26775500000000        2.18668400000000        2.67963000000000
C           28.37071600000000        2.05498400000000        1.95175400000000
N           28.15104800000000        1.18222500000000        0.84245500000000
C           29.64126900000000        2.77770000000000        2.21610400000000
C           29.60271699999999        3.98722300000000        3.07388200000000
C           28.85700000000000        5.10620100000000        2.67677700000000
C           28.79996800000000        6.24221000000000        3.48927900000000
C           29.48585599999999        6.27402200000000        4.71872400000000
N           29.44711500000000        7.42848900000000        5.57787000000000
C           28.71039000000000        8.64691700000000        5.25867200000000
C           30.22342600000000        5.14741600000000        5.11520700000000
C           30.27913000000000        4.01191300000000        4.30266900000000
C           30.81003300000000        2.36095300000000        1.69214200000000
C           32.11041000000000        3.00983600000000        1.85115800000000
C           32.98270800000000        2.24167700000000        1.22748600000000
C           32.24795500000000        1.11261200000000        0.65945700000000
N           30.98107400000000        1.17164200000000        0.92396800000000
H           33.98336300000000       -0.00507800000000       -0.06930500000000
H           33.98027900000000       -2.22970600000000       -1.47609800000000
H           32.18399700000000       -3.68616700000000       -2.56731200000000
H           30.35665600000000       -2.88276100000000       -4.69685800000000
H           30.27651200000000       -4.86331300000000       -6.15008500000000
H           29.69479600000000       -7.18893400000000       -6.51549400000000
H           27.70149100000000       -8.47760400000000       -4.88697800000000
H           29.34380600000000       -8.98418600000000       -4.29275500000000
H           28.85977600000000       -9.29444100000000       -6.00204900000000
H           28.42973900000000       -7.11117200000000       -2.95749000000000
H           28.51875500000000       -5.13588000000000       -1.51816900000000
H           26.75119100000000       -3.11985700000000       -3.20090700000000
H           24.91442000000000       -1.71031400000000       -2.09411000000000
H           25.20896100000000        1.30165200000000        2.37691200000000
H           27.14843700000000        2.79716400000000        3.56533000000000
H           28.32193800000000        5.09911200000000        1.73490100000000
H           28.21861500000000        7.08905700000000        3.15133200000000
H           29.97213200000000        7.40358500000000        6.48160500000000
H           29.09876100000000        9.08789900000000        4.31664700000000
H           28.83692599999999        9.38863100000000        6.07541800000000
H           27.62912200000000        8.41824000000000        5.15251500000000
H           30.75468700000000        5.14786600000000        6.05869500000000
H           30.84620900000000        3.14984600000000        4.63212900000000
H           32.34072500000000        3.93211000000000        2.36799900000000
H           34.04593500000000        2.42865400000000        1.15316400000000
C           23.71171800000000        0.00000000000000        0.00000000000000
C           24.93363600000000        0.00000000000000        0.00000000000000
134
 energy: -219.167500828651 gnorm: 2.961634988150 xtb: 6.5.1 (b24c23e)
Ni          19.43209315292144        1.78233424135162        1.52799712654428
C           15.74571555757170        0.06447300425803       -0.02986648664650
C           16.39590322321975        0.91943785921894        0.76908923013876
C           15.72995629408113        1.83676927283780        1.68407081976348
C           16.66121618702325        2.55110894216326        2.29249719018304
C           17.95951999526658        2.12854195246302        1.78155664841603
N           17.80865455227411        1.08634204962804        0.82155024927465
C           19.08620991787677        2.80943347764209        2.25982056009513
C           19.19096628843885        3.77585460711064        3.12587440654865
C           18.70442744662932        5.04121050534434        2.77427525443097
C           18.75265070705511        6.09228110251500        3.69233587244567
C           19.29374592776770        5.89885055659175        4.97401879804075
N           19.32988069847329        7.00111918314301        5.89637751343762
C           19.87155786819313        6.90380127923381        7.24876328680931
C           19.78903717292282        4.62569271655163        5.31851455933666
C           19.73946867056900        3.57448222979300        4.39968758868115
C           20.60198622219878        2.21536607618744        1.60389642600906
C           21.73580154583856        2.87650317413892        1.81512949946521
C           22.67952221897865        2.16474919695483        1.23061713017393
N           20.62065763940178        1.08519037205642        0.91357032007007
C           22.00946077264921        1.01335931312978        0.64368903098738
C           22.60391417174862       -0.00208784956011       -0.00120019646900
C           21.86543740700527       -1.13211025711051       -0.58475075138405
C           22.40984410008242       -2.30303780770164       -0.90874353932421
C           21.37986347840117       -3.09281340799680       -1.54899749420733
C           20.27271010594049       -2.35163285789923       -1.57974911814850
N           20.49523027903536       -1.08091608786238       -0.96995697468858
C           19.00546988084132       -2.76858526024120       -2.22679933450328
C           19.04277771337404       -3.86983054979245       -3.22030753383575
C           19.78825398414994       -3.72687346831573       -4.39912893993122
C           19.84524951696976       -4.76723671719301       -5.33022391024493
C           19.15957158216153       -5.97463362050426       -5.09385343393150
N           19.19789358334227       -7.06420592476274       -6.03166964255814
C           19.93494916934747       -7.01868751226402       -7.29108248451032
C           18.42199468666920       -6.11489774717241       -3.90719739827379
C           18.36633138059638       -5.07446136323606       -2.97680674541522
C           17.83463568503349       -2.16588671467552       -1.93435731582013
C           16.53560781825482       -2.46367850831903       -2.53364389198678
C           15.66182652544125       -1.68644883256245       -1.91937068407921
C           16.39612764018313       -0.88566908582967       -0.94133746239629
N           17.66484998837542       -1.15818750816774       -0.94254626181281
H           14.66197878770819        0.06873749562227       -0.01024071615287
H           14.66510713975762        1.92692728410961        1.85377820961879
H           16.46163024259370        3.30979690423438        3.03714467083946
H           18.28869758061962        5.21266496358255        1.78845627097455
H           18.36884810925119        7.06309281852135        3.40419980239589
H           18.95086799394819        7.92628521021558        5.59421856423465
H           20.94357307372257        6.61907938858825        7.20706171344551
H           19.30175160913706        6.14984988232662        7.83090871999601
H           19.78557165290027        7.88514819465189        7.76058441559226
H           20.21561939344995        4.43790957679209        6.29451953523836
H           20.12658288816809        2.60221890193774        4.68084558344601
H           21.89393808960036        3.80459929104828        2.34632514272455
H           23.73089401286633        2.41668649066854        1.21203527245898
H           23.43635441172618       -2.60374990675164       -0.75161042420546
H           21.49698518419602       -4.08976364339328       -1.95175467069426
H           20.32340061128392       -2.80572531966167       -4.59766952257595
H           20.42673875449323       -4.62225905828119       -6.23066147002391
H           18.67365142143050       -7.94008676210845       -5.81102930083411
H           19.54675384109083       -6.19581391094412       -7.92689604302054
H           19.80842442976541       -7.97730961984602       -7.83649992525555
H           21.01596124806230       -6.86522504158120       -7.09123480769577
H           17.89066812896872       -7.03600738178626       -3.70184059972296
H           17.79915925099144       -5.20778796920542       -2.06322046579757
H           16.30482475434770       -3.16893108636982       -3.32063916457388
H           14.59938909975161       -1.65519631711552       -2.11841125766014
Ni          29.21326048330694       -1.88008311888234       -1.40597869075765
C           32.89963844687112        0.01507876577056       -0.06943661696075
C           32.24945077323455       -0.95117811037652       -0.72946784650503
C           32.91539769338389       -2.04427314811534       -1.42504739344966
C           31.98413783305682       -2.79390830445660       -1.98941692153332
C           30.68583401645245       -2.20307537385573       -1.68851811922578
N           30.83669945564468       -1.03879403196786       -0.88090453323907
C           29.55914438599393       -2.81838489193965       -2.24864688368983
C           29.45438771132412       -3.87444317947737       -3.00280849462257
C           29.94092655131454       -3.80741556820883       -4.31439329860719
C           29.89270329545642       -4.93269807097022       -5.13981722518682
C           29.35160806767506       -6.14129094401805       -4.67138528154647
N           29.31547330174810       -7.28193921927083       -5.54583513160811
C           28.77379515143352       -8.58050392614561       -5.15577322342262
C           28.85631682745341       -6.19968385176993       -3.35373614388896
C           28.90588532407393       -5.07362331997636       -2.52834362743877
C           28.04336780483783       -2.04864146258362       -1.81201580210023
C           26.90955149167416       -2.39904346235752       -2.41113139483953
C           25.96583175790740       -1.67331164793408       -1.84406788909243
N           28.02469536660699       -1.12834501028362       -0.85970125122942
C           26.63589321425872       -0.84929341128232       -0.84848939042787
C           26.04143894709223        0.00162683530955        0.00177564709569
C           26.77991660128357        0.81768652716912        0.97723890652416
C           26.23550987880205        1.38936782763138        2.04925639197425
C           27.26549051427186        2.18652273231522        2.68029971282336
C           28.37264388966616        2.05480871026365        1.95026830260371
N           28.15012372218852        1.18244054075167        0.84322664795021
C           29.63988412471110        2.77724619664012        2.21598848906134
C           29.60257627700345        3.98710591996390        3.07391490193898
C           28.85710002322958        5.10633083197887        2.67718393793183
C           28.80010447880359        6.24199664637988        3.48931511805225
C           29.48578243124072        6.27477504277559        4.71919364544021
N           29.44746042681655        7.42773795531941        5.57788107972131
C           28.71040482297780        8.64687211200601        5.25865694680878
C           30.22335930789351        5.14731727896151        5.11500646204397
C           30.27902261301347        4.01232280166479        4.30265150504590
C           30.81071831251521        2.36034320854791        1.69162224971787
C           32.10974618983575        3.01016702096300        1.85147491196971
C           32.98352746738007        2.24110421449188        1.22700626778522
C           32.24922635706442        1.11190826658079        0.65892890600748
N           30.98050401315039        1.17255074250072        0.92461685831825
H           33.98337521250720       -0.00500388482342       -0.06931593181407
H           33.98024685927452       -2.22956405206497       -1.47600296664554
H           32.18372375976050       -3.68615791643043       -2.56734160489686
H           30.35665642127374       -2.88276239736066       -4.69682178577692
H           30.27650589129581       -4.86333524948047       -6.15010750742104
H           29.69448600298072       -7.18893218370089       -6.51464002096189
H           27.70178091557079       -8.47768063918127       -4.88701044583081
H           29.34360238559300       -8.98411080579663       -4.29296536160727
H           28.85978134725095       -9.29412104382392       -6.00179387782788
H           28.42973460818157       -7.11119751357400       -2.95751460185460
H           28.51877111307609       -5.13585992468052       -1.51815904456560
H           26.75141590699153       -3.11995033114204       -3.20095713565064
H           24.91445998256326       -1.71014978112499       -2.09398839468532
H           25.20899860880295        1.30163636046288        2.37700966517843
H           27.14836881284187        2.79710961229322        3.56534488522607
H           28.32195239665417        5.09909198620545        1.73490991490709
H           28.21861524239666        7.08910252184600        3.15135467481630
H           29.97170257244314        7.40353061486543        6.48080125067059
H           29.09859916383890        9.08781418219555        4.31687695511152
H           28.83692957001848        9.38831749364304        6.07517107456856
H           27.62939275201808        8.41835401544176        5.15249877481426
H           30.75468586864060        5.14789394143446        6.05873012967669
H           30.84619475035243        3.14984208036380        4.63210935178049
H           32.34052924473892        3.93208534887525        2.36801176722617
H           34.04596490091958        2.42852914677271        1.15307645047489
C           23.72446092886054       -0.00015850545093       -0.00010431223238
C           24.92089296236999        0.00013638372143        0.00013192444116
134
 energy: -219.817120946162 gnorm: 1.863937271786 xtb: 6.5.1 (b24c23e)
Ni          19.37419593532840        1.74596963130932        1.51785925801022
C           15.74656193562306        0.05410844923582       -0.03943444461980
C           16.39535509058027        0.91825775280890        0.77330807897093
C           15.72232664856020        1.83019453903832        1.67781198895885
C           16.65515471102042        2.55131614868569        2.29969636539982
C           17.90708277557415        2.12739192282425        1.78078470073394
N           17.78096983165548        1.09950453236035        0.82312459149072
C           19.08376035161992        2.79743299348570        2.25376296807104
C           19.19058841810017        3.79646749876671        3.14105845413160
C           18.70149480734023        5.05618585902861        2.78120389856718
C           18.75320337000331        6.09447054732696        3.69304410704009
C           19.29430502605955        5.90567010019290        4.98024442263162
N           19.32844148259493        6.99812327002697        5.89026606389384
C           19.87089795027475        6.90317586331771        7.24626635108187
C           19.78882100029734        4.62739097891435        5.31941985506083
C           19.74298954930225        3.58240145346304        4.41056498887995
C           20.65314122381810        2.24223074208191        1.61815846771684
C           21.74852060615431        2.89880905560300        1.82702897440505
C           22.69173413979616        2.15446698541138        1.22171174812256
N           20.66251192528650        1.07317127021467        0.89991508685044
C           21.99087776525884        1.03066273446217        0.65223898832229
C           22.52243956905654       -0.01505117365797       -0.00884604359067
C           21.83526037636239       -1.12958634089127       -0.59114671215396
C           22.40918206039914       -2.32023724157832       -0.91690004902249
C           21.39721863399959       -3.09740786814680       -1.54795430681471
C           20.26215149651159       -2.34021965813524       -1.58059562242966
N           20.49496165450878       -1.08875734763663       -0.97318616464326
C           19.01586245835343       -2.76441191080028       -2.22244182121368
C           19.04595524666551       -3.86964194547627       -3.21781642526603
C           19.78738109912523       -3.73136043662554       -4.39885744683528
C           19.84344620003181       -4.76887669868558       -5.32905500113309
C           19.15988393538420       -5.97971673284118       -5.09865512909008
N           19.19569307893435       -7.06162062759803       -6.02577373111956
C           19.93363629047609       -7.01793476828359       -7.28837748241441
C           18.42304564836193       -6.11354966657213       -3.90835602035240
C           18.36739970051576       -5.07430051584564       -2.98085610257413
C           17.83148930878274       -2.16180243557284       -1.93124003789316
C           16.53908782741169       -2.46483366949327       -2.53401569263149
C           15.65445493155744       -1.68185888155063       -1.91587381480380
C           16.38668727808857       -0.88245956894751       -0.93765729760846
N           17.66577496897115       -1.16475003484015       -0.94919087143851
H           14.66219759686155        0.06780932151246       -0.01266208773452
H           14.66314255043598        1.92407011803483        1.85073481831584
H           16.46532737354309        3.31155725910579        3.03832083703095
H           18.28905350695279        5.21311704164155        1.78977407836568
H           18.36899623685812        7.06419023185184        3.40456014351061
H           18.95445479379654        7.91574323266269        5.59545227074974
H           20.93967876923404        6.61964588463134        7.20804251748825
H           19.30471159223062        6.15235589306070        7.82929953802131
H           19.78538380084751        7.88084288929443        7.75656454679965
H           20.21559839950849        4.43848316145836        6.29510909270940
H           20.12600375878329        2.60335814958047        4.68085599539497
H           21.89523965394830        3.81209742261604        2.35092205291859
H           23.73484427812829        2.41145475071764        1.20746290422771
H           23.43628558959375       -2.60626440393856       -0.75111427278996
H           21.49985309085254       -4.09140032198880       -1.95104519527263
H           20.32263118413368       -2.80697291110986       -4.59730021099853
H           20.42625654046628       -4.62278047934906       -6.23065520117053
H           18.67836996868339       -7.92999904391224       -5.81147506173402
H           19.54899673355685       -6.19853180895037       -7.92504451927780
H           19.80799463255929       -7.97300853484677       -7.83250337427339
H           21.01216508926129       -6.86521015677039       -7.09285499485436
H           17.89090259676918       -7.03597606875761       -3.70212083857678
H           17.79992641977640       -5.20743991759231       -2.06426359075161
H           16.30858698816408       -3.16932007973747       -3.32040638306690
H           14.59688528405403       -1.65295753657451       -2.11677587584812
Ni          29.27116784951940       -1.86224106926497       -1.37268541229104
C           32.89879217737777        0.02667785252488       -0.06140945797815
C           32.24999941023561       -0.95503810992602       -0.72739588291597
C           32.92302789265301       -2.03673085801970       -1.41999678794448
C           31.99020063368555       -2.80097961525834       -1.98804793780879
C           30.73826299628117       -2.20207135854016       -1.68756453588443
N           30.86438523034962       -1.04320085288203       -0.89340615781925
C           29.56164227307510       -2.80988734983077       -2.23828246288245
C           29.45476269660740       -3.89375681615134       -3.01960914621347
C           29.94385947910730       -3.81744477475670       -4.32749642857578
C           29.89215059518459       -4.93386709853705       -5.14179944558929
C           29.35104895713447       -6.14885411224293       -4.67668157982261
N           29.31691255380917       -7.27532209104452       -5.54424574837516
C           28.77445517199384       -8.57793080350709       -5.15570752985872
C           28.85653307659916       -6.20093812827028       -3.35519617040584
C           28.90236432769463       -5.08596676775681       -2.53369845007028
C           27.99215747754126       -2.06839742636787       -1.83510829825090
C           26.89683684894523       -2.41552578591323       -2.43030492086713
C           25.95361960480111       -1.66237674707325       -1.83597610344429
N           27.98284229775308       -1.11240194171275       -0.85095664258005
C           26.65447576651348       -0.86141275559006       -0.86350998887776
C           26.12291357217571        0.01191718927127        0.01275823439331
C           26.81009346419772        0.82337755327114        0.97338021426124
C           26.23617171723648        1.40108063222550        2.06426171399120
C           27.24813552113938        2.18650722366597        2.68501094287042
C           28.38320252160119        2.05314451295291        1.93894550386771
N           28.15039233894090        1.18730283097237        0.85017432033208
C           29.62949148757896        2.77208310463931        2.21286644309024
C           29.59939867121893        3.98463387470767        3.07427441689921
C           28.85797294244540        5.10704464957318        2.68162204894957
C           28.80190780208152        6.24121363745526        3.49117045631667
C           29.48547015747784        6.28057009752595        4.72310673325537
N           29.44966102648776        7.42141996022981        5.57664468734810
C           28.71171763729946        8.64406797266435        5.25851260339663
C           30.22230831838849        5.14815395308033        5.11343807168053
C           30.27795422734318        4.01623948387489        4.30161080181309
C           30.81386470853092        2.35640974155313        1.68831656110456
C           32.10626620569601        3.01078195956490        1.85252104384249
C           32.99089904460602        2.23669015077102        1.22329004137373
C           32.25866671608858        1.10761634221800        0.65659964459841
N           30.97957899652311        1.18046726523202        0.92957151514618
H           33.98315644497500       -0.00243830907896       -0.06893846473005
H           33.98221162111685       -2.22597052720058       -1.47387872161942
H           32.18002675548893       -3.68768988957985       -2.56880290205816
H           30.35630048753264       -2.88414699017667       -4.69697549528868
H           30.27635775293802       -4.86392641559156       -6.15109988867814
H           29.69089922723387       -7.18783596691896       -6.50408300307726