390
 energy: -650.736408473419 gnorm: 0.000727016582 xtb: 6.5.1 (b24c23e)
C           55.82580014585224        0.05145728987252        0.08346049431448
C           56.44101431353003        1.22834440821006        0.49000567061734
C           55.79520460097442        2.41687108092008        0.93239730114401
C           56.76164056094547        3.33880417246039        1.22161990675221
C           58.02943072995670        2.74614040818947        0.95808247631234
N           57.78494666526692        1.47180465365192        0.52974672323728
C           59.29434149628787        3.32240616332398        1.11915008546430
C           59.33384717004831        4.73854639559885        1.55989509546017
C           58.79021081155038        5.71852110569943        0.82240648002676
C           58.80526589276829        7.16179093475990        1.25445254216924
N           59.77356760075588        7.38304296173181        2.33161427455212
C           60.15144661124727        6.35534898734909        3.15521372025069
C           59.99400817878470        5.06352461905863        2.81586791375249
C           60.50586669783462        2.66413711774599        0.89518398379831
C           61.80664282610325        3.29348254372376        1.03489588338401
C           62.72285682796328        2.34949946704150        0.73622923517085
N           60.65381219416384        1.36894878518378        0.50163512841334
C           61.98045024042676        1.14867423304406        0.40400899624393
C           62.61092696487188       -0.05714759642250        0.03617381913925
C           61.96945345146329       -1.24936242776559       -0.35049306050804
C           62.60819170786974       -2.46409779604173       -0.71521060182244
C           61.63688769905464       -3.37080148509324       -1.03828550173407
C           60.37395464802736       -2.73510844462147       -0.88512127115896
N           60.62721017053506       -1.45634964739228       -0.46241449650223
C           59.11024504864643       -3.29943306455183       -1.09022217560809
C           59.07826899795974       -4.70173269634995       -1.57074134271759
C           58.49835483563743       -5.67876985744653       -0.85752277440213
C           58.44082806660126       -7.10588875841714       -1.33640518709142
N           59.39541962923376       -7.34000926292900       -2.42343291718040
C           59.81156592883361       -6.30573335583844       -3.22056623296065
C           59.71489703587710       -5.01911243675359       -2.84157109743003
C           57.89703473375981       -2.63723589956757       -0.87449173493297
C           56.58875323816207       -3.21629307141017       -1.13646056620016
C           55.68026322761253       -2.27923942126186       -0.79726391289720
C           56.43226172559615       -1.12299966655451       -0.34365256913777
N           57.76295716993004       -1.37146188048464       -0.41101231103727
H           54.74046555840961        0.06192637922093        0.09765759593803
H           54.72684127331985        2.53625997316257        1.01854060671607
H           56.61613414829487        4.33979307296890        1.59415913210949
H           58.50701023997189        0.80471402326806        0.27903251921400
H           58.30041390969402        5.51696668444492       -0.12324760228826
H           57.79550717408299        7.47272345300537        1.58241024005982
H           59.08387823184651        7.80641952563512        0.40966785914191
H           59.71265627856023        8.29747557174034        2.75522002178035
H           60.66122235916311        6.66393284790790        4.06232272053127
H           60.34304655470117        4.26590480156332        3.45600017466833
H           61.97318731172265        4.32066401814938        1.31638923871597
H           63.79781621799355        2.43392588229086        0.72573025339062
H           63.67555014493566       -2.61586052607275       -0.72295026142524
H           61.77849469040978       -4.39286949426311       -1.34986709621523
H           59.90855866992923       -0.77075056433626       -0.25480546315835
H           58.02654415254156       -5.48452517425099        0.09856873305440
H           57.41636435269082       -7.35485549567128       -1.67117536440949
H           58.68850793759020       -7.79095396477651       -0.51431990181947
H           59.28571207586293       -8.23585112803867       -2.87626832074565
H           60.30017860770715       -6.60916833054745       -4.14101265310133
H           60.09232517433017       -4.21925305162823       -3.46276236076255
H           56.41384984260427       -4.20162298131268       -1.53755664284211
H           54.60385977433389       -2.33188179954101       -0.84907508083350
C          155.58285619731203       -0.10027663030298        0.06746353791503
C          154.96768051740241       -1.31235789319698       -0.21757617612684
C          155.61254799919362       -2.55935910763480       -0.45105181095658
C          154.64669351368465       -3.49183222357049       -0.70641842333542
C          153.38041134702928       -2.84308164180480       -0.64583411770592
N          153.62486359713597       -1.53432306814842       -0.33822995333685
C          152.11637425217697       -3.41189312627722       -0.83717589690410
C          152.07675792442706       -4.85002904829807       -1.19981032695605
C          152.64257376043145       -5.30635946237949       -2.32734038075862
C          152.62816261869634       -6.76371495787973       -2.70931709704829
N          151.63967020352715       -7.50828107201015       -1.92485424389330
C          151.23682182609886       -7.05644426948481       -0.69572559341017
C          151.39203261332614       -5.77721789852206       -0.31075716329413
C          150.90539885445946       -2.72691580099636       -0.71195509032417
C          149.60676188804234       -3.32881812323632       -0.95462953718860
C          148.69037846499472       -2.36304442886937       -0.73715222837734
N          150.75647810032444       -1.41683934347965       -0.37180009756641
C          149.43075350589439       -1.17073331476364       -0.37141273327083
C          148.79943349890621        0.05094974416646       -0.06210836476961
C          149.44020872736948        1.26323762774361        0.25751757551554
C          148.80040233439379        2.48936408560652        0.57975026863375
C          149.77162864871607        3.42392645175967        0.81043497264610
C          151.03569322622184        2.79759611912146        0.63039723816125
N          150.78295905961662        1.49109453881243        0.30289902716905
C          152.29937042656744        3.37822962229281        0.78350204350609
C          152.33179550829672        4.82066291588743        1.12498316073111
C          152.89187514971397        5.26357013062965        2.26067418790497
C          152.94950131756016        6.72571964393377        2.61848208620708
N          152.01417626213708        7.50830117804069        1.80583025365392
C          151.62013155763074        7.06112269626648        0.57169189892266
C          151.71776132939391        5.77033890088491        0.20734415961089
C          153.51250740700414        2.69692484875745        0.63822343386471
C          154.82165072243109        3.32118481540067        0.74769851221512
C          155.72971743239552        2.34306693788353        0.55487846910041
C          154.97690106154243        1.12530381410312        0.31307114627579
N          153.64609444635639        1.37745477072545        0.36242443362229
H          156.66778272566623       -0.12138881739420        0.09486172220756
H          156.67980633964589       -2.71106767865028       -0.41910575748376
H          154.79154086376906       -4.54030929063419       -0.91049190028260
H          152.90342766967618       -0.83154458643029       -0.21623875113618
H          153.15113005275947       -4.64508280718212       -3.01934122996599
H          153.63306860171599       -7.20481443377152       -2.56992476908306
H          152.37114888839361       -6.87356219272996       -3.77173754756044
H          151.69867330131265       -8.50994335528514       -2.03676571051758
H          150.71017786213460       -7.78905691472470       -0.09251178524633
H          151.02344704854156       -5.42672719281662        0.64270910094573
H          149.44195603227357       -4.35024425507227       -1.25731327639405
H          147.61668956657883       -2.42330242434624       -0.81678115619109
H          147.73235049150483        2.62759267000997        0.62977110418884
H          149.62904945592231        4.45589855363114        1.08694155903673
H          151.50208501675328        0.79617470478780        0.13096882311567
H          153.34651178745040        4.58675095574599        2.97458902035089
H          153.97852876487079        7.11004025274614        2.48816534479275
H          152.68196334574023        6.86752797479866        3.67431983711146
H          152.12655617031493        8.50704588942708        1.90333953965413
H          151.14736762494414        7.81133757196714       -0.05417404855847
H          151.35766572136819        5.42734572216644       -0.75223430086673
H          154.99752573164596        4.36853793472727        0.93335444423149
H          156.80652853757337        2.41059635316572        0.55877651027119
C           64.01679986057930       -0.08360811498638        0.04572766262198
C           65.24111002090945       -0.10784918625583        0.05735597341977
C           66.58399775031202       -0.12648964264613        0.07037921612026
C           67.81456638174750       -0.13971703514618        0.07962873904249
C           69.15282923589170       -0.14719809113357        0.08710659698770
C           70.38356340862146       -0.14897614347128        0.09072679640188
C           71.72640483632689       -0.14464873458088        0.08920169335505
C           72.95115548954138       -0.13567566810076        0.08065624213118
C           82.62718688811462        0.03113937340035       -0.02283274770539
C           83.85262609826944        0.02879876735822       -0.02515772672007
C           85.19416668711338        0.02187114000640       -0.02129176419428
C           86.42555904555914        0.01178046301590       -0.01011734624205
C           87.76236201174451        0.00012985799526        0.00203196059802
C           88.99372541820073       -0.01254383269433        0.01440857684172
C           90.33519394478557       -0.02315580655141        0.02210249335864
C           91.56064003002801       -0.03078940309296        0.02432042128185
C          101.23818990140929        0.01741021807673       -0.03475482984931
C          102.46367296653634        0.01137153637790       -0.03174385607049
C          103.80509852464262        0.00226907180940       -0.02325401814529
C          105.03643409959471       -0.00921674275767       -0.00878199858198
C          106.37314982727735       -0.02047479692021        0.00568122592609
C          107.60457874745525       -0.03141934725220        0.01837834968901
C          108.94598026037794       -0.03824829742293        0.02954516799192
C          110.17150590075774       -0.03769394426524        0.03427014657826
C          119.84920360784227        0.01251753648383       -0.03133584134986
C          121.07463500224156        0.00275563306069       -0.02944698800482
C          122.41607291747405       -0.01162503704783       -0.02268764750849
C          123.64743361348394       -0.02456001215406       -0.01006179273784
C          124.98422341828071       -0.03792821119845        0.00253066228600
C          126.21559080683286       -0.04679080703236        0.01615369955162
C          127.55712873896540       -0.05220492367735        0.02345223321487
C          128.78256408882956       -0.05492860405616        0.02461191653886
C          138.45889721726920        0.11583036750847       -0.04318776341383
C          139.68361471722466        0.12604537771856       -0.05491434230485
C          141.02645034402718        0.13099875945765       -0.06338545642837
C          142.25717340235562        0.13031518536994       -0.06831903807810
C          143.59546935165665        0.12363678077501       -0.07218482137603
C          144.82608693262793        0.11280247057216       -0.07447290453588
C          146.16909709880059        0.09716321588197       -0.07447364770220
C          147.39351539257163        0.07607668942674       -0.07133057712756
C           74.35604129814905       -0.12164967358882        0.06685744381802
C           74.99866183795586       -0.32169664426104        1.30394327996640
C           74.36680170633967       -0.51250792911826        2.55988639235354
C           75.34529946234390       -0.64172083904026        3.50754808841357
C           76.60403774103435       -0.54236889831022        2.85497179052197
N           76.34317925527908       -0.34610939082625        1.52473224727697
C           77.87106540409202       -0.60297766969893        3.44629852548324
C           77.91120529509436       -0.83803831437801        4.91158812269463
C           77.44822542391560       -1.97300589169931        5.45633589872733
C           77.53280869800119       -2.25176887458696        6.93410334507243
N           77.78058909015628       -1.02204789105938        7.69116352988589
C           78.39746222364208        0.05013057259944        7.10180609393159
C           78.46596227882748        0.20038950320338        5.76711412975678
C           79.08701901576022       -0.46239507714580        2.77660431964260
C           80.38038352285905       -0.59491793128576        3.42245920116542
C           81.30897278215696       -0.42229580473657        2.45904847912297
N           79.25141659755030       -0.22220177528315        1.44604823152969
C           80.58105305965042       -0.18849271182442        1.22745950434807
C           81.22374672710768        0.03010390146423       -0.00862124328815
C           80.58053817543886        0.23822869026137       -1.24459872999366
C           81.21188605833241        0.43343129796370       -2.49995556460402
C           80.23286900002624        0.57620353939272       -3.44524592572765
C           78.97438476174740        0.47920388330673       -2.79179643636435
N           79.23610615153645        0.27185161820003       -1.46318880234792
C           77.70731021576047        0.54829685286125       -3.38176350636358
C           77.66780757797497        0.80160356459521       -4.84396635429803
C           78.13402334180402        1.94279289865801       -5.37292249009378
C           78.05072519008152        2.24248980339500       -6.84659989763779
N           77.79915580732420        1.02431529280901       -7.62085261188703
C           77.17987034479013       -0.05455849711114       -7.04648994361137
C           77.11096062757024       -0.22348750506380       -5.71402055116262
C           76.49114934668113        0.39964344562668       -2.71337762685006
C           75.19732601566575        0.53217965471308       -3.35860968392740
C           74.26914485602487        0.34468095026837       -2.39765232304780
C           74.99748249930644        0.10489749293097       -1.16746110479831
N           76.32763903866369        0.14731660267044       -1.38549996656958
H           73.29965467468571       -0.53831786421775        2.71088779718900
H           75.21087418099061       -0.78434128496855        4.56733158889088
H           77.05342656480903       -0.22616079754550        0.81025530988451
H           77.05807566553121       -2.78052763306132        4.84773831183723
H           78.33001324812837       -2.99107817194670        7.13854236151139
H           76.58918623933671       -2.68615755847235        7.29117739663346
H           77.98998651776334       -1.17775816989528        8.66660969204043
H           78.74995272806275        0.80792630752172        7.79419297213096
H           78.88855146926376        1.08934143126332        5.32105166795537
H           80.53388058452278       -0.80567996414430        4.46859853149723
H           82.38339133385385       -0.45087831705981        2.54591673038264
H           82.27898643330749        0.45380541870997       -2.65218537600763
H           80.36675206838191        0.72578428966768       -4.50414216152689
H           78.52618764842278        0.15135386835448       -0.74847342418424
H           78.52607201719123        2.74070814091930       -4.75296824726512
H           77.25599191911408        2.98716670951768       -7.04084235397326
H           78.99584836860473        2.67883705170768       -7.19731714650659
H           77.58988285668842        1.19434472174061       -8.59393041965971
H           76.82567887604691       -0.80174654956136       -7.74945689592632
H           76.68665938104445       -1.11791148224733       -5.28071962944581
H           75.04310446363370        0.75220458099596       -4.40272879988328
H           73.19461930629390        0.36837438639433       -2.48474583219535
C           92.96402814130461       -0.03913097543317        0.01716648154209
C           93.59918526407104       -0.25337083394781        1.25645270688805
C           92.95985023083126       -0.44036567525062        2.50887812096120
C           93.93290179968656       -0.58899254280837        3.45959825200982
C           95.19522484147710       -0.50507602112597        2.81221399430533
N           94.94215131151400       -0.29879394655088        1.48182530543428
C           96.45903701056677       -0.58545816523563        3.40827992060361
C           96.48976365934081       -0.82917792393812        4.87236689159019
C           96.01042129779479       -1.96157253314805        5.40829043852214
C           96.08571679697340       -2.25033434155918        6.88462450112579
N           96.34452652628079       -1.02816863548365        7.65016286968426
C           96.97716905848958        0.03984427622823        7.06998680431995
C           97.05348766643979        0.19719078266647        5.73653180206038
C           97.67962334761152       -0.45613651555129        2.74483097292068
C           98.96842491156970       -0.60476455600547        3.39619449353824
C           99.90339149812431       -0.43649369608236        2.43816672518410
N           97.85289222980144       -0.21209865583117        1.41601323617101
C           99.18386503336362       -0.19071339315723        1.20406952087957
C           99.83483675113509        0.02469590316971       -0.02825135476119
C           99.19969346220165        0.23747475023575       -1.26781304941076
C           99.83897631690543        0.42290604062339       -2.52050155819152
C           98.86589208890911        0.57249475243645       -3.47103211819399
C           97.60358793481613        0.49076592988638       -2.82328876358523
N           97.85674358121041        0.28431421628640       -1.49291664525849
C           96.33978113298213        0.57388856341615       -3.41896584647688
C           96.30932124760432        0.82064317974616       -4.88251791077863
C           96.79195542392115        1.95291525556052       -5.41581583645879
C           96.71736491931982        2.24560705448206       -6.89138839062473
N           96.45392822902156        1.02632136978795       -7.65992403803943
C           95.81844902136751       -0.04127992033845       -7.08214912046400
C           95.74230591676503       -0.20187388817154       -5.74905941141233
C           95.11909374105886        0.44536370092628       -2.75539985600947
C           93.83030289942722        0.59676085345357       -3.40612935263605
C           92.89536720541184        0.42734545129211       -2.44825416932995
C           93.61488908161417        0.17830197143652       -1.21482840664358
N           94.94588921294631        0.19895044368318       -1.42705408221753
H           91.89187962429682       -0.45096426803639        2.65584636031808
H           93.79235512259635       -0.73475534499957        4.51815935097430
H           95.65674516471175       -0.18632666981909        0.77045907241223
H           95.61288271036055       -2.76049522663993        4.79316669007598
H           96.87354191536303       -3.00001134989234        7.08768804305718
H           95.13572583219670       -2.67597785101165        7.23524194284389
H           96.54770709046932       -1.19221674357647        8.62556432629249
H           97.33574521923488        0.78915847806734        7.76844727367855
H           97.48888286753414        1.08356002922240        5.29771354776974
H           99.11484480769118       -0.82190964813043        4.44203807740199
H          100.97704355452331       -0.47611473193774        2.53006757333035
H          100.90692304854872        0.43186404337657       -2.66774097784875
H           99.00638947241380        0.71743706879324       -4.52971160164154
H           97.14218098455900        0.17320886389130       -0.78130528708562
H           97.19196132159912        2.74913416151616       -4.79878281160159
H           95.93224019576789        2.99865576442125       -7.09239992559518
H           97.66882553740005        2.66869673945671       -7.24114988389849
H           96.25078204758313        1.19352227959353       -8.63479208950455
H           95.45727276638168       -0.78770087919569       -7.78236580352774
H           95.30456525283904       -1.08813989615080       -5.31237777626319
H           93.68382586968050        0.81633225298658       -4.45145647356986
H           91.82173736699902        0.46824487152703       -2.53983647385835
C          111.57484635616915       -0.04591141208365        0.02541598027842
C          112.21081436999499       -0.25827816979186        1.26453211776710
C          111.57219599830472       -0.44493675913910        2.51737004534136
C          112.54581446669587       -0.59117133656525        3.46784532359999
C          113.80778494899039       -0.50594740423593        2.81990063567887
N          113.55390314433656       -0.30127053656800        1.48939075142096
C          115.07187636617827       -0.58446357358009        3.41546574521494
C          115.10337918536861       -0.82695869437844        4.87973940211293
C          114.62545716196304       -1.95946251414401        5.41669866806858
C          114.70140640291550       -2.24684789833620        6.89326304500832
N          114.95833628667685       -1.02356208898004        7.65763923614697
C          115.58983255351988        0.04462772680347        7.07651955959640
C          115.66607211082368        0.20079311202498        5.74291946442772
C          116.29211871741798       -0.45511451276033        2.75131025497435
C          117.58122865760815       -0.60305753662506        3.40217858545457
C          118.51570088110040       -0.43642040749622        2.44337332638796
N          116.46465970848165       -0.21258307708258        1.42217471105428
C          117.79557094781775       -0.19193024347636        1.20938467109395
C          118.44582015489443        0.02207318305789       -0.02352821170938
C          117.80993102778538        0.23605628744174       -1.26248897918233
C          118.44841901182637        0.42258358075015       -2.51540086111186
C          117.47472639326361        0.57362386998982       -3.46509755709452
C          116.21284477548940        0.49145686244708       -2.81660251195334
N          116.46682109943526        0.28371953274277       -1.48662357473333
C          114.94861919420248        0.57458102136434       -3.41153514653146
C          114.91736758923230        0.82242209156149       -4.87490750770609
C          115.39881762856055        1.95547861121417       -5.40760021964681
C          115.32348603231554        2.24918959390118       -6.88294122726878
N          115.06003898732392        1.03041789108608       -7.65229678595847
C          114.42591462142722       -0.03819443402396       -7.07493941284510
C          114.35083468663100       -0.19995564842502       -5.74193080467712
C          113.72836056983155        0.44429212147573       -2.74759928131328
C          112.43912283311622        0.59440463699933       -3.39775827722193
C          111.50473389309030        0.42251491019329       -2.43978667822851
C          112.22498450677116        0.17334706751343       -1.20677203074344
N          113.55584174792482        0.19624096802265       -1.41940740238048
H          110.50428869788708       -0.45706530142647        2.66472732646899
H          112.40586665603114       -0.73616196894617        4.52659137999038
H          114.26802340445165       -0.18839444905038        0.77761432436916
H          114.22867482278906       -2.75933711878042        4.80232530318079
H          115.49045007994309       -2.99509043630850        7.09690049403442
H          113.75212996656559       -2.67367514652231        7.24436561289597
H          115.16151242345042       -1.18637671664531        8.63324897711518
H          115.94747964230353        0.79501721529288        7.77430043500727
H          116.10053990836022        1.08720424623864        5.30326824736367
H          117.72815198546424       -0.81877250445004        4.44824773205907
H          119.58939013845628       -0.47616752997530        2.53473604034588
H          119.51627112199337        0.43140021873550       -2.66335408630152
H          117.61455532771726        0.71977882818327       -4.52369931883193
H          115.75272018017051        0.17202176130811       -0.77464185759942
H          115.79842905456033        2.75158775290078       -4.79016764761880
H          114.53807331829647        3.00216510039446       -7.08307275082839
H          116.27467711017626        2.67281260523491       -7.23281474626853
H          114.85603307198414        1.19829126133412       -8.62686721156704
H          114.06484270860116       -0.78432858270758       -7.77551645713727
H          113.91418469057326       -1.08697391851943       -5.30568699693035
H          112.29199713329319        0.81477664362120       -4.44282566506593
H          110.43102240952007        0.46177367355975       -2.53103549012265
C          130.18606508074490       -0.05286102639955        0.01582653919690
C          130.82462418818113       -0.26120033866578        1.25418732532379
C          130.18846827321278       -0.45795901026233        2.50687861816144
C          131.16382147317071       -0.59851587509503        3.45626410917859
C          132.42484322772378       -0.49860662365819        2.80813229255614
N          132.16821045823326       -0.29202214828781        1.47839417098416
C          133.68955030592113       -0.56428036277997        3.40354024079549
C          133.72329636573755       -0.81490380463999        4.86638089171247
C          133.25799880963078       -1.95632619433454        5.39561354809460
C          133.33545324870548       -2.25245168732079        6.87034952969500
N          133.57818888043755       -1.03145926025645        7.64297217605625
C          134.19743578013728        0.04786784615404        7.06933181842340
C          134.27293328967056        0.21374553107119        5.73684181559648
C          134.90830234858890       -0.41448199214279        2.74009699845842
C          136.19965011195890       -0.54426409978070        3.39087769367475
C          137.13156077246092       -0.35834665596075        2.43319779080401
N          135.07696421376988       -0.16457933742799        1.41243691902779
C          136.40797936346721       -0.12167830648462        1.19962282958697
C          137.05394968637248        0.10305814067784       -0.03256056995449
C          136.41582501286376        0.30281574451017       -1.27209044865815
C          137.05247216560906        0.49311142522694       -2.52569078745155
C          136.07760222488201        0.62379790604077       -3.47685515596285
C          134.81639441982591        0.52560480316063       -2.82891359693973
N          135.07215905208085        0.32845024312742       -1.49781881382088
C          133.55166941778694        0.58814141615439       -3.42498410918003
C          133.51765794969057        0.82634029886393       -4.88987956919975
C          133.98549964372552        1.96149551066991       -5.43013315376244
C          133.90792102307162        2.24392827752768       -6.90756706827749
N          133.65929844926907        1.01681056500366       -7.66856181158275
C          133.03785362963598       -0.05538119993153       -7.08411244990952
C          132.96400224367025       -0.20879784861734       -5.75005865679287
C          132.33313700321372        0.44680501025635       -2.76016039585026
C          131.04218739348920        0.58060907904784       -3.41054750899685
C          130.11002326378707        0.40526898471230       -2.45108031958201
C          130.83336208047064        0.16878891875248       -1.21730624835098
N          132.16379512420897        0.20367192576966       -1.43075219757536
H          129.12078917271785       -0.48078355232062        2.65462995213648
H          131.02578933634797       -0.74852504156306        4.51456548581811
H          132.88084953188977       -0.16987899691275        0.76667618451203
H          132.87109326370614       -2.75671544693050        4.77562312561693
H          134.13233763425939       -2.99337334115295        7.07010214615195
H          132.39047303529421       -2.69189457761921        7.21751749687486
H          133.78272961544025       -1.19841511225062        8.61759540213665
H          134.54558923209373        0.79783541746431        7.77235285847734
H          134.69694149374973        1.10832825041484        5.30357932116824
H          136.34976437486992       -0.76160577744336        4.43616333055112
H          138.20577495262739       -0.38084402410569        2.52451096015953
H          138.12016755837573        0.51778708109913       -2.67289376776204
H          136.21612906417835        0.76651906088556       -4.53608995997376
H          134.35917821789411        0.20898254528495       -0.78599201119181
H          134.37499761452804        2.76669315988477       -4.81803986254646