194
 energy: -370.479374671039 gnorm: 0.705834630667 xtb: 6.5.1 (b24c23e)
C           25.28689000000000       -0.03012000000000       -0.15841600000000
C           26.01920500000000       -1.39521500000000        0.01941200000000
C           25.41912300000000       -2.63333300000000        0.04318200000000
C           26.44251100000000       -3.58618200000000        0.28562900000000
C           27.63217400000000       -2.89509400000000        0.41036200000000
N           27.36916700000000       -1.56622900000000        0.19115800000000
C           29.04930800000000       -3.50651600000000        0.76791800000000
C           29.08211000000000       -4.89332300000000        1.28375400000000
C           29.38349900000000       -5.95777200000000        0.42310300000000
C           29.40845900000000       -7.26791700000000        0.90394000000000
C           29.12710900000000       -7.50736100000000        2.25615500000000
N           29.15080100000000       -8.88216000000000        2.76753100000000
O           29.42025100000000       -9.79571700000000        1.97190400000000
O           28.89807900000000       -9.06227500000000        3.96908300000000
C           28.82272400000000       -6.45121100000000        3.12600400000000
C           28.80124100000000       -5.14535600000000        2.63323000000000
C           30.18017000000000       -2.76051300000000        0.65029100000000
C           31.47961000000000       -3.27278300000000        1.03535300000000
C           32.38249800000000       -2.32020600000000        0.83400100000000
N           30.38002400000000       -1.47902200000000        0.21131500000000
C           31.70872700000000       -1.15390600000000        0.29880100000000
C           32.37711900000000       -0.01209500000000       -0.01436300000000
C           31.60148900000000        1.23096100000000       -0.62158800000000
C           32.14157400000000        2.21955900000000       -1.42036500000000
C           31.11563700000000        3.16006500000000       -1.68825600000000
C           29.97643600000000        2.71412400000000       -1.05275100000000
N           30.26743900000000        1.51131100000000       -0.45423200000000
C           28.56832000000000        3.44068000000000       -1.03182100000000
C           28.54259400000000        4.90372600000000       -1.24041300000000
C           28.18106500000000        5.43468700000000       -2.48639200000000
C           28.16582000000000        6.81585800000000       -2.68755100000000
C           28.51882900000000        7.66619400000000       -1.63068300000000
N           28.50461600000000        9.11877000000000       -1.83528100000000
O           28.19007000000000        9.54652000000000       -2.95710200000000
O           28.80868000000000        9.84621100000000       -0.87692500000000
C           28.88551100000000        7.14727800000000       -0.38140200000000
C           28.89638800000000        5.76405500000000       -0.19288600000000
C           27.43982600000000        2.72158200000000       -0.80130000000000
C           26.11744200000000        3.32067600000000       -0.75608900000000
C           25.23022500000000        2.35721600000000       -0.52621600000000
C           25.95158000000000        1.11448700000000       -0.40347400000000
N           27.27362700000000        1.38554100000000       -0.56848300000000
H           24.20821200000000       -0.01519200000000       -0.05773600000000
H           24.36495400000000       -2.82696700000000       -0.08291200000000
H           26.31820400000000       -4.65384200000000        0.38327900000000
H           28.06518200000000       -0.82518500000000        0.16225300000000
H           29.60256600000000       -5.74564000000000       -0.62226100000000
H           29.64815800000000       -8.07449100000000        0.21676900000000
H           28.60325700000000       -6.61880200000000        4.17672900000000
H           28.56973800000000       -4.30824500000000        3.29009000000000
H           31.69053299999999       -4.25030000000000        1.42990800000000
H           33.43307300000000       -2.42060600000000        1.03719300000000
H           33.16365400000000        2.26790300000000       -1.76437700000000
H           31.20137600000000        4.06221200000000       -2.27455900000000
H           29.58474300000000        0.90192100000000       -0.01134900000000
H           27.90781300000000        4.75352900000000       -3.29094900000000
H           27.87803500000000        7.20111500000000       -3.66167200000000
H           29.16233600000000        7.79163900000000        0.44834000000000
H           29.17695600000000        5.33841100000000        0.76934500000000
H           25.88651700000000        4.36248600000000       -0.88402200000000
H           24.16572200000000        2.47709500000000       -0.43633900000000
C           66.84853400000000       -0.07056800000000       -0.14724300000000
C           66.11622000000000        1.19224500000000       -0.69534000000000
C           66.71630100000000        2.26700600000000       -1.31047400000000
C           65.69291300000000        3.20919600000000       -1.59150700000000
C           64.50325100000001        2.68012700000000       -1.12972100000000
N           64.76625700000000        1.42716800000000       -0.63572900000000
C           63.08611700000000        3.38838800000000       -1.13671000000000
C           63.05331500000000        4.84333500000000       -1.40587200000000
C           62.75192600000000        5.31507500000000       -2.69087600000000
C           62.72696600000000        6.68626600000000       -2.95072300000000
C           63.00831500000000        7.58585700000000       -1.91315200000000
N           62.98462299999999        9.02821000000000       -2.17997800000000
O           62.71517299999999        9.40383100000000       -3.33172300000000
O           63.23734499999999        9.79954900000000       -1.24125200000000
C           63.31270100000000        7.12596100000000       -0.62451400000000
C           63.33418399999999        5.75232500000000       -0.37711300000000
C           61.95525400000000        2.68778500000000       -0.85473100000000
C           60.65581500000000        3.32507300000000       -0.78722000000000
C           59.75292699999999        2.40421000000000       -0.47105800000000
N           61.75540100000000        1.36267300000000       -0.57366700000000
C           60.42669699999999        1.12856400000000       -0.33170200000000
C           59.75830599999999       -0.01209500000000       -0.01436300000000
C           60.53393599999999       -1.39058400000000        0.10258100000000
C           59.99385099999999       -2.64902100000000       -0.07548200000000
C           61.01978800000000       -3.59367900000000        0.17737800000000
C           62.15898800000000       -2.88476200000000        0.49386900000000
N           61.86798600000000       -1.54527800000000        0.39011200000000
C           63.56710400000000       -3.49755300000000        0.88477600000000
C           63.59283099999999       -4.86021900000000        1.45675100000000
C           63.95435900000000       -5.95546100000000        0.65999000000000
C           63.96960400000000       -7.24404600000000        1.19631600000000
C           63.61659599999999       -7.43131300000000        2.53980800000000
N           63.63080800000000       -8.78294400000000        3.10983700000000
O           63.94535500000000       -9.72587800000000        2.36664900000000
O           63.32674399999999       -8.91530900000000        4.30570300000000
C           63.24991300000000       -6.34471400000000        3.34558600000000
C           63.23903700000000       -5.06085800000000        2.79735600000000
C           64.69559900000000       -2.76209100000000        0.71349400000000
C           66.01798300000000       -3.25303000000000        1.05981300000000
C           66.90519900000000       -2.30818800000000        0.76254200000000
C           66.18384399999999       -1.17866700000000        0.22998000000000
N           64.86179799999999       -1.49598700000000        0.22750200000000
H           67.92721299999999       -0.03170000000000       -0.05317600000000
H           67.77047000000000        2.36845900000000       -1.51808200000000
H           65.81722100000000        4.17559300000000       -2.05573800000000
H           64.07024199999999        0.77636300000000       -0.28015400000000
H           62.53285800000000        4.59643100000000       -3.47912500000000
H           62.48726600000000        7.02574400000000       -3.95447500000000
H           63.53216800000000        7.80913200000000        0.19119800000000
H           63.56568699999999        5.37108100000000        0.61630100000000
H           60.44489200000000        4.36651100000000       -0.95037400000000
H           58.70235200000000        2.59467400000000       -0.34821300000000
H           58.97177100000000       -2.86709400000000       -0.34590000000000
H           60.93404900000000       -4.66886000000000        0.13728700000000
H           62.55068200000000       -0.79496100000000        0.45739300000000
H           64.22761199999999       -5.78387000000000       -0.38012800000000
H           64.25738900000000       -8.07469800000000        0.55807400000000
H           62.97308899999999       -6.47179800000000        4.38843000000000
H           62.95846899999999       -4.20164900000000        3.40466400000000
H           66.24890700000000       -4.21278600000000        1.48478600000000
H           67.96970300000000       -2.36493500000000        0.90120900000000
C           38.64013200000000       -0.01099200000000       -0.00587300000000
C           37.43119300000000       -0.02444700000000       -0.01432000000000
C           36.00966400000000       -0.01562800000000       -0.02630300000000
C           34.79799400000000       -0.00818900000000       -0.01544000000000
C           40.05673600000000       -0.01766700000000       -0.00534000000000
C           41.27743200000000       -0.00818900000000       -0.01544000000000
C           54.70298000000000       -0.01099200000000       -0.00587300000000
C           53.49404100000000       -0.02444700000000       -0.01432000000000
C           52.07251200000000       -0.01562800000000       -0.02630300000000
C           50.86084200000000       -0.00818900000000       -0.01544000000000
C           56.11958499999999       -0.01766700000000       -0.00534000000000
C           57.34028000000000       -0.00818900000000       -0.01544000000000
C           42.48805299999999        0.02623000000000        0.03229200000000
C           43.28375600000000        1.26191800000000       -0.55814400000000
C           42.78398800000000        2.52451700000000       -0.80355500000000
C           43.82295800000000        3.28129300000000       -1.40376300000000
C           44.92538900000000        2.45824300000000       -1.50063400000000
N           44.61006200000000        1.25887800000000       -0.91335000000000
C           46.31168500000000        2.81770800000000       -2.17273500000000
C           46.29915000000000        3.80642700000000       -3.27305800000000
C           46.73671099999999        5.11951600000000       -3.04973100000000
C           46.71437199999999        6.05679400000000       -4.08390400000000
C           46.24621999999999        5.67185700000000       -5.34774600000000
N           46.21972599999999        6.65215400000000       -6.43881300000000
O           45.81487100000000        6.27745800000000       -7.55042600000000
O           46.60272500000000        7.80707100000000       -6.19419700000000
C           45.80229499999999        4.36340500000000       -5.58255200000000
C           45.83010400000000        3.43519700000000       -4.54006100000000
C           47.44851500000000        2.19109400000000       -1.77250900000000
C           48.73381300000000        2.44230300000000       -2.39173200000000
C           49.64318500000000        1.68149000000000       -1.79208500000000
N           47.65872400000000        1.25156400000000       -0.80264700000000
C           48.98294200000000        0.90640900000000       -0.76140200000000
C           49.64735900000000        0.02623000000000        0.03229200000000
C           48.85160500000000       -0.79143200000000        1.13084200000000
C           49.35110600000000       -1.27512300000000        2.32277400000000
C           48.31215700000000       -2.01017400000000        2.94945200000000
C           47.21000000000000       -1.94714100000000        2.12275100000000
N           47.52546999999999       -1.13989900000000        1.05897500000000
C           45.82378900000000       -2.67609200000000        2.34564100000000
C           45.83636900000000       -3.94656900000000        3.10333000000000
C           46.30436100000000       -5.11829600000000        2.49411800000000
C           46.33215700000000       -6.32037500000000        3.20359100000000
C           45.88932500000000       -6.34234900000000        4.53312900000000
N           45.91585800000000       -7.60213100000000        5.28436000000000
O           45.53449700000000       -7.58474000000000        6.46530100000000
O           46.31911100000000       -8.62082800000000        4.70159500000000
C           45.42223200000000       -5.17636500000000        5.15517500000000
C           45.39983000000000       -3.98071300000000        4.43516800000000
C           44.68694700000000       -2.16246400000000        1.80807800000000
C           43.40164699999999       -2.81848800000000        1.93515900000000
C           42.49225700000000       -2.08328200000000        1.30439800000000
C           43.15249700000000       -0.92242000000000        0.74272100000000
N           44.47672899999999       -1.02953500000000        1.07335700000000
H           41.77912700000000        2.85926300000000       -0.59468800000000
H           43.76573900000000        4.30405600000000       -1.74410500000000
H           45.26673100000000        0.50610300000000       -0.72859700000000
H           47.09841200000000        5.39438100000000       -2.06001200000000
H           47.06288900000000        7.06633500000000       -3.88489900000000
H           45.43533099999999        4.04832700000000       -6.55540500000000
H           45.48958200000000        2.41329400000000       -4.70003500000000
H           48.93012700000000        3.11873200000000       -3.20385700000000
H           50.68741599999999        1.65599000000000       -2.04543000000000
H           50.35577200000000       -1.13418500000000        2.69185000000000
H           48.36920099999999       -2.54097000000000        3.88761900000000
H           46.86890900000000       -0.81382800000000        0.35568300000000
H           46.64403900000000       -5.07815700000000        1.46027200000000
H           46.69828100000000       -7.21428600000000        2.70634000000000
H           45.07458800000000       -5.17582700000000        6.18443400000000
H           45.03889900000000       -3.06250500000000        4.89620500000000
H           43.20533300000000       -3.74582800000000        2.44224200000000
H           41.44801100000000       -2.32690600000000        1.23058200000000
194
 energy: -370.693023404463 gnorm: 0.347316031686 xtb: 6.5.1 (b24c23e)
C           25.31537875556896       -0.06442485913122       -0.15384026478575
C           26.01680751001490       -1.37786957693360        0.01635206746203
C           25.42457411460791       -2.63799663673305        0.04899472821876
C           26.43990496538989       -3.58249234137433        0.29074425390628
C           27.65093628751849       -2.89726422635061        0.41306651500163
N           27.37112688349281       -1.56483520547132        0.19389715419209
C           29.01607463158737       -3.48209837833225        0.75717577680074
C           29.07020097749908       -4.88422762584131        1.27715716372415
C           29.38245542381147       -5.95547243158643        0.42712569091466
C           29.40830805914755       -7.26298838672304        0.90653474353192
C           29.12707807504722       -7.50731426077953        2.25605763276988
N           29.15045061760568       -8.88100135850664        2.76697055974905
O           29.41573649839221       -9.77745611023396        1.98435252610269
O           28.90234922957379       -9.05634250557334        3.94771973523020
C           28.82420168377951       -6.44909606315042        3.12105247762895
C           28.80002121241458       -5.14668232291537        2.62805065881673
C           30.18283714302230       -2.74831007844350        0.64908452047242
C           31.48230894359255       -3.27827278530947        1.03797436736742
C           32.39392470905990       -2.32126098676369        0.83516729795176
N           30.37702218894111       -1.46505774442010        0.21066975593175
C           31.71891393256658       -1.14837721869120        0.29713347325502
C           32.37108041055797        0.01503098472246       -0.04094903940891
C           31.61647830037139        1.21165348493181       -0.61651224535406
C           32.14171266135112        2.22582043686963       -1.41590047779519
C           31.12046016538989        3.15816354091747       -1.68137147810164
C           29.96095172854306        2.71549873974640       -1.04928596882648
N           30.27272345590965        1.50975232454311       -0.44861384554629
C           28.60240391728068        3.41606687122195       -1.02946230590868
C           28.55570698548501        4.89321987095889       -1.24302130332328
C           28.18185262446404        5.43471600287935       -2.48196505279213
C           28.16603192152863        6.81277372996004       -2.68301079202561
C           28.51882305305235        7.66618031682103       -1.63075400454352
N           28.50493761485707        9.11748293148683       -1.83525282904552
O           28.19525185325318        9.53636412551376       -2.93765840762070
O           28.80356310812166        9.83088108964488       -0.89267025042585
C           28.88371743091249        7.14322794769282       -0.38452878017600
C           28.89800644013419        5.76317909765162       -0.19808958651705
C           27.44026262020818        2.71400728260424       -0.79697304951925
C           26.11638072561415        3.32966855737789       -0.75784269300053
C           25.22467480478178        2.36145377651417       -0.52619788295153
C           25.96154011408795        1.11540022919363       -0.40145653256491
N           27.28649285890634        1.37699988265883       -0.56592309721326
H           24.22745263839652       -0.03372236062731       -0.05982831053109
H           24.36978088384296       -2.83106621774993       -0.08179750037592
H           26.31608400050709       -4.65113450849742        0.38295447900117
H           28.06513246411113       -0.82583030508071        0.16283949545130
H           29.60124367573889       -5.74867673068917       -0.61788464356385
H           29.64660544612154       -8.07391234903792        0.22319965770021
H           28.60509250653326       -6.62250598700676        4.17145204730483
H           28.56998259493482       -4.31357598835227        3.28841413057301
H           31.68588446340229       -4.25783663404412        1.43168463210764
H           33.44373083462330       -2.41499468791330        1.03617155808577
H           33.16179396435030        2.27155837255394       -1.76428856212385
H           31.20396074091992        4.05875147691244       -2.27236259934967
H           29.58851905605354        0.90201785384283       -0.01077579157002
H           27.90931283390270        4.75824752509452       -3.28868218936871
H           27.87996924959251        7.20366039758604       -3.65592678838944
H           29.16009061621861        7.79248708472760        0.44212891634159
H           29.17657489539687        5.34230349768550        0.76540251808098
H           25.89080065042018        4.37187017934240       -0.88644678007689
H           24.15938215613301        2.47512692365085       -0.43573223983500
C           66.82004343223629       -0.03877458691231       -0.16092622540318
C           66.11861742847447        1.17578610996715       -0.68906131377441
C           66.71085051748138        2.27399521933117       -1.30787899741193
C           65.69552300338880        3.20865454573453       -1.58522305336570
C           64.48448837810022        2.68337510402026       -1.12851389452895
N           64.76429610856012        1.42737704632807       -0.63266223072396
C           63.11935586436091        3.36191824141199       -1.13339050256292
C           63.06522453541049        4.83214272019927       -1.40686853021976
C           62.75296874974423        5.31516556373748       -2.68624526522247
C           62.72711573709200        6.68336713723043       -2.94597034863399
C           63.00834719922842        7.58576529210906       -1.91321637544941
N           62.98498586334887        9.02692175672370       -2.17987379032300
O           62.71968506181227        9.39455861655517       -3.31164801641978
O           63.23306064132416        9.78349712279449       -1.25652138446770
C           63.31122264902502        7.12160294424775       -0.62767956328098
C           63.33540342491328        5.75080414491482       -0.38223950547138
C           61.95259295723073        2.67669398540940       -0.84949746221866
C           60.65312418085978        3.33114681691342       -0.78779371429000
C           59.74150767008462        2.40575229655490       -0.47060954347518
N           61.75839339328418        1.35035163724263       -0.56704819809228
C           60.41648834673179        1.12303420539745       -0.33032977846256
C           59.76408586954672       -0.04873618112838       -0.02317383258996
C           60.51882095682694       -1.37134811396162        0.09704810259014
C           59.99368246820710       -2.65208672462881       -0.06843550065821
C           61.01495451015857       -3.58849616244391        0.18230760043600
C           62.17444965947967       -2.88413765764395        0.49754125298685
N           61.86263708652606       -1.54101558833630        0.39411507157357
C           63.53301108850847       -3.47521276519215        0.87416360561821
C           63.57971350409554       -4.85254060160164        1.44912180744144
C           63.95356912647715       -5.95321077237222        0.66380391375706
C           63.96939026620731       -7.23906698724321        1.19863380876675
C           63.61660020303005       -7.43133406873626        2.53974313693225
N           63.63048264116951       -8.78183262005989        3.10921034821359
O           63.94017344310497       -9.70717845299359        2.37810712706626
O           63.33187456754254       -8.91023462108851        4.28430574727508
C           63.25170762243531       -6.34284416293898        3.34082530839384
C           63.23741902038161       -5.06277471630671        2.79244157317213
C           64.69515917601376       -2.75336848722904        0.71332246052150
C           66.01904197965003       -3.26164813578982        1.06292345015680
C           66.91074831464019       -2.31181589050152        0.76473259207148
C           66.17388330837721       -1.17841610525526        0.23218095918202
N           64.84893238492401       -1.48734109984746        0.22531309762795
H           67.90797089964950       -0.01687034488376       -0.06448414457842
H           67.76564325152540        2.37254984852544       -1.51923023179476
H           65.81934202186585        4.17310166035659       -2.05462735036707
H           64.07029031213710        0.77721743904025       -0.27998240151844
H           62.53417982018901        4.60128427887726       -3.47692846607169
H           62.48881744824477        7.02854813099079       -3.94866234293512
H           63.53033464347829        7.80960008130714        0.18476718358572
H           63.56544334421321        5.37479558551417        0.61212693542049
H           60.44954502931158        4.37390025713110       -0.95272199558585
H           58.69168624449446        2.58931578495157       -0.34621100942717
H           58.97361968936106       -2.87019628597155       -0.34395171987070
H           60.93146490791533       -4.66475251145319        0.13739633830337
H           62.54687866855183       -0.79473585097192        0.45793022734063
H           64.22611253461358       -5.78675473753463       -0.37576102822348
H           64.25545568815254       -8.07393148442855        0.56431412174289
H           62.97533247258818       -6.47571545116673        4.38353580502245
H           62.95884980335862       -4.20701296635401        3.40327908179830
H           66.24462224192901       -4.22208351732066        1.48752221240361
H           67.97604121943814       -2.36293413393375        0.90071971132400
C           38.62971214657703       -0.01330967938603       -0.00493522632995
C           37.39985959582776       -0.02467249681591       -0.01473729888929
C           35.98817816381933       -0.01535733915550       -0.02558182546088
C           34.75622065434873       -0.00787223567222       -0.01631161726575
C           40.00410128181550       -0.01349450077862       -0.01267871073934
C           41.22671189751685        0.01388378053605       -0.02697330704325
C           54.73527841374269       -0.01108184475268       -0.00689579967123
C           53.50559090120598       -0.02459738806495       -0.01819427209643
C           52.12942785727554       -0.01998991390357       -0.02166905235406
C           50.90786365292929       -0.02655532816031        0.00448221188190
C           56.14485627550172       -0.01707451930599       -0.00518216732639
C           57.37781259244228       -0.01016104811457       -0.01512894781506
C           42.54916712926379        0.05673241372807        0.02996374010578
C           43.29259365712368        1.25543021164673       -0.54996810009527
C           42.78796217440262        2.52326988547032       -0.81226778326519
C           43.81997191115067        3.27616586487582       -1.40965873065304
C           44.94297485172588        2.46071332692102       -1.50661479743566
N           44.61526966764672        1.25860371588737       -0.91883240206521
C           46.28034339162285        2.80520488773240       -2.15518476730263
C           46.28749423717036        3.80392152512393       -3.26309058803650
C           46.73601636398376        5.11618504092696       -3.05246043894700
C           46.71391606117520        6.05151705126723       -4.08384414039265
C           46.24623842960949        5.67203154589677       -5.34779137372537
N           46.21951065154749        6.65128421149446       -6.43757542311805
O           45.82169248934516        6.28171982445951       -7.52953653608543
O           46.59648374881500        7.78567644858075       -6.19625083837063
C           45.80429327874106        4.36368312905540       -5.57772906383024
C           45.82861324397191        3.43934900343303       -4.53668331681011
C           47.44567083320455        2.18739372949240       -1.77216927073586
C           48.73355349345415        2.44995980481593       -2.39978257836795
C           49.64499004166152        1.68264214756269       -1.79444346170618
N           47.63691417336651        1.24567732526250       -0.80017594310500
C           48.94750049604173        0.91455479463071       -0.77352503604709
C           49.58495534932435        0.01804587982759        0.06156662501579
C           48.84281341751518       -0.78204015501791        1.12596647617060
C           49.34718672190478       -1.28346946291953        2.31982882016913
C           48.31518036968885       -2.01494475461977        2.94327245499878
C           47.19244321266203       -1.95344339072475        2.12399221430377
N           47.52028823404287       -1.14513941855473        1.05764176406199
C           45.85509031296968       -2.65640929565759        2.33670860149584
C           45.84801106451830       -3.93630091563718        3.10278095480619
C           46.30583955019689       -5.11577454532487        2.49883671605946
C           46.33015840911985       -6.31569539612238        3.20479801391452
C           45.88930741012156       -6.34242725285216        4.53328245609785
N           45.91606021712085       -7.60077606531683        5.28373930450583
O           45.54071433099293       -7.58260083419035        6.44391916945886
O           46.31232165186942       -8.60112420024997        4.70984265604436
C           45.42269381030256       -5.17529301095912        5.15000359798145
C           45.40053814143494       -3.98274062340242        4.43137432039083
C           44.68974998485776       -2.16138085471057        1.80445891616001
C           43.40192325346677       -2.82784833200792        1.94111165810339
C           42.49043155361528       -2.08578285575598        1.30503453567170
C           43.18774454149880       -0.93589211090776        0.74826812245789
N           44.49827832925244       -1.02581485325873        1.06790833296229
H           41.78336759400990        2.85902407322045       -0.59707501644313
H           43.76287511166009        4.30136915940556       -1.74327149784168
H           45.26774432023793        0.50716998122397       -0.73039292431479
H           47.09663040018481        5.39511678152338       -2.06510788383557
H           47.06038910264348        7.06317145099267       -3.89001191995856
H           45.43804845631158        4.05381276026743       -6.55292194205711
H           45.49021698280578        2.41873399699978       -4.70109279577532
H           48.92653617334654        3.12644750853842       -3.21055249664006
H           50.69265855282988        1.65061318387393       -2.04044246603036
H           50.35154460849659       -1.13649453808414        2.69116196330342
H           48.37206813484498       -2.53962632368684        3.88513167309063
H           46.86789886231062       -0.81577537045386        0.35637386101510