274
 energy: -454.115767497129 gnorm: 0.000508387884 xtb: 6.5.1 (b24c23e)
Fe          54.15086795689672        0.07545502481999       -0.07877483777753
C           50.77152099759780        0.15637140091623       -0.16070789631778
C           51.41186274922230        0.90947987616307        0.80283535979607
C           50.73130664671317        1.68021706939836        1.79839749085888
C           51.68361570828019        2.36195045814910        2.47938074018459
C           52.94341405872220        2.02347856991016        1.88295969482716
N           52.76677198660227        1.09333402916001        0.89508676589475
C           54.15469226709732        2.62771644257911        2.21308707588557
C           54.15986947729880        3.71959141787928        3.20931391167447
C           53.37907830452882        4.86483385943338        3.02426265878869
C           53.39145356834737        5.88705168819297        3.95350178069779
C           54.18156369195653        5.79193322439214        5.10623371560891
N           54.11588826073710        6.81530936713248        6.03825927205034
C           55.21681585225802        7.01899218080654        6.96985109859119
C           54.95332716059455        4.64282934525973        5.30376011574437
C           54.94581796043307        3.63005144354545        4.36056145257090
C           55.35893339079344        2.24861114598871        1.63230592340516
C           56.60969373214232        2.90570622366272        1.86963432340404
C           57.55926543511527        2.18701750641260        1.22171593427299
N           55.54120597298777        1.16930308652581        0.80148386353371
C           56.88524862661842        1.09904958428585        0.58635689922759
C           57.55170040017796        0.05108986341366       -0.06228364923117
C           56.87770019686787       -0.99993365289343       -0.69870370856382
C           57.54200408027782       -2.11614000763850       -1.29387935020327
C           56.58522797169707       -2.85350343854940       -1.90935397276296
C           55.34144621575481       -2.17276837075616       -1.70342052852543
N           55.53375206868656       -1.06459021085277       -0.91274122251113
C           54.13952354340362       -2.54461138441230       -2.29236242576029
C           54.12848153472827       -3.68405049177269       -3.23399473515431
C           54.93878611270344       -3.68258654385868       -4.37153972374387
C           54.93147606871518       -4.74591889241234       -5.25754222338243
C           54.11894286104869       -5.85730948582011       -5.01387688296590
N           54.04120642489488       -6.93014968894507       -5.88830400592681
C           55.16127845300783       -7.22451431545396       -6.77189460482559
C           53.30029456497548       -5.86171033880059       -3.87739437933857
C           53.30308659702396       -4.78959383730577       -3.00613646956017
C           52.94272335357428       -1.87967289760061       -2.03229338217472
C           51.69837453782367       -2.17698603611058       -2.68060000774677
C           50.75232725137818       -1.41299153958809       -2.08339583273538
C           51.42116111725869       -0.64369108294549       -1.07858048725050
N           52.76708563457255       -0.90410552730657       -1.09002486254658
H           49.68799956137603        0.18639609294367       -0.19086316383586
H           49.66283927396653        1.68393161981624        1.94569483077058
H           51.55490680445298        3.03209458701579        3.31384920920278
H           52.77816256743714        4.96252126896580        2.12678117305017
H           52.78812900682203        6.77428721669848        3.79249958662401
H           53.77358372088788        7.68405766862269        5.64620026160668
H           56.17762343772176        7.09305701549393        6.44781741785431
H           55.25934037862216        6.19604807274236        7.68455200728679
H           55.03022750053002        7.94454940776694        7.51445681854391
H           55.55929629683505        4.53202997396901        6.19463085553491
H           55.54095150801140        2.73936933886344        4.53064211802904
H           56.73567164709193        3.80573295562847        2.44925743506017
H           58.62173118546752        2.36412371236558        1.17269453827848
H           58.60278378311908       -2.30104523579263       -1.23770290175657
H           56.70277288659161       -3.77824826396713       -2.45053240816815
H           55.56555180100144       -2.82177940183890       -4.57782083822549
H           55.55798799659210       -4.70391613525594       -6.14007634832959
H           53.66163753334246       -7.76303269816202       -5.45460411985176
H           55.25127251115206       -6.44871931005567       -7.53332119636948
H           54.96030699471977       -8.17550884446861       -7.26505383098856
H           56.10373770611783       -7.29603950553130       -6.21709926633683
H           52.66305481950976       -6.71791405805819       -3.68261802789712
H           52.67830385557564       -4.81576610137114       -2.12007400880302
H           51.57664265771770       -2.87554545889647       -3.49257181124273
H           49.69471901843284       -1.36426036659487       -2.28932108498033
Fe          94.37008099125511        0.03888977224691       -0.03105735304862
C           97.74843765360853        0.11622293711759       -0.15723612196073
C           97.10863395656284       -0.99236562924380       -0.67405250120760
C           97.78952157465311       -2.12880553974622       -1.21567801182355
C           96.83647833579452       -2.94483135680249       -1.72670754121165
C           95.57565182348132       -2.29452961131303       -1.51490091043735
N           95.75293942711305       -1.12802609878288       -0.82219795709431
C           94.36222048679416       -2.75313301501617       -2.02324176431248
C           94.35792899433753       -3.95781746920024       -2.87992938553104
C           95.12595163136645       -4.00952654084356       -4.04735609011104
C           95.11442581463194       -5.13213541262611       -4.85244515313580
C           94.33834225233659       -6.24644611962765       -4.50906349393323
N           94.40439093263036       -7.37124868974808       -5.31630107425286
C           93.31033037984557       -8.33279028471685       -5.30878383189563
C           93.58046945112190       -6.20648145944230       -3.33479186462018
C           93.58662793582779       -5.07205419789594       -2.54185001716281
C           93.15644711338979       -2.11252622028042       -1.76520294404256
C           91.90159374630861       -2.49554121694610       -2.34061099118931
C           90.95300914601066       -1.71435679185556       -1.76799716293295
N           92.97679010086496       -1.06917919743270       -0.88891196805806
C           91.63162221667324       -0.85298645630912       -0.85184832965832
C           90.96940858531224        0.00657388825052        0.03479024203089
C           91.64821521320640        0.86282793400168        0.91237455718068
C           90.98964339051064        1.68821322906458        1.87492739194270
C           91.94764261112820        2.46145144533443        2.44274262778976
C           93.18636287600401        2.11711970390244        1.81046439968507
N           92.99071861318714        1.09566300081922        0.91128581208766
C           94.38610665431310        2.78365649002864        2.02571606509609
C           94.39882989853503        3.96149775095991        2.91885573584335
C           93.57824662303889        5.06271153301078        2.66463237134629
C           93.59102165993947        6.17200951401123        3.49233131050233
C           94.42006562457122        6.19883764946422        4.61786952822344
N           94.50649225422808        7.30037645173521        5.45459704339232
C           93.38915109584484        8.23028119659721        5.54555197252670
C           95.24707230398822        5.09820086986357        4.87614406241114
C           95.23845978008694        4.00124281623349        4.03646075035218
C           95.57949216857509        2.38709310569929        1.42507334249370
C           96.82157084210959        3.09213056311809        1.55716427826151
C           97.76622941237569        2.34200663258758        0.94054143953702
C           97.09857734665340        1.18634295501782        0.42345500633956
N           95.75454944359775        1.24964916459380        0.68600381353305
H           98.83148477510184        0.14411361807052       -0.20258344740355
H           98.85877533207936       -2.26894848965564       -1.19603108903942
H           96.96504735225882       -3.90394784144828       -2.20168389092466
H           95.71611638506018       -3.14705185506629       -4.33713157799364
H           95.70739025875041       -5.15485866803683       -5.76073482734181
H           94.73222520924311       -7.16486720503419       -6.25208071436627
H           92.34379251917692       -7.84447680226689       -5.47776769519615
H           93.28332979206608       -8.86143018537591       -4.35504475315334
H           93.49243389933558       -9.05625990893424       -6.10344673670233
H           92.98633889259528       -7.06024140717803       -3.03272150353985
H           93.00212563042837       -5.05746591599802       -1.62830657320766
H           91.77233326022225       -3.25740031216870       -3.09212266690865
H           89.88840525631318       -1.71290968556636       -1.93890552665237
H           89.93149923928836        1.66658112211190        2.08108549871843
H           91.83423807245909        3.19618065685895        3.22325121121508
H           92.93920548090492        5.05962485530862        1.78826296874619
H           92.95628732036207        7.01691800807766        3.25483795106597
H           94.89875358496676        7.07611743502552        6.36098647079165
H           93.28703983749975        8.78498166377806        4.61191234515672
H           93.60265483702943        8.93564096552362        6.34865228352710
H           92.44868185765026        7.71017091347797        5.76052824430403
H           95.89626955603408        5.11151220296813        5.74533053500077
H           95.87073487009415        3.14889658061287        4.25981543358595
H           96.94315295485161        4.04178131655356        2.05258650990588
H           98.82206278929378        2.53677654018018        0.83755386934959
C           60.17520054099154        0.03419220381548       -0.05735153879963
C           58.95094488798139        0.04499716753106       -0.06155788881088
C           61.52028690190317        0.02467105716586       -0.05132403444188
C           62.74466867200240        0.01361403207565       -0.04525093536962
C           73.59281909458579        0.02867922551942       -0.02599988575862
C           72.36791939081657        0.02213879821158       -0.02685498116682
C           74.93684527377482        0.03520702092606       -0.02679497786971
C           76.16183067974818        0.04188590773412       -0.02845592369241
C           87.00047317585630        0.01074000889850        0.05132436701972
C           85.77595385646877        0.01522673075736        0.04415568001784
C           88.34569842890282        0.00497560387041        0.05235807229217
C           89.57009405750814        0.00480303992295        0.04854747230860
Fe          67.55677039036954        0.01281746489234       -0.02894606737885
C           64.14364511943752        0.00717640478436       -0.03330640556675
C           64.81363905997354       -1.05911859395863       -0.64790255762205
C           64.13280867341865       -2.13851715667955       -1.28905770540148
C           65.08713985589750       -2.90789634695539       -1.86766442058176
C           66.34739502368328       -2.29924384467140       -1.56579525158984
N           66.16291636553454       -1.17285762221675       -0.80163162977144
C           67.56197365690271       -2.73897838267577       -2.08173737755798
C           67.56460789183275       -3.91573898989243       -2.98047030636103
C           67.15583488436522       -5.17046147220948       -2.52064768233784
C           67.16371243081896       -6.26690084945192       -3.36175079180199
C           67.56662455236491       -6.13740727557891       -4.69692203380539
N           67.60118812213247       -7.27395993357176       -5.48947112993915
C           67.54060884067819       -7.14756136097871       -6.93932021921522
C           67.98047003268316       -4.88475644230709       -5.15995635570840
C           67.98004510529553       -3.79404887268854       -4.30765631094231
C           68.77432476914909       -2.12176277690812       -1.79742100116943
C           70.03758783835220       -2.58803559499278       -2.28512947792228
C           70.98920597701770       -1.81583890497257       -1.70659723176911
N           68.95549804181617       -1.06790972210969       -0.93413729840261
C           70.30378524345707       -0.88917010489807       -0.86275411937121
C           70.96996171725355        0.02102404991317       -0.03063842687246
C           70.29922232174796        0.92736656133132        0.80222393951587
C           70.97604108674020        1.81367549683283        1.69457921373209
C           70.02006376793513        2.57517779363952        2.28124569798369
C           68.76582812693067        2.15915930648758        1.73002890371985
N           68.95180384247212        1.11879971142799        0.85196597873035
C           67.55003261771026        2.76622465986240        2.02349899938558
C           67.54571992514745        3.94867914424570        2.91101021238746
C           66.81217837562747        3.94746795101302        4.09948970540393
C           66.81151628963052        5.04583094143962        4.94145414703416
C           67.54672316743159        6.18734753322417        4.60710374695703
N           67.53771166078609        7.33440768270319        5.38426960078452
C           67.23132473510958        7.24443503601068        6.80539815621405
C           68.26974812695636        6.20006616960995        3.40738262945563
C           68.27501039896696        5.09460928283601        2.57900344637503
C           66.33709475263514        2.31040872964840        1.51693087844513
C           65.08202896507333        2.95916693861228        1.74761754500366
C           64.13014048830030        2.18238035156036        1.17417361818358
C           64.81014114689533        1.07248349802779        0.58675433014660
N           66.15697091887624        1.17330964750783        0.76851804093714
H           63.06277543172020       -2.26978518208954       -1.30086093482660
H           64.95444695542122       -3.79741385960275       -2.46145181450646
H           66.85046336666491       -5.28770969861603       -1.48673057178784
H           66.85684368826762       -7.23858077599232       -2.98934389436107
H           67.00615013374825       -8.01535960301787       -5.14014923676397
H           66.68503851043899       -6.53976149194665       -7.25520305097046
H           68.45981347265430       -6.69568467030519       -7.31420452494572
H           67.44698670154753       -8.14829398837634       -7.36096075856391
H           68.30486320672158       -4.75457514851348       -6.18503414915976
H           68.28710231565225       -2.82384598839529       -4.68277062204667
H           70.17331294466750       -3.41295700961407       -2.96514178564037
H           72.05997247522308       -1.86717471207282       -1.82113250998677
H           72.04303168881228        1.83567346497901        1.84749109998497
H           70.14540990335043        3.34313492577106        3.02695819886294
H           66.25325060487053        3.06111127709021        4.37930361570756
H           66.23657976658940        5.00890760082963        5.85856374909738
H           68.32388193627970        7.94416422240853        5.19489346928466
H           67.85880656526437        6.49813645779552        7.30584479923123
H           67.41014964045418        8.22291794715352        7.25105143082780
H           66.18167014434187        6.98341155595063        6.94606234576581
H           68.82859086982511        7.08797649115322        3.13113507135341
H           68.83166247538857        5.12245149536050        1.64873936682198
H           64.95344043735642        3.89240358060028        2.27105485323449
H           63.06369465433509        2.33716509132229        1.14219851507919
Fe          80.96837850228336        0.04834383280106       -0.01867434216107
C           77.55939812945724        0.04618926085110       -0.02932530510734
C           78.23333191599485       -1.02287496439389       -0.63644270615607
C           77.56589805441038       -2.14480131631929       -1.21576280420197
C           78.52302057174668       -2.89887573288142       -1.81102228216814
C           79.76879221640033       -2.22464413624495       -1.60181306259427
N           79.57845471690045       -1.09943669030848       -0.83752441581774
C           80.97804107327306       -2.62876236342719       -2.15762491483837
C           80.98137170168906       -3.78368422951165       -3.07939719642179
C           81.76626162689948       -4.90982184839991       -2.81233115475207
C           81.76246326757310       -5.99314422496183       -3.66930356089806
C           80.98510100302897       -5.97671231305282       -4.83459471357221
N           80.97920254787358       -7.10374325069563       -5.63971123680197
C           80.60178640221044       -6.99269462769652       -7.04198253493648
C           80.19650265810623       -4.85399528911256       -5.10539184898192
C           80.19584901403528       -3.77879440647688       -4.23436700424667
C           82.18472905330971       -1.99412006680722       -1.87776921538728
C           83.43582739890006       -2.34714672061716       -2.47724747513320
C           84.38853237015523       -1.60616166966578       -1.85817603623969
N           82.36682357741033       -1.00414436750801       -0.94410074386293
C           83.71274696615457       -0.79531578923412       -0.89652001592617
C           84.37736564424193        0.02434565296009        0.02641833161476
C           83.69946110902730        0.85917879212438        0.92550271501734
C           84.36105750611510        1.67300032533123        1.89446486686953
C           83.40445799287006        2.44282839168704        2.47095336111830
C           82.16514207757282        2.10056430326900        1.84165125550222
N           82.35645077127842        1.09214452029992        0.93022308132256
C           80.96027430822640        2.75464082127811        2.08309726972201
C           80.96041036007367        3.92826818612901        2.98103467211050
C           80.15622569194716        3.95762330378049        4.12266926130568
C           80.15450004837726        5.05218279307563        4.96940874611517
C           80.96032302286480        6.15969966031576        4.68715395555250
N           80.95332896512419        7.30485426399825        5.46626863609312
C           80.54476161179134        7.23168710217182        6.86223370362139
C           81.75847592377750        6.14082389151614        3.53594012601539
C           81.76394478074741        5.03868777303752        2.70336200360442
C           79.75682547593627        2.34727503976257        1.51779563607696
C           78.50911721708266        3.02386027640983        1.70693376096894
C           77.55541375928679        2.25402379400971        1.12638453846715
C           78.22767595098229        1.12318247294575        0.57062222685365
N           79.57158632607482        1.20704585933542        0.77398525706297
H           76.50336997965613       -2.32082713656950       -1.16647851893089
H           78.40361273181801       -3.83162115359287       -2.33758040917154
H           82.36499169571172       -4.94148816049134       -1.90871465243689
H           82.36402079063116       -6.86691559812349       -3.44208676474542
H           81.79150078805199       -7.69235403177365       -5.50100605595205
H           79.54025464524193       -6.75664456728026       -7.12621676312748
H           81.18511208069833       -6.22002252234433       -7.55575924942458
H           80.78333637839613       -7.95675177621573       -7.51697468331053
H           79.58021561829459       -4.81420041333030       -5.99509735003412
H           79.59408454860494       -2.90645687486768       -4.46502279858901
H           83.56182957386110       -3.06382253769630       -3.27235729204675
H           85.45317308163386       -1.59996391578774       -2.02823203474418
H           85.41991892117885        1.65050060239067        2.09630436776512
H           83.51994130914936        3.17155542090346        3.25666693336576
H           79.54129223809501        3.09718271409781        4.36307545488185
H           79.52324975439996        5.03905956929031        5.84936553841039
H           81.77580251871744        7.87998718217540        5.33133213286559
H           81.10263178280387        6.46012258561076        7.40487974642117
H           80.73419845679675        8.20256392086046        7.31993376668301
H           79.47755417328379        7.01666504389833        6.92882466603623
H           82.37473448705165        7.00211452140397        3.30050038360155
H           82.37894762812337        5.04256894254430        1.81015254420953
H           78.38584840419662        3.96768175546426        2.21247653106983
H           76.49261737380768        2.42636671984684        1.07007486072990
