364
 energy: -593.042843841886 gnorm: 0.000431122725 xtb: 6.5.1 (b24c23e)
C           60.18724420326511        0.49626673307796        0.01678157412415
C           60.79215571779169        0.57206474339561       -1.23155819213700
C           60.13432044395443        0.69691747977146       -2.48672088186665
C           61.08895437920346        0.68945380801529       -3.46516342242653
C           62.36175866898540        0.57367341785294       -2.83815980053703
N           62.13161246165701        0.50392135003199       -1.49320537860697
C           63.61807966768449        0.50890087335393       -3.45429887590351
C           63.64294153298179        0.61340225314724       -4.93181996596492
C           64.17541130830421       -0.41754508392425       -5.70841702338623
C           64.18896245676923       -0.33976028639886       -7.09043676004030
C           63.66734853932424        0.78553999078189       -7.73537646328840
N           63.70287020461438        0.93936062222374       -9.11317264463615
C           63.75936511165092       -0.23849391575577       -9.96868341068331
C           63.14770454939276        1.82978612661533       -6.96042917244450
C           63.13033512015225        1.73986476592497       -5.58135333993516
C           64.83026729939044        0.35381307323711       -2.77685962989694
C           66.12845854784138        0.38578428970529       -3.42555580687367
C           67.04822775689419        0.23859759214085       -2.44927984687927
N           64.98449979527541        0.19690950342481       -1.43247739687354
C           66.31113581192898        0.11917196614505       -1.20660824393318
C           66.94839297771456       -0.04057194518276        0.04162745571843
C           66.31402012906473       -0.14916988262476        1.29462024974515
C           66.96151503381616       -0.29445948352724        2.54958506714764
C           65.99739194189286       -0.34352541613242        3.51856056974267
C           64.72989227102211       -0.23459836720076        2.88317973742200
N           64.97394059986482       -0.11813128662689        1.53945585325978
C           63.47296308849855       -0.20128556429041        3.49800369187991
C           63.44212456879625       -0.37818095989516        4.96774406342984
C           62.89966630719992        0.60646329292293        5.79589749170751
C           62.87189570587121        0.45042592912701        7.17113074549605
C           63.38873231096093       -0.70893786686629        7.75698915273615
N           63.33492970649355       -0.94330137825795        9.12256858847793
C           63.25622564472270        0.18073801496451       10.04580569337053
C           63.92259377104573       -1.70505126595149        6.92993745606794
C           63.95445323484930       -1.53693887904908        5.55869285536547
C           62.26174523118529       -0.00991856168756        2.82242879920491
C           60.95582749474038       -0.03213919792180        3.46217521703250
C           60.04801402397513        0.17499593737504        2.48668658434114
C           60.79685068525657        0.30838712176208        1.25010716530056
N           62.12621683324096        0.18960616248234        1.49010708023607
H           59.10419079705500        0.56954916559676        0.01562983329017
H           59.06573439982880        0.77002544421851       -2.61255626005353
H           60.92871506611748        0.74568058680309       -4.52965868568159
H           62.85884121360810        0.39663877133918       -0.79393816639008
H           64.56580102198417       -1.30410357304761       -5.22056850223409
H           64.60680788550370       -1.15929113163569       -7.66212925811191
H           63.03842167197176        1.62696816307380       -9.44740408580844
H           62.96864077908155       -0.95556871497479       -9.71977819573867
H           63.63679721787440        0.08904166075457      -11.00104746822519
H           64.73004425479193       -0.72612811121686       -9.87030849237156
H           62.75722856572899        2.71506239563022       -7.45132396470914
H           62.73464860522524        2.56200231488749       -4.99486563593618
H           66.29359314755919        0.52640398055336       -4.48147007944890
H           68.12287609496515        0.21633865390425       -2.53516524211471
H           68.02981361153064       -0.34698190511590        2.68495092803599
H           66.14939142779684       -0.43044972194709        4.58206117651829
H           64.25128011760307       -0.00589271867964        0.83597252630831
H           62.51336982152441        1.51929769002900        5.35554830622808
H           62.44625477009077        1.23567437064507        7.78374755558399
H           63.99818325884075       -1.64616885197349        9.42593456588258
H           62.28502655940819        0.66942174946551        9.95819715861741
H           64.04781488861609        0.91462096198215        9.85571790299913
H           63.36082094065053       -0.20784231803888       11.05879418121953
H           64.31170158159664       -2.61521032090700        7.37418067831021
H           64.36064127091554       -2.32253068792321        4.93077505762373
H           60.77963549203155       -0.20294440565620        4.51201317894510
H           58.97295830394031        0.22386666457316        2.56362728344371
C          141.20610838576985        0.58687919569464       -0.05663577366506
C          140.60168021302260        0.71195479826408        1.18800858826613
C          141.25962178282100        0.91021486816817        2.43365644647214
C          140.30818705971043        0.92404843260531        3.41516768776970
C          139.03675880568218        0.75046446118684        2.79889763634331
N          139.26488398577442        0.62533509899854        1.45752357360565
C          137.78327377610120        0.68538965157250        3.42081886356229
C          137.75721519300538        0.84594466172735        4.89306234174772
C          137.23908013147840       -0.16366392662736        5.70676127973019
C          137.22329448097520       -0.03608172890170        7.08495180377466
C          137.72854184581223        1.11912914822241        7.68875062647426
N          137.68992131101899        1.32214193618621        9.06000075088368
C          137.64518042160000        0.17562284811322        9.95767949310666
C          138.23362470596885        2.14190817982368        6.87639658648493
C          138.25287289002870        2.00256662838351        5.50140893836156
C          136.57341026591558        0.47945075987156        2.75257432755663
C          135.27517618480741        0.52064223763290        3.40064381624026
C          134.35727875170454        0.31708285346546        2.43277200293294
N          136.42104586622204        0.26009911245501        1.41682220107650
C          135.09565951079833        0.15200480837006        1.19616579879204
C          134.46056547727824       -0.07836318397780       -0.04202549703914
C          135.09586915106033       -0.24467793412524       -1.28815852349093
C          134.45013993459170       -0.46999464598332       -2.53214820417986
C          135.41474531070835       -0.56241741312769       -3.49749664222556
C          136.68069005964293       -0.39964230202700       -2.87062240287292
N          136.43527810864654       -0.20888221145392       -1.53573785101340
C          137.93696048834701       -0.38343979676361       -3.48772306468563
C          137.97007436091917       -0.65405779927149       -4.94293155239459
C          138.49842044359659        0.28105824378347       -5.83509617089213
C          138.52767723009993        0.03482522291551       -7.19709924198239
C          138.02621582554579       -1.16747375109289       -7.70452735635144
N          138.08244360246928       -1.49108944427666       -9.05156999565329
C          138.15056770717374       -0.43035748691477      -10.04759011422212
C          137.50590193433615       -2.11374518614868       -6.81280072987207
C          137.47277127643841       -1.85595281143933       -5.45566899911531
C          139.14403808309751       -0.12778872483494       -2.82611640349760
C          140.45049261738717       -0.15976802518502       -3.46423475212524
C          141.35278118811650        0.12730212701724       -2.50394596031838
C          140.60062137097970        0.31684655390199       -1.27672811943728
N          139.27444336520372        0.15427920073510       -1.50819476055186
H          142.28716889996826        0.68540569965176       -0.06178883823559
H          142.32650336212185        1.01418519991190        2.55202355011490
H          140.47030584476715        1.03189808625678        4.47538130760701
H          138.53820849528421        0.46861949308765        0.76704148909953
H          136.86171520656413       -1.07282949564430        5.25133645950091
H          136.81656868289724       -0.84020576503399        7.68578912993201
H          138.34552416859174        2.02933014347437        9.36988727613811
H          138.44497919854189       -0.54058838682332        9.73684368980716
H          137.76106177749068        0.54188411552634       10.97772907749571
H          136.68060294873621       -0.32679175702268        9.87492636741736
H          138.61106077171692        3.04990168030672        7.33493375608022
H          138.63607805204813        2.80912736206732        4.88573620757920
H          135.10822701801092        0.70616568286671        4.44929337100833
H          133.28311835679449        0.28298753282610        2.52073402024205
H          133.38261456360880       -0.54437932455963       -2.66327575500531
H          135.26379237197867       -0.71250454954285       -4.55408105809641
H          137.15667117389111       -0.04660645198339       -0.84076100675443
H          138.87191272146663        1.22645008385185       -5.45679858784809
H          138.94221483395214        0.78364525567676       -7.86080258437475
H          137.42697557680216       -2.21963797029742       -9.30748115507281
H          139.11678523599011        0.07275504346909       -9.99255543571489
H          137.35154290215752        0.30659999357276       -9.90699967259596
H          138.05071709826629       -0.88660908610076      -11.03245454577587
H          137.12844905613824       -3.05619940012868       -7.19548733699968
H          137.07739708334813       -2.60369985906926       -4.77671137954556
H          140.63134258120928       -0.39004717309141       -4.50184659071847
H          142.42648601532161        0.19584295317858       -2.58466697604919
C           68.35251771465917       -0.08145930309823        0.05313489392325
C           69.57752674542797       -0.10257615852170        0.06511273197750
C           70.91941802868124       -0.11561341701273        0.07353903078795
C           72.15072813838962       -0.11807432652411        0.08105378453881
C           73.48790384271349       -0.11294864980395        0.08529885149734
C           74.71927315507440       -0.10122568512998        0.08453344430719
C           76.06088312049552       -0.08550136135116        0.08181302922979
C           77.28610192065639       -0.06630432925688        0.07507968892076
C           86.94690140437980       -0.03391534966023        0.03660534940104
C           88.17225082359376       -0.01686737895309        0.02662353899283
C           89.51349894333131        0.00236725102172        0.02016161403304
C           90.74492246025970        0.02042667805692        0.01490575412489
C           92.08158858910764        0.03797831506163        0.00826694600174
C           93.31307458946544        0.05355980651200        0.00244544943040
C           94.65443026886776        0.06793442415520       -0.00102196649134
C           95.87993109467605        0.07689339094195       -0.00579079189354
C          105.53706964389035       -0.01253011063074        0.00265074434029
C          106.76252084006768       -0.00721589953283       -0.00296804676340
C          108.10386323710584        0.00129652102792       -0.00499595256883
C          109.33537712490977        0.00909853381130       -0.01161581239916
C          110.67211580884185        0.01505438162602       -0.01664121351614
C          111.90366430053336        0.02068564505309       -0.02387658389144
C          113.24502274929283        0.02406961416464       -0.02905577953636
C          114.47049455389512        0.02403943213058       -0.03788919868096
C          124.12488323318669       -0.20568718133770       -0.06426641481216
C          125.35015882908804       -0.22357605589470       -0.06909495952726
C          126.69174294640747       -0.23414265375032       -0.06963295220640
C          127.92311504153687       -0.23738647945198       -0.06912357181674
C          129.26015412811782       -0.22882584139614       -0.06666123958533
C          130.49130935815580       -0.21115050200720       -0.06266043732929
C          131.83274976047545       -0.17908719199048       -0.05794336724971
C          133.05724079619705       -0.13883278373233       -0.04950673407218
C           78.68963285145122       -0.04083527862737        0.06927222393550
C           79.31924182089530        0.01948921433859        1.32851605177033
C           78.67132744970125        0.02586286664970        2.58999550147193
C           79.63741872974153        0.06567847205840        3.55875388164489
C           80.90367249704423        0.09439398556346        2.91493481501332
N           80.66030467543609        0.06060919774093        1.56740669691883
C           82.16432694604954        0.11624344745477        3.52682404559466
C           82.17996059401347        0.18374575353993        5.00692645951574
C           82.79245601219291       -0.82117207346206        5.76137067380101
C           82.80126181472694       -0.76272853475693        7.14183088928566
C           82.20244127094335        0.31092864202352        7.81284450595475
N           82.28787854625212        0.35644949851150        9.19572364081546
C           81.31619813725750        1.13238481841733        9.95447410155747
C           81.60169481598402        1.32618156610565        7.06269009350255
C           81.58589829842317        1.25278904681432        5.68028975789872
C           83.38758236186625        0.07986464752652        2.85423382664290
C           84.67629625813672        0.17581993616962        3.51559437758092
C           85.61077677305326        0.12152775855599        2.54371468542311
N           83.56067541784863       -0.01452706456256        1.50637446525794
C           84.89142624702033        0.00367982162027        1.29140948223123
C           85.54359399582282       -0.05548753370949        0.04253593703597
C           84.91420733490392       -0.11438761894890       -1.21684000110128
C           85.56262436750029       -0.11834071952074       -2.47821408687569
C           84.59683170084092       -0.14803064957907       -3.44737449243371
C           83.33009097765050       -0.17414067561690       -2.80407810364313
N           83.57320528072840       -0.14899611772543       -1.45614719370890
C           82.06963614913853       -0.18629155671536       -3.41592329129540
C           82.05374286951150       -0.23567984669578       -4.89673694554561
C           81.45025555019323        0.78286712244411       -5.63686339320030
C           81.43701638616290        0.75104448247581       -7.02063435227244
C           82.01763119118692       -0.32154744001121       -7.70401663353309
N           82.07305670930494       -0.38193490295039       -9.08789568602772
C           81.08713222111109        0.33905528905788       -9.88188707731330
C           82.62710406779541       -1.34406624043674       -6.96618003227380
C           82.64754878550465       -1.29744042061230       -5.58518195534258
C           80.84619475292199       -0.15336415917692       -2.74288024183668
C           79.55777220849083       -0.24299936170765       -3.40548796785380
C           78.62292105735726       -0.19903177266189       -2.43330726878611
C           79.34174066631647       -0.09166279517507       -1.17985072091573
N           80.67280158414933       -0.07110095690422       -1.39454909158871
H           77.60290854567461       -0.00550214150864        2.73048304932658
H           79.48665169824351        0.06055040180197        4.62589469138779
H           81.38109357569834        0.05395820658772        0.85341449682397
H           83.24480387554988       -1.66747308085786        5.25616396676334
H           83.27320467570691       -1.55354364587466        7.71536046116595
H           82.46471705977505       -0.55149564116518        9.60824079590695
H           80.28803347049453        0.86774322991477        9.68220012361786
H           81.47327321827045        0.92589836688697       11.01312363453456
H           81.47054393103335        2.19804087395094        9.78028710564097
H           81.14834582765032        2.17942994602621        7.55209380458333
H           81.12640469837017        2.05294871332278        5.10998223083709
H           84.82528555036417        0.28954569810113        4.57706134572089
H           86.68399635294448        0.16641135476908        2.63816730841391
H           86.63120199952125       -0.09102672952456       -2.61818338287260
H           84.74821069751106       -0.13739986638092       -4.51433146833101
H           82.85224236341585       -0.14072753356532       -0.74237330356973
H           81.00477791832481        1.62508998472168       -5.11865633013393
H           80.97607376103923        1.56676981834808       -7.56389315194480
H           82.23561971262892       -1.32011356009446       -9.43328274474850
H           81.24871823396710        1.41405650455105       -9.79239391448106
H           81.22007229263158        0.05222024073361      -10.92500705171454
H           80.06454650475641        0.10066742648516       -9.56779625874262
H           83.08350328307304       -2.17888263355339       -7.48759697109727
H           83.10655395385346       -2.10650357838838       -5.02740228290595
H           79.40937361776302       -0.34593748822391       -4.46820040584314
H           77.54974916093360       -0.24334637847478       -2.52859949650071
C           97.28338984453436        0.08543756188190       -0.00539826873031
C           97.90702221498147        0.13915316025881        1.25722621187905
C           97.25192312908977        0.15371178664083        2.51500215036696
C           98.21278775883613        0.17579108310388        3.48942586120366
C           99.48308549444268        0.18601436210595        2.85304762580091
N           99.24701369570126        0.15955418834001        1.50390441993139
C          100.74057079764093        0.18615357262551        3.47153429827207
C          100.75033453055366        0.24207858027248        4.95204947675563
C          101.34689214026007       -0.77738536840910        5.69987356682139
C          101.34893583537952       -0.73269099927004        7.08080822955221
C          100.75917712780925        0.34134874854592        7.75925153070971
N          100.83690446830306        0.37167923412613        9.14289988429191
C           99.86997839993386        1.15106926169574        9.90419127784647
C          100.17531343073257        1.37140356668002        7.01591674757149
C          100.16609476267924        1.31187274270540        5.63277806788210
C          101.96649161016266        0.13638467185773        2.80431301699724
C          103.25309215138626        0.21593928467851        3.47179561372165
C          104.19133458291938        0.15458309199845        2.50391809492929
N          102.14454208391506        0.04336579680603        1.45713154620408
C          103.47648159696597        0.04708796192456        1.24816461592012
C          104.13362137721121       -0.02035484114980        0.00242495460309
C          103.50996330561674       -0.07851079407918       -1.25990000409110
C          104.16493388688693       -0.09897358523417       -2.51766882846666
C          103.20399271598490       -0.12562245644817       -3.49179905867758
C          101.93378208410594       -0.13225080260299       -2.85509358856734
N          102.16992653044731       -0.09959523377268       -1.50617768616877
C          100.67639504722214       -0.13320192757555       -3.47373912682214
C          100.66817756393992       -0.19862119769024       -4.95397020561628
C          100.08304639464973        0.81899522939420       -5.70989233501392
C          100.07751805427451        0.77053575528211       -7.09327622649822
C          100.64746700719601       -0.31800874525204       -7.76021547360191
N          100.71025264507600       -0.39599244518318       -9.14289196670700
C           99.73870090297576        0.32807258059561       -9.95164702842807
C          101.23873981224692       -1.33961764516869       -7.00647705093767
C          101.25168325580786       -1.27649384048902       -5.62608339315197
C           99.45049427993430       -0.07632702887888       -2.80723725909511
C           98.16374918188640       -0.15042938457354       -3.47496350043800
C           97.22548963856373       -0.08461130092189       -2.50731955034255
C           97.94050058062624        0.01954512356030       -1.25133618957676
N           99.27239013962344        0.01831151993138       -1.46011295053126
H           96.18236806278644        0.13885206121590        2.64931584475889
H           98.05553619258018        0.17044990718309        4.55561449632167
H           99.97205800186855        0.14174568188081        0.79442801479021
H          101.79168346677940       -1.62410148464588        5.18868163803466
H          101.80812519185424       -1.53481967098968        7.64894931679784
H          101.00090611194098       -0.54241057961312        9.54706787110978
H           98.84041213781744        0.90089721440839        9.62372498015759
H          100.01888755589553        0.93216964565367       10.96152426148894
H          100.03739640649481        2.21657169404153        9.74159641920083
H           99.72986950691896        2.22531983446796        7.51137296074641
H           99.71984768130235        2.12342286580504        5.06808521327582
H          103.39834465282421        0.32524986668987        4.53424690854371
H          105.26453858958457        0.18753355136675        2.60328675775058
H          105.23446711314746       -0.08485907736700       -2.65214035101568
H          103.36106804601700       -0.12510462150177       -4.55798498567106
H          101.44507824456086       -0.07832210330348       -0.79660517820213
H           99.64624066827875        1.67354445689519       -5.20465113163251
H           99.63099179669310        1.58579688314821       -7.64913691474878
H          100.86257099600944       -1.34035365128478       -9.47587320834726
H           99.91420395335754        1.40185719872354       -9.87466319815633
H           99.87376332552208        0.02635585631069      -10.99028789350414
H           98.71121827694384        0.10734527316701       -9.64065929197741
H          101.68690536047903       -2.18673632336813       -7.51503313468672
H          101.69656280221437       -2.08474150393667       -5.05581399442154
H           98.01835103358334       -0.25835349376485       -4.53759714881016
H           96.15215663862655       -0.11247782391342       -2.60707193943348
C          115.87391825110939        0.02106528595772       -0.04288485211689
C          116.50300508581644        0.07278120617046        1.21703400740175
C          115.85324243613684        0.10078771493317        2.47736990222121
C          116.81830229606068        0.12052829244610        3.44765944783435
C          118.08602463092369        0.11447345236264        2.80603416042477
N          117.84410551554005        0.08169958098666        1.45805693801126
C          119.34581617046358        0.10490493882435        3.41955456815662
C          119.36173392971813        0.17580418099348        4.89929682266135
C          119.94937274520373       -0.84209591585163        5.65625538952434
C          119.95696886929024       -0.78216682736388        7.03659139247018
C          119.38178487054506        0.30585527971617        7.70521770878067
N          119.46493758713922        0.35062986909980        9.08810012084678
C          118.50969819040419        1.14914786529813        9.84426480136200
C          118.80657246268450        1.33406223703957        6.95261327564320
C          118.79173313371450        1.25940338528406        5.57028880674404
C          120.56826163735565        0.03154197824246        2.74793779758550
C          121.85868339838157        0.09528398316720        3.40968227255048
C          122.79183491488720        0.00730713801117        2.43897049517382
N          120.73919094414423       -0.07641558214116        1.40103380923431
C          122.07026817277942       -0.09852334125849        1.18691614276594
C          122.72132446486874       -0.18571978110812       -0.06070375736520
C          122.09252836397991       -0.23148953723378       -1.32086146808093
C          122.74291106878549       -0.25908380631472       -2.58086141312094
C          121.77852769857887       -0.26188989960218       -3.55197980373077
C          120.51046055558201       -0.24754614650216       -2.91115218105802
N          120.75148184994310       -0.22578063324960       -1.56292586944651
C          119.25093726600903       -0.22439862975375       -3.52514054175038
C          119.23532479298741       -0.27786086362961       -5.00578214913192
C          118.66034734641320        0.75425390203629       -5.74982812238117
C          118.64739833020693        0.71826115762397       -7.13352393708521
C          119.19937227291108       -0.37185214712674       -7.81286638353568
N          119.25447216664045       -0.43821567159255       -9.19658146030487
C          118.28794882380348        0.30525906844916       -9.99371925773612
C          119.78017197582450       -1.40812477844654       -7.07114843565971
C          119.80052678229839       -1.35763994039720       -5.69027851975598
C          118.02850914309926       -0.15509094360067       -2.85352933538001
C          116.73849259270351       -0.21252607411431       -3.51664220680272
C          115.80467795906632       -0.14234988765004       -2.54502990100626
C          116.52554925982385       -0.05010525671289       -1.29144272554625
N          117.85650026117949       -0.06433205521168       -1.50533397221529
H          114.78415415977356        0.09672497724814        2.61611974287905
H          116.66553088243420        0.12346211389588        4.51451393085704
H          118.56589373873540        0.05273068947288        0.74563574735308
H          120.38249951233233       -1.69952670237621        5.15297843707938
H          120.40919660944789       -1.58310342090660        7.61194688901842
H          119.62080881323450       -0.56053444988676        9.50194248383329
H          117.47633172010919        0.90736766954875        9.57046909346923
H          118.66025006307586        0.94036663041432       10.90340905366871
H          118.68828427154546        2.21085328707531        9.66917281160186
H          118.37234427290559        2.19824716730400        7.44016257116728
H          118.35237540212221        2.06954308732702        4.99820303608718
H          122.01021387419748        0.21252791749652        4.47039740713390
H          123.86580801529018        0.02210433644994        2.53410498139344
H          123.81210075755342       -0.26482044235953       -2.71873260782194
H          121.93229883941613       -0.25879592469811       -4.61864443449626
H          120.02945443960465       -0.19325600002199       -0.85090039704781
H          118.23738917348930        1.60995010086369       -5.23482435385834
H          118.20914163542629        1.54435191579840       -7.67990696399631
H          119.39247840912299       -1.38159136680262       -9.53852148275117
H          118.47758240445168        1.37600516096852       -9.90837742131433
H          118.41358788365831        0.01095799238082      -11.03566769035525
H          117.25939508286059        0.09494416194171       -9.67906623166776
H          120.21418669865693       -2.25673765592186       -7.58940825346334
H          120.23663326771040       -2.17722666628319       -5.12949883520890
H          116.58797740022321       -0.31418018991258       -4.57918751583564
H          114.73074703035499       -0.15910736517205       -2.64073859270343
