      -----------------------------------------------------------      
     |                   =====================                   |     
     |                           x T B                           |     
     |                   =====================                   |     
     |                         S. Grimme                         |     
     |          Mulliken Center for Theoretical Chemistry        |     
     |                    University of Bonn                     |     
      -----------------------------------------------------------      

   * xtb version 6.5.1 (b24c23e) compiled by 'conda@728c89f4b128' on 2022-07-12

   xtb is free software: you can redistribute it and/or modify it under
   the terms of the GNU Lesser General Public License as published by
   the Free Software Foundation, either version 3 of the License, or
   (at your option) any later version.
   
   xtb is distributed in the hope that it will be useful,
   but WITHOUT ANY WARRANTY; without even the implied warranty of
   MERCHANTABILITY or FITNESS FOR A PARTICULAR PURPOSE.  See the
   GNU Lesser General Public License for more details.
   
   Cite this work as:
   * C. Bannwarth, E. Caldeweyher, S. Ehlert, A. Hansen, P. Pracht,
     J. Seibert, S. Spicher, S. Grimme, WIREs Comput. Mol. Sci., 2020, 11,
     e01493. DOI: 10.1002/wcms.1493
   
   for GFN2-xTB:
   * C. Bannwarth, S. Ehlert and S. Grimme., J. Chem. Theory Comput., 2019,
     15, 1652-1671. DOI: 10.1021/acs.jctc.8b01176
   for GFN1-xTB:
   * S. Grimme, C. Bannwarth, P. Shushkov, J. Chem. Theory Comput., 2017,
     13, 1989-2009. DOI: 10.1021/acs.jctc.7b00118
   for GFN0-xTB:
   * P. Pracht, E. Caldeweyher, S. Ehlert, S. Grimme, ChemRxiv, 2019, preprint.
     DOI: 10.26434/chemrxiv.8326202.v1
   for GFN-FF:
   * S. Spicher and S. Grimme, Angew. Chem. Int. Ed., 2020, 59, 15665-15673.
     DOI: 10.1002/anie.202004239
   
   for ALPB and GBSA implicit solvation:
   * S. Ehlert, M. Stahn, S. Spicher, S. Grimme, J. Chem. Theory Comput.,
     2021, 17, 4250-4261. DOI: 10.1021/acs.jctc.1c00471
   
   for DFT-D4:
   * E. Caldeweyher, C. Bannwarth and S. Grimme, J. Chem. Phys., 2017,
     147, 034112. DOI: 10.1063/1.4993215
   * E. Caldeweyher, S. Ehlert, A. Hansen, H. Neugebauer, S. Spicher,
     C. Bannwarth and S. Grimme, J. Chem. Phys., 2019, 150, 154122.
     DOI: 10.1063/1.5090222
   * E. Caldeweyher, J.-M. Mewes, S. Ehlert and S. Grimme, Phys. Chem. Chem. Phys.
     2020, 22, 8499-8512. DOI: 10.1039/D0CP00502A
   
   for sTDA-xTB:
   * S. Grimme and C. Bannwarth, J. Chem. Phys., 2016, 145, 054103.
     DOI: 10.1063/1.4959605
   
   in the mass-spec context:
   * V. Asgeirsson, C. Bauer and S. Grimme, Chem. Sci., 2017, 8, 4879.
     DOI: 10.1039/c7sc00601b
   * J. Koopman and S. Grimme, ACS Omega 2019, 4, 12, 15120-15133.
     DOI: 10.1021/acsomega.9b02011
   
   for metadynamics refer to:
   * S. Grimme, J. Chem. Theory Comput., 2019, 155, 2847-2862
     DOI: 10.1021/acs.jctc.9b00143
   
   for SPH calculations refer to:
   * S. Spicher and S. Grimme, J. Chem. Theory Comput., 2021, 17, 1701-1714
     DOI: 10.1021/acs.jctc.0c01306
   
   with help from (in alphabetical order)
   P. Atkinson, C. Bannwarth, F. Bohle, G. Brandenburg, E. Caldeweyher
   M. Checinski, S. Dohm, S. Ehlert, S. Ehrlich, I. Gerasimov, C. Hölzer
   A. Katbashev, J. Koopman, C. Lavigne, S. Lehtola, F. März, M. Müller,
   F. Musil, H. Neugebauer, J. Pisarek, C. Plett, P. Pracht, F. Pultar,
   J. Seibert, P. Shushkov, S. Spicher, M. Stahn, M. Steiner, T. Strunk,
   J. Stückrath, T. Rose, and J. Unsleber
   
 * started run on 2022/07/28 at 22:06:29.257     

           -------------------------------------------------
          |                Calculation Setup                |
           -------------------------------------------------

          program call               : xtb C2Py_C4_9.xyz --gfn 1 --opt -T 48
          hostname                   : cx3-14-14.cx3.hpc.ic.ac.uk
          coordinate file            : C2Py_C4_9.xyz
          omp threads                :                     1

   ID    Z sym.   atoms
    1    6 C      1-5, 7-12, 14-18, 20-25, 27-32, 34-39, 60-64, 66-71, 73-77,
                  79-84, 86-91, 93-98, 119-155, 157-162, 164-168, 170-175,
                  177-182, 184-189, 209-213, 215-220, 222-226, 228-233,
                  235-240, 242-247, 267-271, 273-278, 280-284, 286-291,
                  293-298, 300-305, 325-329, 331-336, 338-342, 344-349,
                  351-356, 358-363, 383-387, 389-394, 396-400, 402-407,
                  409-414, 416-421, 441-445, 447-452, 454-458, 460-465,
                  467-472, 474-479, 499-503, 505-510, 512-516, 518-523,
                  525-530, 532-537
    2    7 N      6, 13, 19, 26, 33, 40, 65, 72, 78, 85, 92, 99, 156, 163,
                  169, 176, 183, 190, 214, 221, 227, 234, 241, 248, 272, 279,
                  285, 292, 299, 306, 330, 337, 343, 350, 357, 364, 388, 395,
                  401, 408, 415, 422, 446, 453, 459, 466, 473, 480, 504, 511,
                  517, 524, 531, 538
    3    1 H      41-59, 100-118, 191-208, 249-266, 307-324, 365-382,
                  423-440, 481-498, 539-556

molecular fragmentation (1/2 indicates fragments):
111111111111111111111111111111111111111111111111111111111112222222222222
222222222222222222222222222222222222222222222222222222222222222222222222
222222222222222222222222222222222222222222222222222222222222222222222222
222222222222222222222222222222222222222222222222222222222222222222222222
222222222222222222222222222222222222222222222222222222222222222222222222
222222222222222222222222222222222222222222222222222222222222222222222222
222222222222222222222222222222222222222222222222222222222222222222222222
2222222222222222222222222222222222222222222222222222
# atoms in fragment 1/2:    59   497
 fragment masses (1/2) :      511.56     4469.74
CMA distance (Bohr)    : 114.950
constraining FC (au)   :  0.0500
########################################################################
[WARNING] Please study the warnings concerning your input carefully
-1- prog_main_parseArguments: Unknown option '-T' provided
########################################################################

           -------------------------------------------------
          |                 G F N 1 - x T B                 |
           -------------------------------------------------

        Reference                      10.1021/acs.jctc.7b00118
      * Hamiltonian:
        H0-scaling (s, p, d)           1.850000    2.250000    2.000000
        zeta-weighting                 0.000000
      * Dispersion:
        s8                             2.400000
        a1                             0.630000
        a2                             5.000000
        s9                             0.000000
      * Repulsion:
        kExp                           1.500000
        rExp                           1.000000
      * Coulomb:
        alpha                          2.000000
        third order                    atomic
        anisotropic                    false
      * Halogen bond correction:
        rad-scale                      1.300000
        damping                        0.440000


          ...................................................
          :                      SETUP                      :
          :.................................................:
          :  # basis functions                1896          :
          :  # atomic orbitals                1896          :
          :  # shells                         1112          :
          :  # electrons                      1786          :
          :  # halogen bonds                     0          :
          :  max. iterations                   250          :
          :  Hamiltonian                  GFN1-xTB          :
          :  restarted?                      false          :
          :  GBSA solvation                  false          :
          :  PC potential                    false          :
          :  electronic temp.          300.0000000     K    :
          :  accuracy                    1.0000000          :
          :  -> integral cutoff          0.2500000E+02      :
          :  -> integral neglect         0.1000000E-07      :
          :  -> SCF convergence          0.1000000E-05 Eh   :
          :  -> wf. convergence          0.2000000E-04 e    :
          :  Broyden damping             0.4000000          :
          ...................................................

 iter      E             dE          RMSdq      gap      omega  full diag
   1   -987.7043200 -0.987704E+03  0.106E+01    0.05       0.0  T
   2   -987.6456206  0.586994E-01  0.637E+00    0.01       1.0  T
   3   -416.5185767  0.571127E+03  0.669E+00    0.00       1.0  T
   4   2527.5369493  0.294406E+04  0.125E+01    0.02       1.0  T
   5   -347.1436880 -0.287468E+04  0.708E+00    0.02       1.0  T
   6   -802.7390133 -0.455595E+03  0.435E+00    0.03       1.0  T
   7   -966.4173005 -0.163678E+03  0.201E+00    0.07       1.0  T
   8   -980.6915394 -0.142742E+02  0.156E+00    0.03       1.0  T
   9   -987.9357455 -0.724421E+01  0.759E-01    0.06       1.0  T
  10   -988.3561926 -0.420447E+00  0.577E-01    0.05       1.0  T
  11   -988.5421152 -0.185923E+00  0.489E-01    0.13       1.0  T
  12   -987.7164916  0.825624E+00  0.523E-01    0.02       1.0  T
  13   -987.9493440 -0.232852E+00  0.472E-01    0.07       1.0  T
  14   -987.8539711  0.953729E-01  0.478E-01    0.01       1.0  T
  15   -987.7316135  0.122358E+00  0.485E-01    0.08       1.0  T
  16   -987.8861478 -0.154534E+00  0.501E-01    0.05       1.0  T
  17   -987.9676617 -0.815139E-01  0.359E-01    0.04       1.0  T
  18   -988.1036727 -0.136011E+00  0.304E-01    0.07       1.0  T
  19   -988.2767986 -0.173126E+00  0.397E-01    0.04       1.0  T
  20   -988.3475561 -0.707574E-01  0.292E-01    0.04       1.0  T
  21   -988.6044318 -0.256876E+00  0.316E-01    0.02       1.0  T
  22   -988.6887623 -0.843305E-01  0.336E-01    0.03       1.0  T
  23   -988.6910241 -0.226184E-02  0.318E-01    0.03       1.0  T
  24   -988.6941888 -0.316471E-02  0.307E-01    0.05       1.0  T
  25   -988.7366955 -0.425066E-01  0.219E-01    0.02       1.0  T
  26   -988.7060441  0.306514E-01  0.233E-01    0.10       1.0  T
  27   -988.7338698 -0.278257E-01  0.130E-01    0.07       1.0  T
  28   -988.7757840 -0.419142E-01  0.637E-02    0.05       1.0  T
  29   -988.7899584 -0.141743E-01  0.394E-02    0.02       1.0  T
  30   -988.7883534  0.160497E-02  0.322E-02    0.03       1.0  T
  31   -988.7919936 -0.364018E-02  0.438E-02    0.01       1.0  T
  32   -988.7928445 -0.850918E-03  0.232E-02    0.02       1.0  T
  33   -988.7936844 -0.839897E-03  0.307E-02    0.01       1.0  T
  34   -988.7941589 -0.474507E-03  0.246E-02    0.01       1.0  T
  35   -988.7945207 -0.361792E-03  0.186E-02    0.01       1.0  T
  36   -988.7947482 -0.227531E-03  0.155E-02    0.01       1.0  T
  37   -988.7948754 -0.127151E-03  0.126E-02    0.01       1.0  T
  38   -988.7949568 -0.814031E-04  0.109E-02    0.01       1.0  T
  39   -988.7950567 -0.999042E-04  0.886E-03    0.00       1.0  T
  40   -988.7951557 -0.990451E-04  0.529E-03    0.00       1.0  T
  41   -988.7952002 -0.444520E-04  0.445E-03    0.00       1.0  T
  42   -988.7952307 -0.305286E-04  0.348E-03    0.00       1.2  T
  43   -988.7952673 -0.365522E-04  0.276E-03    0.00       1.5  T
  44   -988.7952812 -0.139621E-04  0.170E-03    0.00       2.5  T
  45   -988.7952872 -0.594738E-05  0.129E-03    0.00       3.3  T
  46   -988.7952925 -0.532874E-05  0.151E-03    0.00       2.8  T
  47   -988.7952940 -0.144493E-05  0.119E-03    0.00       3.6  T
  48   -988.7952950 -0.105724E-05  0.787E-04    0.00       5.4  T
  49   -988.7952955 -0.483261E-06  0.557E-04    0.00       7.6  T
  50   -988.7952956 -0.139357E-06  0.409E-04    0.00      10.4  T
  51   -988.7952959 -0.228405E-06  0.188E-04    0.00      22.5  T
  52   -988.7952959 -0.291562E-07  0.134E-04    0.00      31.6  T

   *** convergence criteria satisfied after 52 iterations ***

         #    Occupation            Energy/Eh            Energy/eV
      -------------------------------------------------------------
         1        2.0000           -0.8074450             -21.9717
       ...           ...                  ...                  ...
       887        2.0000           -0.3869269             -10.5288
       888        2.0000           -0.3866044             -10.5200
       889        2.0000           -0.3861980             -10.5090
       890        2.0000           -0.3860288             -10.5044
       891        2.0000           -0.3857565             -10.4970
       892        2.0000           -0.3855204             -10.4905
       893        1.0313           -0.3699287             -10.0663 (HOMO)
       894        0.9671           -0.3698066             -10.0630 (LUMO)
       895        0.0009           -0.3625692              -9.8660
       896        0.0007           -0.3623472              -9.8600
       897        0.0000           -0.3555416              -9.6748
       898        0.0000           -0.3545126              -9.6468
       ...           ...                  ...                  ...
      1896                          2.4052592              65.4504
      -------------------------------------------------------------
                  HL-Gap            0.0001221 Eh            0.0033 eV
             Fermi-level           -0.3698692 Eh          -10.0647 eV

 SCC (total)                   0 d,  0 h,  3 min, 16.871 sec
 SCC setup                      ...        0 min,  0.136 sec (  0.069%)
 Dispersion                     ...        0 min,  0.071 sec (  0.036%)
 classical contributions        ...        0 min,  0.014 sec (  0.007%)
 integral evaluation            ...        0 min,  1.635 sec (  0.830%)
 iterations                     ...        3 min, 11.399 sec ( 97.221%)
 molecular gradient             ...        0 min,  2.988 sec (  1.518%)
 printout                       ...        0 min,  0.627 sec (  0.319%)

         :::::::::::::::::::::::::::::::::::::::::::::::::::::
         ::                     SUMMARY                     ::
         :::::::::::::::::::::::::::::::::::::::::::::::::::::
         :: total energy            -969.661942959025 Eh    ::
         :: gradient norm              3.523698827989 Eh/a0 ::
         :: HOMO-LUMO gap              0.003321692703 eV    ::
         ::.................................................::
         :: SCC energy              -988.795295900484 Eh    ::
         :: -> electrostatic           0.821590657222 Eh    ::
         :: repulsion energy          19.575270897063 Eh    ::
         :: dispersion energy         -0.441917955603 Eh    ::
         :: halogen bond corr.         0.000000000000 Eh    ::
         :: add. restraining           0.000000000000 Eh    ::
         :: total charge               0.000000000001 e     ::
         :::::::::::::::::::::::::::::::::::::::::::::::::::::

      ----------------------------------------------------------- 
     |                       L-ANC optimizer                     |
      ----------------------------------------------------------- 
          low memory version by Sebastian Ehlert

          ...................................................
          :                      SETUP                      :
          :.................................................:
          :   energy convergence        0.5000000E-05 Eh    :
          :   grad. convergence         0.1000000E-02 Eh/a0 :
          :   optimization log               true           :
          :   writing optlog all                1     steps :
          :   Hessian reset                    20     steps :
          :   maximium step len.        1.0000000     a0    :
          :   LBFGS images                     20           :
          ...................................................
 * calculating model hessian...
Using Lindh-Hessian (1995)
 Shifting diagonal of input Hessian by    1.0011239032573940E-002
 Lowest  eigenvalues of input Hessian
    0.010000    0.010001    0.010005    0.010006    0.010009    0.010009
    0.010010    0.010010    0.010010    0.010010    0.010010    0.010010
    0.010010    0.010010    0.010011    0.010011    0.000000    0.000000
 Highest eigenvalues
    3.373368    3.373369    3.373369    3.373372    3.373374    3.373375


........................................................................
.............................. CYCLE    1 ..............................
........................................................................
   1   -988.8569325 -0.988857E+03  0.159E-01    0.02       0.0  T
   2   -988.7048940  0.152038E+00  0.265E-01    0.33       1.0  T
   3   -988.6942532  0.106408E-01  0.268E-01    0.38       1.0  T
   4   -988.8687592 -0.174506E+00  0.743E-02    0.03       1.0  T
   5   -988.8580420  0.107172E-01  0.847E-02    0.05       1.0  T
   6   -988.8148336  0.432085E-01  0.136E-01    0.10       1.0  T
   7   -988.8805974 -0.657638E-01  0.206E-02    0.01       1.0  T
   8   -988.8789035  0.169392E-02  0.259E-02    0.01       1.0  T
   9   -988.8795889 -0.685422E-03  0.226E-02    0.01       1.0  T
  10   -988.8813944 -0.180551E-02  0.283E-03    0.00       1.5  T
  11   -988.8813218  0.725532E-04  0.496E-03    0.00       1.0  T
  12   -988.8813881 -0.662490E-04  0.265E-03    0.00       1.6  T
  13   -988.8814119 -0.237782E-04  0.689E-04    0.00       6.2  T
  14   -988.8814129 -0.107723E-05  0.359E-04    0.00      11.8  T
  15   -988.8814133 -0.345859E-06  0.147E-04    0.00      28.9  T
  16   -988.8814134 -0.701514E-07  0.246E-05    0.00     172.2  T
     SCC iter.                  ...        0 min, 59.342 sec
     gradient                   ...        0 min,  2.986 sec
 * total energy  :  -971.3068007 Eh     change       -0.1644858E+01 Eh
   gradient norm :     1.5382709 Eh/a0  converged?    E=F G=F D=F
   step length   :     0.6966291 a0

........................................................................
.............................. CYCLE    2 ..............................
........................................................................
   1   -989.0669706 -0.989067E+03  0.460E-02    0.00       0.0  T
   2   -989.0353725  0.315981E-01  0.104E-01    0.06       1.0  T
   3   -988.9606344  0.747382E-01  0.170E-01    0.18       1.0  T
   4   -989.0646288 -0.103994E+00  0.363E-02    0.02       1.0  T
   5   -989.0663368 -0.170797E-02  0.292E-02    0.01       1.0  T
   6   -989.0647243  0.161244E-02  0.320E-02    0.02       1.0  T
   7   -989.0687676 -0.404329E-02  0.481E-03    0.00       1.0  T
   8   -989.0688129 -0.452436E-04  0.134E-03    0.00       3.2  T
   9   -989.0688151 -0.225687E-05  0.609E-04    0.00       7.0  T
  10   -989.0688142  0.934187E-06  0.711E-04    0.00       6.0  T
  11   -989.0688158 -0.164000E-05  0.346E-04    0.00      12.2  T
  12   -989.0688162 -0.391892E-06  0.126E-04    0.00      33.7  T
  13   -989.0688161  0.853330E-07  0.190E-04    0.00      22.3  T
     SCC iter.                  ...        0 min, 48.269 sec
     gradient                   ...        0 min,  2.955 sec
 * total energy  :  -971.7223233 Eh     change       -0.4155226E+00 Eh
   gradient norm :     1.2541307 Eh/a0  converged?    E=F G=F D=F
   step length   :     3.9755058 a0

........................................................................
.............................. CYCLE    3 ..............................
........................................................................
   1   -989.2199003 -0.989220E+03  0.347E-02    0.01       0.0  T
   2   -989.2181959  0.170449E-02  0.408E-02    0.02       1.0  T
   3   -989.1551796  0.630162E-01  0.125E-01    0.11       1.0  T
   4   -989.2179841 -0.628045E-01  0.285E-02    0.02       1.0  T
   5   -989.2206019 -0.261781E-02  0.154E-02    0.01       1.0  T
   6   -989.2209129 -0.310951E-03  0.492E-03    0.01       1.0  T
   7   -989.2209397 -0.268040E-04  0.282E-03    0.01       1.5  T
   8   -989.2209530 -0.133290E-04  0.131E-03    0.01       3.2  T
   9   -989.2209593 -0.631414E-05  0.396E-04    0.01      10.7  T
  10   -989.2209597 -0.413013E-06  0.197E-04    0.01      21.6  T
  11   -989.2209598 -0.825657E-07  0.112E-04    0.01      37.9  T
     SCC iter.                  ...        0 min, 40.841 sec
     gradient                   ...        0 min,  2.961 sec
 * total energy  :  -971.9605258 Eh     change       -0.2382025E+00 Eh
   gradient norm :     1.0825922 Eh/a0  converged?    E=F G=F D=F
   step length   :     8.7025205 a0

........................................................................
.............................. CYCLE    4 ..............................
........................................................................
   1   -989.3220914 -0.989322E+03  0.282E-02    0.02       0.0  T
   2   -989.3185005  0.359093E-02  0.394E-02    0.03       1.0  T
   3   -989.2668748  0.516257E-01  0.110E-01    0.11       1.0  T
   4   -989.3181697 -0.512949E-01  0.329E-02    0.03       1.0  T
   5   -989.3224190 -0.424927E-02  0.114E-02    0.02       1.0  T
   6   -989.3226387 -0.219704E-03  0.675E-03    0.02       1.0  T
   7   -989.3227465 -0.107848E-03  0.215E-03    0.02       2.0  T
   8   -989.3227521 -0.553525E-05  0.154E-03    0.02       2.8  T
   9   -989.3227599 -0.780114E-05  0.447E-04    0.02       9.5  T
  10   -989.3227600 -0.105566E-06  0.341E-04    0.02      12.4  T
  11   -989.3227605 -0.523498E-06  0.740E-05    0.02      57.3  T
  12   -989.3227605  0.141005E-07  0.778E-05    0.02      54.5  T
     SCC iter.                  ...        0 min, 43.805 sec
     gradient                   ...        0 min,  3.625 sec
 * total energy  :  -972.1198240 Eh     change       -0.1592982E+00 Eh
   gradient norm :     0.9664910 Eh/a0  converged?    E=F G=F D=F
   step length   :    17.7118434 a0

........................................................................
.............................. CYCLE    5 ..............................
........................................................................
   1   -989.4369041 -0.989437E+03  0.355E-02    0.03       0.0  T
   2   -989.4192733  0.176308E-01  0.719E-02    0.06       1.0  T
   3   -989.3972604  0.220128E-01  0.922E-02    0.10       1.0  T
   4   -989.4320549 -0.347945E-01  0.370E-02    0.04       1.0  T
   5   -989.4369677 -0.491278E-02  0.178E-02    0.03       1.0  T
   6   -989.4377646 -0.796902E-03  0.527E-03    0.03       1.0  T
   7   -989.4377690 -0.438115E-05  0.371E-03    0.03       1.1  T
   8   -989.4378396 -0.706276E-04  0.130E-03    0.03       3.3  T
   9   -989.4378418 -0.219377E-05  0.919E-04    0.03       4.6  T
  10   -989.4378457 -0.396056E-05  0.335E-04    0.03      12.6  T
  11   -989.4378463 -0.515570E-06  0.160E-04    0.03      26.6  T
  12   -989.4378463 -0.381564E-07  0.102E-04    0.03      41.7  T
     SCC iter.                  ...        0 min, 44.364 sec
     gradient                   ...        0 min,  2.986 sec
 * total energy  :  -972.2705100 Eh     change       -0.1506860E+00 Eh
   gradient norm :     0.8591402 Eh/a0  converged?    E=F G=F D=F
   step length   :    28.6210431 a0

........................................................................
.............................. CYCLE    6 ..............................
........................................................................
   1   -989.5309354 -0.989531E+03  0.313E-02    0.06       0.0  T
   2   -989.5247777  0.615771E-02  0.489E-02    0.06       1.0  T
   3   -989.4998040  0.249737E-01  0.793E-02    0.10       1.0  T
   4   -989.5292684 -0.294644E-01  0.243E-02    0.06       1.0  T
   5   -989.5312935 -0.202510E-02  0.146E-02    0.05       1.0  T
   6   -989.5315809 -0.287467E-03  0.704E-03    0.05       1.0  T
   7   -989.5317823 -0.201379E-03  0.288E-03    0.05       1.5  T
   8   -989.5318096 -0.273016E-04  0.125E-03    0.05       3.4  T
   9   -989.5318125 -0.287641E-05  0.882E-04    0.05       4.8  T
  10   -989.5318171 -0.456711E-05  0.289E-04    0.05      14.7  T
  11   -989.5318174 -0.335714E-06  0.132E-04    0.05      32.1  T
  12   -989.5318174 -0.496436E-07  0.653E-05    0.05      64.9  T
     SCC iter.                  ...        0 min, 44.497 sec
     gradient                   ...        0 min,  2.986 sec
 * total energy  :  -972.3876892 Eh     change       -0.1171792E+00 Eh
   gradient norm :     0.7691893 Eh/a0  converged?    E=F G=F D=F
   step length   :    16.1644490 a0

........................................................................
.............................. CYCLE    7 ..............................
........................................................................
   1   -989.6300904 -0.989630E+03  0.305E-02    0.09       0.0  T
   2   -989.6304593 -0.368957E-03  0.252E-02    0.08       1.0  T
   3   -989.6304887 -0.293553E-04  0.118E-02    0.08       1.0  T
   4   -989.6236264  0.686229E-02  0.392E-02    0.09       1.0  T
   5   -989.6301181 -0.649170E-02  0.145E-02    0.08       1.0  T
   6   -989.6306040 -0.485893E-03  0.776E-03    0.08       1.0  T
   7   -989.6308405 -0.236487E-03  0.252E-03    0.08       1.7  T
   8   -989.6308618 -0.213365E-04  0.101E-03    0.08       4.2  T
   9   -989.6308645 -0.268387E-05  0.597E-04    0.08       7.1  T
  10   -989.6308663 -0.182601E-05  0.240E-04    0.08      17.7  T
  11   -989.6308665 -0.208677E-06  0.106E-04    0.08      40.2  T
  12   -989.6308665 -0.242908E-07  0.705E-05    0.08      60.2  T
     SCC iter.                  ...        0 min, 43.891 sec
     gradient                   ...        0 min,  2.933 sec
 * total energy  :  -972.4859287 Eh     change       -0.9823947E-01 Eh
   gradient norm :     0.6842179 Eh/a0  converged?    E=F G=F D=F
   step length   :    12.3410965 a0

........................................................................
.............................. CYCLE    8 ..............................
........................................................................
   1   -989.7322113 -0.989732E+03  0.295E-02    0.13       0.0  T
   2   -989.7326711 -0.459810E-03  0.186E-02    0.12       1.0  T
   3   -989.7328056 -0.134495E-03  0.816E-03    0.13       1.0  T
   4   -989.7325034  0.302199E-03  0.126E-02    0.13       1.0  T
   5   -989.7328531 -0.349681E-03  0.566E-03    0.13       1.0  T
   6   -989.7328960 -0.429025E-04  0.329E-03    0.13       1.3  T
   7   -989.7329094 -0.133731E-04  0.267E-03    0.13       1.6  T
   8   -989.7329391 -0.297091E-04  0.821E-04    0.13       5.2  T
   9   -989.7329416 -0.250938E-05  0.329E-04    0.13      12.9  T
  10   -989.7329419 -0.300694E-06  0.147E-04    0.13      28.9  T
  11   -989.7329419 -0.432647E-07  0.717E-05    0.13      59.1  T
     SCC iter.                  ...        0 min, 41.214 sec
     gradient                   ...        0 min,  2.998 sec
 * total energy  :  -972.5697076 Eh     change       -0.8377893E-01 Eh
   gradient norm :     0.6015047 Eh/a0  converged?    E=F G=F D=F
   step length   :    13.9483986 a0

........................................................................
.............................. CYCLE    9 ..............................
........................................................................
   1   -989.8521543 -0.989852E+03  0.314E-02    0.20       0.0  T
   2   -989.8527233 -0.569031E-03  0.171E-02    0.19       1.0  T
   3   -989.8529081 -0.184743E-03  0.650E-03    0.19       1.0  T
   4   -989.8528795  0.286328E-04  0.715E-03    0.19       1.0  T
   5   -989.8529312 -0.517605E-04  0.306E-03    0.19       1.4  T
   6   -989.8529426 -0.113928E-04  0.161E-03    0.19       2.6  T
   7   -989.8529485 -0.586657E-05  0.526E-04    0.19       8.1  T
   8   -989.8529489 -0.411322E-06  0.325E-04    0.19      13.0  T
   9   -989.8529492 -0.276764E-06  0.137E-04    0.19      31.0  T
  10   -989.8529492 -0.381478E-07  0.682E-05    0.19      62.2  T
     SCC iter.                  ...        0 min, 36.599 sec
     gradient                   ...        0 min,  2.999 sec
 * total energy  :  -972.6494181 Eh     change       -0.7971046E-01 Eh
   gradient norm :     0.5067670 Eh/a0  converged?    E=F G=F D=F
   step length   :    10.5060872 a0

........................................................................
.............................. CYCLE   10 ..............................
........................................................................
   1   -989.9544775 -0.989954E+03  0.266E-02    0.28       0.0  T
   2   -989.9549257 -0.448118E-03  0.142E-02    0.27       1.0  T
   3   -989.9550596 -0.133969E-03  0.522E-03    0.27       1.0  T
   4   -989.9550399  0.197600E-04  0.554E-03    0.27       1.0  T
   5   -989.9550786 -0.387756E-04  0.213E-03    0.27       2.0  T
   6   -989.9550833 -0.461577E-05  0.859E-04    0.27       4.9  T
   7   -989.9550847 -0.145923E-05  0.318E-04    0.27      13.3  T
   8   -989.9550849 -0.128627E-06  0.163E-04    0.27      26.0  T
   9   -989.9550849 -0.355334E-07  0.808E-05    0.27      52.5  T
     SCC iter.                  ...        0 min, 34.884 sec
     gradient                   ...        0 min,  2.810 sec
 * total energy  :  -972.7151603 Eh     change       -0.6574217E-01 Eh
   gradient norm :     0.4105367 Eh/a0  converged?    E=F G=F D=F
   step length   :     7.4646226 a0

........................................................................
.............................. CYCLE   11 ..............................
........................................................................
   1   -990.0429163 -0.990043E+03  0.230E-02    0.37       0.0  T
   2   -990.0432249 -0.308594E-03  0.131E-02    0.36       1.0  T
   3   -990.0433356 -0.110714E-03  0.463E-03    0.36       1.0  T
   4   -990.0433302  0.546396E-05  0.466E-03    0.36       1.0  T
   5   -990.0433504 -0.202664E-04  0.165E-03    0.36       2.6  T
   6   -990.0433527 -0.223275E-05  0.725E-04    0.36       5.9  T
   7   -990.0433537 -0.106950E-05  0.257E-04    0.36      16.5  T
   8   -990.0433538 -0.844261E-07  0.113E-04    0.36      37.4  T
   9   -990.0433538 -0.144088E-07  0.466E-05    0.36      91.0  T
     SCC iter.                  ...        0 min, 32.410 sec
     gradient                   ...        0 min,  2.979 sec
 * total energy  :  -972.7666990 Eh     change       -0.5153874E-01 Eh
   gradient norm :     0.3197524 Eh/a0  converged?    E=F G=F D=F
   step length   :     5.8780020 a0

........................................................................
.............................. CYCLE   12 ..............................
........................................................................
   1   -990.1152320 -0.990115E+03  0.188E-02    0.45       0.0  T
   2   -990.1154450 -0.213007E-03  0.107E-02    0.44       1.0  T
   3   -990.1155183 -0.732532E-04  0.386E-03    0.44       1.1  T
   4   -990.1155158  0.248408E-05  0.347E-03    0.44       1.2  T
   5   -990.1155241 -0.833493E-05  0.135E-03    0.44       3.1  T
   6   -990.1155264 -0.226094E-05  0.446E-04    0.44       9.5  T
   7   -990.1155268 -0.370432E-06  0.193E-04    0.44      21.9  T
   8   -990.1155268 -0.525365E-07  0.869E-05    0.44      48.8  T
     SCC iter.                  ...        0 min, 29.364 sec
     gradient                   ...        0 min,  2.417 sec
 * total energy  :  -972.8047502 Eh     change       -0.3805119E-01 Eh
   gradient norm :     0.2349103 Eh/a0  converged?    E=F G=F D=F
   step length   :     4.5357378 a0

........................................................................
.............................. CYCLE   13 ..............................
........................................................................
   1   -990.1722437 -0.990172E+03  0.166E-02    0.52       0.0  T
   2   -990.1723873 -0.143669E-03  0.106E-02    0.51       1.0  T
   3   -990.1724571 -0.697156E-04  0.377E-03    0.52       1.1  T
   4   -990.1724527  0.434761E-05  0.352E-03    0.52       1.2  T
   5   -990.1724634 -0.107303E-04  0.122E-03    0.52       3.5  T
   6   -990.1724650 -0.156724E-05  0.399E-04    0.52      10.6  T
   7   -990.1724653 -0.301015E-06  0.167E-04    0.52      25.5  T
   8   -990.1724654 -0.435494E-07  0.699E-05    0.52      60.7  T
     SCC iter.                  ...        0 min, 30.905 sec
     gradient                   ...        0 min,  2.993 sec
 * total energy  :  -972.8298822 Eh     change       -0.2513200E-01 Eh
   gradient norm :     0.1627733 Eh/a0  converged?    E=F G=F D=F
   step length   :     4.9262133 a0

........................................................................
.............................. CYCLE   14 ..............................
........................................................................
   1   -990.2223498 -0.990222E+03  0.145E-02    0.59       0.0  T
   2   -990.2224538 -0.104019E-03  0.967E-03    0.58       1.0  T
   3   -990.2225095 -0.556669E-04  0.339E-03    0.58       1.3  T
   4   -990.2225058  0.366254E-05  0.315E-03    0.58       1.3  T
   5   -990.2225136 -0.782417E-05  0.101E-03    0.58       4.2  T
   6   -990.2225146 -0.990913E-06  0.280E-04    0.58      15.1  T
   7   -990.2225147 -0.123384E-06  0.118E-04    0.58      36.0  T
   8   -990.2225148 -0.160138E-07  0.546E-05    0.58      77.7  T
     SCC iter.                  ...        0 min, 31.147 sec
     gradient                   ...        0 min,  3.013 sec
 * total energy  :  -972.8491388 Eh     change       -0.1925662E-01 Eh
   gradient norm :     0.0979858 Eh/a0  converged?    E=F G=F D=F
   step length   :     3.9659215 a0

........................................................................
.............................. CYCLE   15 ..............................
........................................................................
   1   -990.2588639 -0.990259E+03  0.115E-02    0.64       0.0  T
   2   -990.2589289 -0.649845E-04  0.826E-03    0.63       1.0  T
   3   -990.2589632 -0.342895E-04  0.317E-03    0.63       1.3  T
   4   -990.2589582  0.498253E-05  0.281E-03    0.64       1.5  T
   5   -990.2589642 -0.598924E-05  0.926E-04    0.63       4.6  T
   6   -990.2589654 -0.123940E-05  0.203E-04    0.63      20.9  T
   7   -990.2589655 -0.550361E-07  0.943E-05    0.63      45.0  T
   8   -990.2589655 -0.129718E-07  0.424E-05    0.63      99.9  T
     SCC iter.                  ...        0 min, 30.336 sec
     gradient                   ...        0 min,  2.996 sec
 * total energy  :  -972.8599802 Eh     change       -0.1084144E-01 Eh
   gradient norm :     0.0558641 Eh/a0  converged?    E=F G=F D=F
   step length   :     2.2728862 a0

........................................................................
.............................. CYCLE   16 ..............................
........................................................................
   1   -990.2845622 -0.990285E+03  0.958E-03    0.67       0.0  T
   2   -990.2845935 -0.313645E-04  0.799E-03    0.67       1.0  T
   3   -990.2846280 -0.345093E-04  0.301E-03    0.67       1.4  T
   4   -990.2846220  0.600138E-05  0.278E-03    0.67       1.5  T
   5   -990.2846291 -0.711126E-05  0.717E-04    0.67       5.9  T
   6   -990.2846297 -0.531600E-06  0.155E-04    0.67      27.3  T
   7   -990.2846297 -0.309063E-07  0.669E-05    0.67      63.4  T
     SCC iter.                  ...        0 min, 26.785 sec
     gradient                   ...        0 min,  2.844 sec
 * total energy  :  -972.8666672 Eh     change       -0.6686929E-02 Eh
   gradient norm :     0.0480130 Eh/a0  converged?    E=F G=F D=F
   step length   :     2.0139242 a0

........................................................................
.............................. CYCLE   17 ..............................
........................................................................
   1   -990.2911313 -0.990291E+03  0.668E-03    0.69       0.0  T
   2   -990.2911446 -0.133188E-04  0.526E-03    0.69       1.0  T
   3   -990.2911558 -0.112342E-04  0.218E-03    0.69       1.9  T
   4   -990.2911525  0.337347E-05  0.188E-03    0.69       2.3  T
   5   -990.2911562 -0.376996E-05  0.468E-04    0.69       9.1  T
   6   -990.2911565 -0.237019E-06  0.127E-04    0.69      33.4  T
   7   -990.2911565 -0.253531E-07  0.513E-05    0.69      82.6  T
     SCC iter.                  ...        0 min, 26.544 sec
     gradient                   ...        0 min,  3.789 sec
 * total energy  :  -972.8712336 Eh     change       -0.4566383E-02 Eh
   gradient norm :     0.0555753 Eh/a0  converged?    E=F G=F D=F
   step length   :     1.4488521 a0

........................................................................
.............................. CYCLE   18 ..............................
........................................................................
   1   -990.2843156 -0.990284E+03  0.433E-03    0.70       0.0  T
   2   -990.2843211 -0.550304E-05  0.305E-03    0.70       1.4  T
   3   -990.2843239 -0.278473E-05  0.152E-03    0.70       2.8  T
   4   -990.2843219  0.201858E-05  0.125E-03    0.70       3.4  T
   5   -990.2843243 -0.245430E-05  0.285E-04    0.70      14.9  T
   6   -990.2843244 -0.701814E-07  0.812E-05    0.70      52.3  T
   7   -990.2843244 -0.929845E-08  0.392E-05    0.70     108.1  T
     SCC iter.                  ...        0 min, 26.294 sec
     gradient                   ...        0 min,  3.012 sec
 * total energy  :  -972.8753451 Eh     change       -0.4111559E-02 Eh
   gradient norm :     0.0588027 Eh/a0  converged?    E=F G=F D=F
   step length   :     2.0434896 a0

........................................................................
.............................. CYCLE   19 ..............................
........................................................................
   1   -990.2708550 -0.990271E+03  0.358E-03    0.69       0.0  T
   2   -990.2708610 -0.597452E-05  0.220E-03    0.69       1.9  T
   3   -990.2708631 -0.208413E-05  0.111E-03    0.69       3.8  T
   4   -990.2708628  0.308007E-06  0.747E-04    0.69       5.7  T
   5   -990.2708634 -0.645443E-06  0.267E-04    0.69      15.9  T
   6   -990.2708635 -0.916402E-07  0.837E-05    0.69      50.7  T
   7   -990.2708635 -0.892544E-08  0.295E-05    0.69     143.8  T
     SCC iter.                  ...        0 min, 23.423 sec
     gradient                   ...        0 min,  3.034 sec
 * total energy  :  -972.8793768 Eh     change       -0.4031641E-02 Eh
   gradient norm :     0.0573182 Eh/a0  converged?    E=F G=F D=F
   step length   :     2.1558030 a0

........................................................................
.............................. CYCLE   20 ..............................
........................................................................
   1   -990.2517349 -0.990252E+03  0.368E-03    0.69       0.0  T
   2   -990.2517417 -0.677242E-05  0.235E-03    0.69       1.8  T
   3   -990.2517447 -0.302785E-05  0.979E-04    0.69       4.3  T
   4   -990.2517445  0.166170E-06  0.767E-04    0.69       5.5  T
   5   -990.2517450 -0.504076E-06  0.266E-04    0.69      15.9  T
   6   -990.2517451 -0.825976E-07  0.929E-05    0.69      45.7  T
   7   -990.2517451 -0.127318E-07  0.337E-05    0.69     126.0  T
     SCC iter.                  ...        0 min, 19.985 sec
     gradient                   ...        0 min,  1.938 sec
 * total energy  :  -972.8831398 Eh     change       -0.3763055E-02 Eh
   gradient norm :     0.0522785 Eh/a0  converged?    E=F G=F D=F
   step length   :     2.8611660 a0
 * RMSD in coord.:     0.6612088 a0     energy gain  -0.3221197E+01 Eh
 * calculating model hessian...
Using Lindh-Hessian (1995)
 Shifting diagonal of input Hessian by    1.0004747004823003E-002
 Lowest  eigenvalues of input Hessian
    0.010000    0.010000    0.010002    0.010002    0.010003    0.010004
    0.010004    0.010004    0.010004    0.010005    0.010005    0.000000
    0.000000    0.000000    0.000000    0.000000    0.000000    0.010005
 Highest eigenvalues
    2.868448    2.870003    2.874263    2.874881    2.882252    2.882390


........................................................................
.............................. CYCLE   21 ..............................
........................................................................
   1   -990.2733235 -0.990273E+03  0.564E-03    0.67       0.0  T
   2   -990.2733345 -0.110284E-04  0.453E-03    0.67       1.0  T
   3   -990.2733422 -0.773732E-05  0.192E-03    0.67       2.2  T
   4   -990.2733399  0.229795E-05  0.160E-03    0.67       2.6  T
   5   -990.2733423 -0.242329E-05  0.452E-04    0.67       9.4  T
   6   -990.2733426 -0.235381E-06  0.117E-04    0.67      36.4  T
   7   -990.2733426 -0.193081E-07  0.430E-05    0.67      98.7  T
     SCC iter.                  ...        0 min, 19.050 sec
     gradient                   ...        0 min,  1.949 sec
 * total energy  :  -972.8858631 Eh     change       -0.2723283E-02 Eh
   gradient norm :     0.0249831 Eh/a0  converged?    E=F G=F D=F
   step length   :     0.2834533 a0

........................................................................
.............................. CYCLE   22 ..............................
........................................................................
   1   -990.3039773 -0.990304E+03  0.107E-02    0.64       0.0  T
   2   -990.3040183 -0.409353E-04  0.829E-03    0.64       1.0  T
   3   -990.3040453 -0.270130E-04  0.338E-03    0.64       1.3  T
   4   -990.3040385  0.677444E-05  0.280E-03    0.64       1.5  T
   5   -990.3040456 -0.710919E-05  0.841E-04    0.64       5.0  T
   6   -990.3040464 -0.830041E-06  0.215E-04    0.64      19.8  T
   7   -990.3040465 -0.652853E-07  0.860E-05    0.64      49.3  T
   8   -990.3040465 -0.115128E-07  0.359E-05    0.64     118.2  T
     SCC iter.                  ...        0 min, 22.143 sec
     gradient                   ...        0 min,  1.943 sec
 * total energy  :  -972.8865447 Eh     change       -0.6816391E-03 Eh
   gradient norm :     0.0421537 Eh/a0  converged?    E=F G=F D=F
   step length   :     0.8272020 a0

........................................................................
.............................. CYCLE   23 ..............................
........................................................................
   1   -990.3075567 -0.990308E+03  0.318E-03    0.63       0.0  T
   2   -990.3075597 -0.293885E-05  0.253E-03    0.63       1.7  T
   3   -990.3075615 -0.182990E-05  0.125E-03    0.63       3.4  T
   4   -990.3075602  0.126414E-05  0.960E-04    0.63       4.4  T
   5   -990.3075616 -0.136382E-05  0.197E-04    0.63      21.5  T
   6   -990.3075616 -0.592088E-07  0.836E-05    0.63      50.7  T
   7   -990.3075617 -0.142709E-07  0.224E-05    0.63     189.5  T
     SCC iter.                  ...        0 min, 20.063 sec
     gradient                   ...        0 min,  1.951 sec
 * total energy  :  -972.8894258 Eh     change       -0.2881044E-02 Eh
   gradient norm :     0.0335016 Eh/a0  converged?    E=F G=F D=F
   step length   :     0.5117402 a0

........................................................................
.............................. CYCLE   24 ..............................
........................................................................
   1   -990.2955326 -0.990296E+03  0.433E-03    0.64       0.0  T
   2   -990.2955385 -0.586487E-05  0.352E-03    0.64       1.2  T
   3   -990.2955434 -0.496741E-05  0.156E-03    0.64       2.7  T
   4   -990.2955415  0.198128E-05  0.140E-03    0.64       3.0  T
   5   -990.2955437 -0.222371E-05  0.355E-04    0.64      11.9  T
   6   -990.2955438 -0.160013E-06  0.955E-05    0.64      44.4  T
   7   -990.2955439 -0.173227E-07  0.302E-05    0.64     140.3  T
     SCC iter.                  ...        0 min, 19.276 sec
     gradient                   ...        0 min,  1.943 sec
 * total energy  :  -972.8911979 Eh     change       -0.1772146E-02 Eh
   gradient norm :     0.0173996 Eh/a0  converged?    E=F G=F D=F
   step length   :     0.5308072 a0

........................................................................
.............................. CYCLE   25 ..............................
........................................................................
   1   -990.2860375 -0.990286E+03  0.387E-03    0.64       0.0  T
   2   -990.2860422 -0.471705E-05  0.289E-03    0.64       1.5  T
   3   -990.2860454 -0.317901E-05  0.135E-03    0.64       3.1  T
   4   -990.2860440  0.138413E-05  0.121E-03    0.64       3.5  T
   5   -990.2860458 -0.180456E-05  0.288E-04    0.64      14.7  T
   6   -990.2860459 -0.103653E-06  0.900E-05    0.64      47.1  T
   7   -990.2860459 -0.156356E-07  0.259E-05    0.64     163.7  T
     SCC iter.                  ...        0 min, 20.443 sec
     gradient                   ...        0 min,  1.940 sec
 * total energy  :  -972.8935441 Eh     change       -0.2346172E-02 Eh
   gradient norm :     0.0192383 Eh/a0  converged?    E=F G=F D=F
   step length   :     1.4296565 a0

........................................................................
.............................. CYCLE   26 ..............................
........................................................................
   1   -990.2774572 -0.990277E+03  0.237E-03    0.64       0.0  T
   2   -990.2774587 -0.150706E-05  0.142E-03    0.64       3.0  T
   3   -990.2774593 -0.602481E-06  0.822E-04    0.64       5.2  T
   4   -990.2774593  0.299862E-07  0.608E-04    0.64       7.0  T
   5   -990.2774598 -0.492217E-06  0.142E-04    0.64      29.9  T
   6   -990.2774598 -0.272362E-07  0.538E-05    0.64      78.8  T
     SCC iter.                  ...        0 min, 16.588 sec
     gradient                   ...        0 min,  1.934 sec
 * total energy  :  -972.8955449 Eh     change       -0.2000817E-02 Eh
   gradient norm :     0.0248669 Eh/a0  converged?    E=F G=F D=F
   step length   :     3.5637243 a0

........................................................................
.............................. CYCLE   27 ..............................
........................................................................
   1   -990.2729892 -0.990273E+03  0.143E-03    0.64       0.0  T
   2   -990.2729898 -0.590229E-06  0.771E-04    0.64       5.5  T
   3   -990.2729902 -0.354163E-06  0.443E-04    0.64       9.6  T
   4   -990.2729903 -0.796153E-07  0.282E-04    0.64      15.0  T
   5   -990.2729903 -0.720891E-07  0.112E-04    0.64      38.0  T
   6   -990.2729904 -0.224924E-07  0.284E-05    0.64     149.2  T
     SCC iter.                  ...        0 min, 16.610 sec
     gradient                   ...        0 min,  1.927 sec
 * total energy  :  -972.8973112 Eh     change       -0.1766291E-02 Eh
   gradient norm :     0.0257578 Eh/a0  converged?    E=F G=F D=F
   step length   :     3.3642334 a0

........................................................................
.............................. CYCLE   28 ..............................
........................................................................
   1   -990.2739341 -0.990274E+03  0.121E-03    0.64       0.0  T
   2   -990.2739345 -0.421821E-06  0.719E-04    0.64       5.9  T
   3   -990.2739348 -0.303208E-06  0.334E-04    0.64      12.7  T
   4   -990.2739348  0.657610E-08  0.231E-04    0.64      18.3  T
   5   -990.2739349 -0.540705E-07  0.889E-05    0.64      47.7  T
   6   -990.2739349 -0.129957E-07  0.229E-05    0.64     185.4  T
     SCC iter.                  ...        0 min, 17.109 sec
     gradient                   ...        0 min,  1.931 sec
 * total energy  :  -972.8990180 Eh     change       -0.1706838E-02 Eh
   gradient norm :     0.0234085 Eh/a0  converged?    E=F G=F D=F
   step length   :     3.5583116 a0

........................................................................
.............................. CYCLE   29 ..............................
........................................................................
   1   -990.2767629 -0.990277E+03  0.138E-03    0.64       0.0  T
   2   -990.2767634 -0.481874E-06  0.809E-04    0.64       5.2  T
   3   -990.2767636 -0.259800E-06  0.401E-04    0.64      10.6  T
   4   -990.2767636  0.285798E-07  0.291E-04    0.64      14.6  T
   5   -990.2767637 -0.100665E-06  0.960E-05    0.64      44.2  T
   6   -990.2767637 -0.127473E-07  0.247E-05    0.64     171.7  T
     SCC iter.                  ...        0 min, 17.117 sec
     gradient                   ...        0 min,  1.960 sec
 * total energy  :  -972.9005766 Eh     change       -0.1558567E-02 Eh
   gradient norm :     0.0198748 Eh/a0  converged?    E=F G=F D=F
   step length   :     3.4530024 a0

........................................................................
.............................. CYCLE   30 ..............................
........................................................................
   1   -990.2801570 -0.990280E+03  0.156E-03    0.65       0.0  T
   2   -990.2801576 -0.614142E-06  0.932E-04    0.65       4.6  T
   3   -990.2801579 -0.337602E-06  0.445E-04    0.65       9.5  T
   4   -990.2801579  0.452525E-07  0.364E-04    0.65      11.7  T
   5   -990.2801580 -0.169268E-06  0.104E-04    0.65      40.6  T
   6   -990.2801581 -0.105597E-07  0.333E-05    0.65     127.2  T
     SCC iter.                  ...        0 min, 16.989 sec
     gradient                   ...        0 min,  1.941 sec
 * total energy  :  -972.9019329 Eh     change       -0.1356328E-02 Eh
   gradient norm :     0.0156246 Eh/a0  converged?    E=F G=F D=F
   step length   :     3.2493232 a0

........................................................................
.............................. CYCLE   31 ..............................
........................................................................
   1   -990.2858314 -0.990286E+03  0.163E-03    0.65       0.0  T
   2   -990.2858321 -0.686167E-06  0.905E-04    0.65       4.7  T
   3   -990.2858323 -0.238249E-06  0.489E-04    0.65       8.7  T
   4   -990.2858323  0.838895E-09  0.379E-04    0.65      11.2  T
   5   -990.2858325 -0.191273E-06  0.105E-04    0.65      40.5  T
   6   -990.2858325 -0.117392E-07  0.324E-05    0.65     131.0  T
     SCC iter.                  ...        0 min, 16.969 sec
     gradient                   ...        0 min,  1.988 sec
 * total energy  :  -972.9031319 Eh     change       -0.1198961E-02 Eh
   gradient norm :     0.0125575 Eh/a0  converged?    E=F G=F D=F
   step length   :     2.9481860 a0

........................................................................
.............................. CYCLE   32 ..............................
........................................................................
   1   -990.2900103 -0.990290E+03  0.145E-03    0.65       0.0  T
   2   -990.2900109 -0.592355E-06  0.838E-04    0.65       5.1  T
   3   -990.2900112 -0.297839E-06  0.430E-04    0.65       9.9  T
   4   -990.2900112 -0.384894E-07  0.345E-04    0.65      12.3  T
   5   -990.2900114 -0.153309E-06  0.941E-05    0.65      45.0  T
   6   -990.2900114 -0.610396E-08  0.309E-05    0.65     137.0  T
     SCC iter.                  ...        0 min, 17.661 sec
     gradient                   ...        0 min,  1.920 sec
 * total energy  :  -972.9041308 Eh     change       -0.9989120E-03 Eh
   gradient norm :     0.0110950 Eh/a0  converged?    E=F G=F D=F
   step length   :     2.7478758 a0

........................................................................
.............................. CYCLE   33 ..............................
........................................................................
   1   -990.2973136 -0.990297E+03  0.141E-03    0.65       0.0  T
   2   -990.2973142 -0.601354E-06  0.788E-04    0.65       5.4  T
   3   -990.2973144 -0.223618E-06  0.430E-04    0.65       9.9  T
   4   -990.2973145 -0.392062E-07  0.340E-04    0.65      12.5  T
   5   -990.2973146 -0.150506E-06  0.902E-05    0.65      47.0  T
   6   -990.2973146 -0.771649E-08  0.275E-05    0.65     154.2  T
     SCC iter.                  ...        0 min, 17.178 sec
     gradient                   ...        0 min,  1.937 sec
 * total energy  :  -972.9049911 Eh     change       -0.8603162E-03 Eh
   gradient norm :     0.0110387 Eh/a0  converged?    E=F G=F D=F
   step length   :     2.4428761 a0

........................................................................
.............................. CYCLE   34 ..............................
........................................................................
   1   -990.3026732 -0.990303E+03  0.115E-03    0.65       0.0  T
   2   -990.3026735 -0.382551E-06  0.674E-04    0.65       6.3  T
   3   -990.3026738 -0.211575E-06  0.359E-04    0.65      11.8  T
   4   -990.3026738 -0.529034E-07  0.285E-04    0.65      14.9  T
   5   -990.3026739 -0.992769E-07  0.762E-05    0.65      55.7  T
   6   -990.3026739 -0.430668E-08  0.234E-05    0.65     181.4  T
     SCC iter.                  ...        0 min, 17.286 sec
     gradient                   ...        0 min,  1.935 sec
 * total energy  :  -972.9056893 Eh     change       -0.6982166E-03 Eh
   gradient norm :     0.0110728 Eh/a0  converged?    E=F G=F D=F
   step length   :     2.1496163 a0

........................................................................
.............................. CYCLE   35 ..............................
........................................................................
   1   -990.3121024 -0.990312E+03  0.120E-03    0.65       0.0  T
   2   -990.3121028 -0.435453E-06  0.654E-04    0.65       6.5  T
   3   -990.3121029 -0.117869E-06  0.377E-04    0.65      11.2  T
   4   -990.3121029 -0.193344E-07  0.292E-04    0.65      14.5  T
   5   -990.3121030 -0.103756E-06  0.844E-05    0.65      50.3  T
   6   -990.3121031 -0.103145E-07  0.223E-05    0.65     190.1  T
     SCC iter.                  ...        0 min, 17.196 sec
     gradient                   ...        0 min,  1.939 sec
 * total energy  :  -972.9062773 Eh     change       -0.5879862E-03 Eh
   gradient norm :     0.0109362 Eh/a0  converged?    E=F G=F D=F
   step length   :     1.7783437 a0

........................................................................
.............................. CYCLE   36 ..............................
........................................................................
   1   -990.3205289 -0.990321E+03  0.123E-03    0.65       0.0  T
   2   -990.3205293 -0.406840E-06  0.596E-04    0.65       7.1  T
   3   -990.3205293 -0.293803E-07  0.378E-04    0.65      11.2  T
   4   -990.3205294 -0.384244E-07  0.267E-04    0.65      15.9  T
   5   -990.3205294 -0.789009E-07  0.828E-05    0.65      51.2  T
   6   -990.3205294 -0.109750E-07  0.207E-05    0.65     204.7  T
     SCC iter.                  ...        0 min, 17.283 sec
     gradient                   ...        0 min,  1.934 sec
 * total energy  :  -972.9067593 Eh     change       -0.4820000E-03 Eh
   gradient norm :     0.0092781 Eh/a0  converged?    E=F G=F D=F
   step length   :     1.4127221 a0

........................................................................
.............................. CYCLE   37 ..............................
........................................................................
   1   -990.3297072 -0.990330E+03  0.151E-03    0.65       0.0  T
   2   -990.3297078 -0.585313E-06  0.673E-04    0.65       6.3  T
   3   -990.3297078 -0.208406E-07  0.469E-04    0.65       9.0  T
   4   -990.3297079 -0.113597E-06  0.274E-04    0.65      15.5  T
   5   -990.3297080 -0.606701E-07  0.986E-05    0.65      43.0  T
   6   -990.3297080 -0.151853E-07  0.299E-05    0.65     141.9  T
     SCC iter.                  ...        0 min, 16.983 sec
     gradient                   ...        0 min,  1.955 sec
 * total energy  :  -972.9071776 Eh     change       -0.4182954E-03 Eh
   gradient norm :     0.0072097 Eh/a0  converged?    E=F G=F D=F
   step length   :     1.0876530 a0

........................................................................
.............................. CYCLE   38 ..............................
........................................................................
   1   -990.3473020 -0.990347E+03  0.206E-03    0.65       0.0  T
   2   -990.3473030 -0.982827E-06  0.934E-04    0.65       4.5  T
   3   -990.3473030  0.575948E-07  0.675E-04    0.65       6.3  T
   4   -990.3473032 -0.252785E-06  0.417E-04    0.65      10.2  T
   5   -990.3473034 -0.199449E-06  0.122E-04    0.65      34.7  T
   6   -990.3473034 -0.247347E-07  0.357E-05    0.65     118.7  T
     SCC iter.                  ...        0 min, 17.006 sec
     gradient                   ...        0 min,  1.950 sec
 * total energy  :  -972.9075402 Eh     change       -0.3626215E-03 Eh
   gradient norm :     0.0070600 Eh/a0  converged?    E=F G=F D=F
   step length   :     0.7165844 a0

........................................................................
.............................. CYCLE   39 ..............................
........................................................................
   1   -990.3239181 -0.990324E+03  0.270E-03    0.65       0.0  T
   2   -990.3239198 -0.168196E-05  0.138E-03    0.65       3.1  T
   3   -990.3239198 -0.554651E-07  0.978E-04    0.65       4.3  T
   4   -990.3239203 -0.524458E-06  0.610E-04    0.65       7.0  T
   5   -990.3239208 -0.509192E-06  0.137E-04    0.65      31.0  T
   6   -990.3239209 -0.255387E-07  0.563E-05    0.65      75.3  T
     SCC iter.                  ...        0 min, 16.880 sec
     gradient                   ...        0 min,  1.942 sec
 * total energy  :  -972.9078750 Eh     change       -0.3347258E-03 Eh
   gradient norm :     0.0093494 Eh/a0  converged?    E=F G=F D=F
   step length   :     0.9234677 a0

........................................................................
.............................. CYCLE   40 ..............................
........................................................................
   1   -990.3740905 -0.990374E+03  0.478E-03    0.64       0.0  T
   2   -990.3740943 -0.386594E-05  0.241E-03    0.64       1.8  T
   3   -990.3740939  0.465537E-06  0.165E-03    0.64       2.6  T
   4   -990.3740944 -0.569077E-06  0.108E-03    0.64       3.9  T
   5   -990.3740962 -0.179967E-05  0.275E-04    0.64      15.4  T
   6   -990.3740963 -0.126345E-06  0.568E-05    0.64      74.7  T
   7   -990.3740964 -0.469367E-08  0.205E-05    0.64     206.6  T
     SCC iter.                  ...        0 min, 19.861 sec
     gradient                   ...        0 min,  1.944 sec
 * total energy  :  -972.9081550 Eh     change       -0.2800668E-03 Eh
   gradient norm :     0.0152372 Eh/a0  converged?    E=F G=F D=F
   step length   :     0.9085632 a0

........................................................................
.............................. CYCLE   41 ..............................
........................................................................
   1   -990.3477507 -0.990348E+03  0.292E-03    0.65       0.0  T
   2   -990.3477525 -0.180685E-05  0.130E-03    0.65       3.3  T
   3   -990.3477525 -0.540593E-07  0.845E-04    0.65       5.0  T
   4   -990.3477524  0.124178E-06  0.500E-04    0.65       8.5  T
   5   -990.3477527 -0.341205E-06  0.148E-04    0.65      28.6  T
   6   -990.3477528 -0.454421E-07  0.326E-05    0.65     130.1  T
     SCC iter.                  ...        0 min, 17.566 sec
     gradient                   ...        0 min,  1.937 sec
 * total energy  :  -972.9085750 Eh     change       -0.4199923E-03 Eh
   gradient norm :     0.0096107 Eh/a0  converged?    E=F G=F D=F
   step length   :     0.1893665 a0

........................................................................
.............................. CYCLE   42 ..............................
........................................................................
   1   -990.3261204 -0.990326E+03  0.335E-03    0.65       0.0  T
   2   -990.3261230 -0.255546E-05  0.148E-03    0.65       2.9  T
   3   -990.3261229  0.454451E-07  0.106E-03    0.65       4.0  T
   4   -990.3261234 -0.438467E-06  0.634E-04    0.65       6.7  T
   5   -990.3261238 -0.385310E-06  0.204E-04    0.65      20.8  T
   6   -990.3261239 -0.815868E-07  0.612E-05    0.65      69.3  T
   7   -990.3261239 -0.700891E-08  0.183E-05    0.65     231.9  T
     SCC iter.                  ...        0 min, 19.271 sec
     gradient                   ...        0 min,  1.931 sec
 * total energy  :  -972.9090249 Eh     change       -0.4498770E-03 Eh
   gradient norm :     0.0089812 Eh/a0  converged?    E=F G=F D=F
   step length   :     0.5984945 a0
 * RMSD in coord.:     0.6531165 a0     energy gain  -0.2588510E-01 Eh
 * calculating model hessian...
Using Lindh-Hessian (1995)
 Shifting diagonal of input Hessian by    1.0003398258741072E-002
 Lowest  eigenvalues of input Hessian
    0.010000    0.010000    0.010002    0.010002    0.010002    0.010002
    0.010003    0.010003    0.010003    0.010003    0.010003    0.000000
    0.000000    0.000000    0.000000    0.000000    0.000000    0.010004
 Highest eigenvalues
    2.888591    2.888767    2.888882    2.889582    2.889882    2.890573


........................................................................
.............................. CYCLE   43 ..............................
........................................................................
   1   -990.3308167 -0.990331E+03  0.138E-03    0.65       0.0  T
   2   -990.3308169 -0.204102E-06  0.805E-04    0.65       5.3  T
   3   -990.3308169  0.545821E-07  0.488E-04    0.65       8.7  T
   4   -990.3308169 -0.118498E-07  0.282E-04    0.65      15.0  T
   5   -990.3308170 -0.138749E-06  0.667E-05    0.65      63.6  T
   6   -990.3308170 -0.760315E-08  0.169E-05    0.65     251.3  T
     SCC iter.                  ...        0 min, 17.072 sec
     gradient                   ...        0 min,  1.961 sec
 * total energy  :  -972.9092593 Eh     change       -0.2343508E-03 Eh
   gradient norm :     0.0054370 Eh/a0  converged?    E=F G=F D=F
   step length   :     0.1083734 a0

........................................................................
.............................. CYCLE   44 ..............................
........................................................................
   1   -990.3366493 -0.990337E+03  0.217E-03    0.65       0.0  T
   2   -990.3366499 -0.584094E-06  0.129E-03    0.65       3.3  T
   3   -990.3366498  0.738336E-07  0.813E-04    0.65       5.2  T
   4   -990.3366499 -0.926848E-07  0.504E-04    0.65       8.4  T
   5   -990.3366503 -0.426176E-06  0.121E-04    0.65      35.1  T
   6   -990.3366503 -0.236279E-07  0.336E-05    0.65     126.2  T
     SCC iter.                  ...        0 min, 16.656 sec
     gradient                   ...        0 min,  1.943 sec
 * total energy  :  -972.9095435 Eh     change       -0.2842841E-03 Eh
   gradient norm :     0.0081285 Eh/a0  converged?    E=F G=F D=F
   step length   :     0.3109636 a0

........................................................................
.............................. CYCLE   45 ..............................
........................................................................
   1   -990.3355618 -0.990336E+03  0.157E-03    0.65       0.0  T
   2   -990.3355621 -0.336952E-06  0.994E-04    0.65       4.3  T
   3   -990.3355625 -0.418584E-06  0.600E-04    0.65       7.1  T
   4   -990.3355627 -0.211633E-06  0.389E-04    0.65      10.9  T
   5   -990.3355629 -0.180745E-06  0.113E-04    0.65      37.6  T
   6   -990.3355629 -0.179706E-07  0.363E-05    0.65     117.0  T
     SCC iter.                  ...        0 min, 16.853 sec
     gradient                   ...        0 min,  1.939 sec
 * total energy  :  -972.9096732 Eh     change       -0.1296923E-03 Eh
   gradient norm :     0.0129692 Eh/a0  converged?    E=F G=F D=F
   step length   :     0.4909483 a0

........................................................................
.............................. CYCLE   46 ..............................
........................................................................
   1   -990.3293670 -0.990329E+03  0.129E-03    0.65       0.0  T
   2   -990.3293672 -0.201445E-06  0.779E-04    0.65       5.4  T
   3   -990.3293671  0.336087E-07  0.515E-04    0.65       8.2  T
   4   -990.3293672 -0.612507E-07  0.292E-04    0.65      14.5  T
   5   -990.3293674 -0.146282E-06  0.740E-05    0.65      57.3  T
   6   -990.3293674 -0.909506E-08  0.182E-05    0.65     232.9  T
     SCC iter.                  ...        0 min, 16.828 sec
     gradient                   ...        0 min,  1.939 sec
 * total energy  :  -972.9101246 Eh     change       -0.4513147E-03 Eh
   gradient norm :     0.0087880 Eh/a0  converged?    E=F G=F D=F
   step length   :     0.3195007 a0

........................................................................
.............................. CYCLE   47 ..............................
........................................................................
   1   -990.3191098 -0.990319E+03  0.216E-03    0.65       0.0  T
   2   -990.3191104 -0.599721E-06  0.129E-03    0.65       3.3  T
   3   -990.3191104  0.329079E-07  0.808E-04    0.65       5.2  T
   4   -990.3191104 -0.605813E-07  0.435E-04    0.65       9.7  T
   5   -990.3191108 -0.308915E-06  0.123E-04    0.65      34.6  T
   6   -990.3191108 -0.257343E-07  0.274E-05    0.65     154.6  T
     SCC iter.                  ...        0 min, 16.702 sec
     gradient                   ...        0 min,  1.915 sec
 * total energy  :  -972.9104463 Eh     change       -0.3217484E-03 Eh
   gradient norm :     0.0064136 Eh/a0  converged?    E=F G=F D=F
   step length   :     0.5198530 a0

........................................................................
.............................. CYCLE   48 ..............................
........................................................................
   1   -990.3066021 -0.990307E+03  0.229E-03    0.65       0.0  T
   2   -990.3066028 -0.751191E-06  0.140E-03    0.65       3.0  T
   3   -990.3066029 -0.162503E-07  0.871E-04    0.65       4.9  T
   4   -990.3066028  0.111463E-07  0.492E-04    0.65       8.6  T
   5   -990.3066033 -0.430870E-06  0.137E-04    0.65      30.9  T
   6   -990.3066033 -0.324968E-07  0.314E-05    0.65     135.1  T
     SCC iter.                  ...        0 min, 17.191 sec
     gradient                   ...        0 min,  1.948 sec
 * total energy  :  -972.9105797 Eh     change       -0.1334103E-03 Eh
   gradient norm :     0.0123742 Eh/a0  converged?    E=F G=F D=F
   step length   :     0.7274581 a0

........................................................................
.............................. CYCLE   49 ..............................
........................................................................
   1   -990.3167925 -0.990317E+03  0.134E-03    0.65       0.0  T
   2   -990.3167927 -0.263089E-06  0.822E-04    0.65       5.2  T
   3   -990.3167928 -0.446026E-07  0.480E-04    0.65       8.8  T
   4   -990.3167927  0.416601E-07  0.259E-04    0.65      16.4  T
   5   -990.3167928 -0.107963E-06  0.771E-05    0.65      55.0  T
   6   -990.3167928 -0.109649E-07  0.158E-05    0.65     267.8  T
     SCC iter.                  ...        0 min, 16.684 sec
     gradient                   ...        0 min,  1.936 sec
 * total energy  :  -972.9109818 Eh     change       -0.4021156E-03 Eh
   gradient norm :     0.0073236 Eh/a0  converged?    E=F G=F D=F
   step length   :     0.1033594 a0

........................................................................
.............................. CYCLE   50 ..............................
........................................................................
   1   -990.3254489 -0.990325E+03  0.129E-03    0.65       0.0  T
   2   -990.3254492 -0.262770E-06  0.750E-04    0.65       5.7  T
   3   -990.3254492 -0.422392E-07  0.521E-04    0.65       8.1  T
   4   -990.3254494 -0.132045E-06  0.289E-04    0.65      14.7  T
   5   -990.3254495 -0.114820E-06  0.846E-05    0.65      50.1  T
   6   -990.3254495 -0.118952E-07  0.249E-05    0.65     170.1  T
     SCC iter.                  ...        0 min, 18.124 sec
     gradient                   ...        0 min,  1.933 sec
 * total energy  :  -972.9113479 Eh     change       -0.3660382E-03 Eh
   gradient norm :     0.0049915 Eh/a0  converged?    E=F G=F D=F
   step length   :     0.4409190 a0

........................................................................
.............................. CYCLE   51 ..............................
........................................................................
   1   -990.3237793 -0.990324E+03  0.131E-03    0.65       0.0  T
   2   -990.3237798 -0.478445E-06  0.816E-04    0.65       5.2  T
   3   -990.3237802 -0.430766E-06  0.464E-04    0.65       9.1  T
   4   -990.3237804 -0.122689E-06  0.282E-04    0.65      15.0  T
   5   -990.3237804 -0.793865E-07  0.100E-04    0.65      42.3  T
   6   -990.3237805 -0.119005E-07  0.416E-05    0.65     102.0  T
     SCC iter.                  ...        0 min, 17.176 sec
     gradient                   ...        0 min,  1.941 sec
 * total energy  :  -972.9117895 Eh     change       -0.4416021E-03 Eh
   gradient norm :     0.0077218 Eh/a0  converged?    E=F G=F D=F
   step length   :     1.2728294 a0

........................................................................
.............................. CYCLE   52 ..............................
........................................................................
   1   -990.3229002 -0.990323E+03  0.129E-03    0.65       0.0  T
   2   -990.3229007 -0.423219E-06  0.818E-04    0.65       5.2  T
   3   -990.3229011 -0.455721E-06  0.466E-04    0.65       9.1  T
   4   -990.3229012 -0.133714E-06  0.280E-04    0.65      15.1  T
   5   -990.3229013 -0.739685E-07  0.993E-05    0.65      42.7  T
   6   -990.3229013 -0.122225E-07  0.403E-05    0.65     105.2  T
     SCC iter.                  ...        0 min, 17.169 sec
     gradient                   ...        0 min,  1.958 sec
 * total energy  :  -972.9122134 Eh     change       -0.4239108E-03 Eh
   gradient norm :     0.0098747 Eh/a0  converged?    E=F G=F D=F
   step length   :     1.5431762 a0

........................................................................
.............................. CYCLE   53 ..............................
........................................................................
   1   -990.3277415 -0.990328E+03  0.115E-03    0.65       0.0  T
   2   -990.3277419 -0.324455E-06  0.785E-04    0.65       5.4  T
   3   -990.3277424 -0.536896E-06  0.396E-04    0.65      10.7  T
   4   -990.3277425 -0.786997E-07  0.254E-04    0.65      16.7  T
   5   -990.3277425 -0.642480E-07  0.888E-05    0.65      47.8  T
   6   -990.3277426 -0.900809E-08  0.347E-05    0.65     122.4  T
     SCC iter.                  ...        0 min, 18.179 sec
     gradient                   ...        0 min,  1.944 sec
 * total energy  :  -972.9126644 Eh     change       -0.4510246E-03 Eh
   gradient norm :     0.0104274 Eh/a0  converged?    E=F G=F D=F
   step length   :     1.5086266 a0

........................................................................
.............................. CYCLE   54 ..............................
........................................................................
   1   -990.3207848 -0.990321E+03  0.110E-03    0.65       0.0  T
   2   -990.3207852 -0.369689E-06  0.678E-04    0.65       6.3  T
   3   -990.3207853 -0.156081E-06  0.409E-04    0.65      10.4  T
   4   -990.3207854 -0.206801E-07  0.263E-04    0.65      16.1  T
   5   -990.3207854 -0.903467E-07  0.751E-05    0.65      56.5  T
   6   -990.3207855 -0.842908E-08  0.262E-05    0.65     161.9  T
     SCC iter.                  ...        0 min, 17.191 sec
     gradient                   ...        0 min,  1.945 sec
 * total energy  :  -972.9130657 Eh     change       -0.4012793E-03 Eh
   gradient norm :     0.0116212 Eh/a0  converged?    E=F G=F D=F
   step length   :     1.8030947 a0

........................................................................
.............................. CYCLE   55 ..............................
........................................................................
   1   -990.3404563 -0.990340E+03  0.227E-03    0.65       0.0  T
   2   -990.3404571 -0.876734E-06  0.132E-03    0.65       3.2  T
   3   -990.3404571  0.553035E-07  0.838E-04    0.65       5.1  T
   4   -990.3404571 -0.589790E-07  0.499E-04    0.65       8.5  T
   5   -990.3404576 -0.430360E-06  0.139E-04    0.65      30.6  T
   6   -990.3404576 -0.316757E-07  0.256E-05    0.65     165.5  T
     SCC iter.                  ...        0 min, 16.626 sec
     gradient                   ...        0 min,  1.949 sec
 * total energy  :  -972.9136111 Eh     change       -0.5454039E-03 Eh
   gradient norm :     0.0089483 Eh/a0  converged?    E=F G=F D=F
   step length   :     1.8970433 a0

........................................................................
.............................. CYCLE   56 ..............................
........................................................................
   1   -990.3198303 -0.990320E+03  0.228E-03    0.65       0.0  T
   2   -990.3198311 -0.803604E-06  0.131E-03    0.65       3.2  T
   3   -990.3198310  0.171052E-06  0.789E-04    0.65       5.4  T
   4   -990.3198308  0.144838E-06  0.506E-04    0.65       8.4  T
   5   -990.3198314 -0.543645E-06  0.872E-05    0.65      48.6  T
   6   -990.3198314 -0.129074E-07  0.312E-05    0.65     136.1  T
     SCC iter.                  ...        0 min, 17.769 sec
     gradient                   ...        0 min,  1.939 sec
 * total energy  :  -972.9139081 Eh     change       -0.2970544E-03 Eh
   gradient norm :     0.0110333 Eh/a0  converged?    E=F G=F D=F
   step length   :     3.1612342 a0

........................................................................
.............................. CYCLE   57 ..............................
........................................................................
   1   -990.3202937 -0.990320E+03  0.194E-03    0.65       0.0  T
   2   -990.3202942 -0.545078E-06  0.103E-03    0.65       4.1  T
   3   -990.3202944 -0.204429E-06  0.783E-04    0.65       5.4  T
   4   -990.3202951 -0.681306E-06  0.384E-04    0.65      11.0  T
   5   -990.3202952 -0.115053E-06  0.124E-04    0.65      34.2  T
   6   -990.3202953 -0.218856E-07  0.461E-05    0.65      92.1  T
     SCC iter.                  ...        0 min, 17.139 sec
     gradient                   ...        0 min,  1.953 sec
 * total energy  :  -972.9144355 Eh     change       -0.5273445E-03 Eh
   gradient norm :     0.0093410 Eh/a0  converged?    E=F G=F D=F
   step length   :     0.9273852 a0

........................................................................
.............................. CYCLE   58 ..............................
........................................................................
   1   -990.3340740 -0.990334E+03  0.222E-03    0.65       0.0  T
   2   -990.3340747 -0.770394E-06  0.132E-03    0.65       3.2  T
   3   -990.3340749 -0.108424E-06  0.931E-04    0.65       4.6  T
   4   -990.3340753 -0.440254E-06  0.514E-04    0.65       8.3  T
   5   -990.3340756 -0.355585E-06  0.143E-04    0.65      29.6  T
   6   -990.3340757 -0.309542E-07  0.347E-05    0.65     122.3  T
     SCC iter.                  ...        0 min, 16.822 sec
     gradient                   ...        0 min,  1.950 sec
 * total energy  :  -972.9147926 Eh     change       -0.3571329E-03 Eh
   gradient norm :     0.0057663 Eh/a0  converged?    E=F G=F D=F
   step length   :     0.5348840 a0

........................................................................
.............................. CYCLE   59 ..............................
........................................................................
   1   -990.3132568 -0.990313E+03  0.206E-03    0.65       0.0  T
   2   -990.3132573 -0.517472E-06  0.119E-03    0.65       3.6  T
   3   -990.3132570  0.288440E-06  0.832E-04    0.65       5.1  T
   4   -990.3132573 -0.308808E-06  0.469E-04    0.65       9.0  T
   5   -990.3132577 -0.359684E-06  0.984E-05    0.65      43.1  T
   6   -990.3132577 -0.137456E-07  0.309E-05    0.65     137.2  T
     SCC iter.                  ...        0 min, 17.037 sec
     gradient                   ...        0 min,  2.015 sec
 * total energy  :  -972.9149658 Eh     change       -0.1731845E-03 Eh
   gradient norm :     0.0082444 Eh/a0  converged?    E=F G=F D=F
   step length   :     1.2203302 a0

........................................................................
.............................. CYCLE   60 ..............................
........................................................................
   1   -990.3247494 -0.990325E+03  0.164E-03    0.65       0.0  T
   2   -990.3247498 -0.470998E-06  0.952E-04    0.65       4.5  T
   3   -990.3247499 -0.292021E-07  0.638E-04    0.65       6.7  T
   4   -990.3247500 -0.114206E-06  0.369E-04    0.65      11.5  T
   5   -990.3247502 -0.174353E-06  0.111E-04    0.65      38.2  T
   6   -990.3247502 -0.219297E-07  0.224E-05    0.65     189.1  T
     SCC iter.                  ...        0 min, 16.823 sec
     gradient                   ...        0 min,  1.951 sec
 * total energy  :  -972.9152155 Eh     change       -0.2496587E-03 Eh
   gradient norm :     0.0056772 Eh/a0  converged?    E=F G=F D=F
   step length   :     0.2658228 a0

........................................................................
.............................. CYCLE   61 ..............................
........................................................................
   1   -990.3209777 -0.990321E+03  0.175E-03    0.65       0.0  T
   2   -990.3209785 -0.766398E-06  0.106E-03    0.65       4.0  T
   3   -990.3209794 -0.856751E-06  0.603E-04    0.65       7.0  T
   4   -990.3209796 -0.276049E-06  0.345E-04    0.65      12.3  T
   5   -990.3209797 -0.594504E-07  0.160E-04    0.65      26.4  T
   6   -990.3209797 -0.404157E-07  0.353E-05    0.65     120.3  T
     SCC iter.                  ...        0 min, 16.895 sec
     gradient                   ...        0 min,  1.952 sec
 * total energy  :  -972.9156052 Eh     change       -0.3897098E-03 Eh
   gradient norm :     0.0083749 Eh/a0  converged?    E=F G=F D=F
   step length   :     1.0772742 a0

........................................................................
.............................. CYCLE   62 ..............................
........................................................................
   1   -990.3235403 -0.990324E+03  0.116E-03    0.65       0.0  T
   2   -990.3235406 -0.382001E-06  0.694E-04    0.65       6.1  T
   3   -990.3235410 -0.310875E-06  0.400E-04    0.65      10.6  T
   4   -990.3235410 -0.887424E-07  0.232E-04    0.65      18.2  T
   5   -990.3235411 -0.365077E-07  0.107E-04    0.65      39.7  T
   6   -990.3235411 -0.192098E-07  0.258E-05    0.65     164.1  T
     SCC iter.                  ...        0 min, 17.009 sec
     gradient                   ...        0 min,  1.957 sec
 * total energy  :  -972.9158856 Eh     change       -0.2804774E-03 Eh
   gradient norm :     0.0095336 Eh/a0  converged?    E=F G=F D=F
   step length   :     0.7547820 a0

........................................................................
.............................. CYCLE   63 ..............................
........................................................................
   1   -990.3299672 -0.990330E+03  0.132E-03    0.65       0.0  T
   2   -990.3299676 -0.428209E-06  0.770E-04    0.65       5.5  T
   3   -990.3299679 -0.240609E-06  0.451E-04    0.65       9.4  T
   4   -990.3299680 -0.887537E-07  0.293E-04    0.65      14.5  T
[...]
   298   6 C      320   1 H                                       1.0862047
   300   6 C      321   1 H                                       1.0862264
   301   6 C      322   1 H                                       1.0833481
   303   6 C      323   1 H                                       1.0782983
   304   6 C      324   1 H                                       1.0782506
   325   6 C      326   6 C                                       1.4096162
   326   6 C      327   6 C                                       1.4176544
   327   6 C      328   6 C                                       1.3699838
   328   6 C      329   6 C                                       1.4179614
   326   6 C      330   7 N                                       1.3640092
   329   6 C      330   7 N                                       1.3652547
   329   6 C      331   6 C                                       1.4074367
   332   6 C      333   6 C                                       1.2135668
   334   6 C      335   6 C                                       1.3998970
   335   6 C      336   6 C                                       1.3834613
   336   6 C      337   7 N                                       1.3306451
   337   7 N      338   6 C                                       1.3306053
   334   6 C      339   6 C                                       1.3998567
   338   6 C      339   6 C                                       1.3835207
   331   6 C      340   6 C                                       1.4032618
   340   6 C      341   6 C                                       1.4496817
   341   6 C      342   6 C                                       1.3497804
   340   6 C      343   7 N                                       1.3557303
   342   6 C      344   6 C                                       1.4496204
   343   7 N      344   6 C                                       1.3516721
   344   6 C      345   6 C                                       1.4078219
   345   6 C      346   6 C                                       1.4096301
   346   6 C      347   6 C                                       1.4176584
   347   6 C      348   6 C                                       1.3699881
   348   6 C      349   6 C                                       1.4179579
   346   6 C      350   7 N                                       1.3640142
   349   6 C      350   7 N                                       1.3652609
   349   6 C      351   6 C                                       1.4074333
   352   6 C      353   6 C                                       1.2135737
   354   6 C      355   6 C                                       1.3998911
   355   6 C      356   6 C                                       1.3834603
   356   6 C      357   7 N                                       1.3306483
   357   7 N      358   6 C                                       1.3305975
   354   6 C      359   6 C                                       1.3998683
   358   6 C      359   6 C                                       1.3834991
   351   6 C      360   6 C                                       1.4032740
   360   6 C      361   6 C                                       1.4496944
   361   6 C      362   6 C                                       1.3497843
   325   6 C      363   6 C                                       1.4078221
   362   6 C      363   6 C                                       1.4496247
   360   6 C      364   7 N                                       1.3557323
   363   6 C      364   7 N                                       1.3516782
   327   6 C      365   1 H                                       1.0780288
   328   6 C      366   1 H                                       1.0780897
   330   7 N      367   1 H                                       1.0146025
   335   6 C      368   1 H                                       1.0832909
   336   6 C      369   1 H                                       1.0862213
   338   6 C      370   1 H                                       1.0861992
   339   6 C      371   1 H                                       1.0833662
   341   6 C      372   1 H                                       1.0782937
   342   6 C      373   1 H                                       1.0782400
   347   6 C      374   1 H                                       1.0780303
   348   6 C      375   1 H                                       1.0780929
   350   7 N      376   1 H                                       1.0146045
   355   6 C      377   1 H                                       1.0833114
   356   6 C      378   1 H                                       1.0862077
   358   6 C      379   1 H                                       1.0862243
   359   6 C      380   1 H                                       1.0833481
   361   6 C      381   1 H                                       1.0782991
   362   6 C      382   1 H                                       1.0782516
   383   6 C      384   6 C                                       1.4096074
   384   6 C      385   6 C                                       1.4176608
   385   6 C      386   6 C                                       1.3699766
   386   6 C      387   6 C                                       1.4179675
   384   6 C      388   7 N                                       1.3640021
   387   6 C      388   7 N                                       1.3652694
   387   6 C      389   6 C                                       1.4074224
   390   6 C      391   6 C                                       1.2135667
   392   6 C      393   6 C                                       1.3999048
   393   6 C      394   6 C                                       1.3834604
   394   6 C      395   7 N                                       1.3306527
   395   7 N      396   6 C                                       1.3306017
   392   6 C      397   6 C                                       1.3998548
   396   6 C      397   6 C                                       1.3835185
   389   6 C      398   6 C                                       1.4032795
   398   6 C      399   6 C                                       1.4496713
   399   6 C      400   6 C                                       1.3497878
   398   6 C      401   7 N                                       1.3557147
   400   6 C      402   6 C                                       1.4496113
   401   7 N      402   6 C                                       1.3516896
   402   6 C      403   6 C                                       1.4078061
   403   6 C      404   6 C                                       1.4096333
   404   6 C      405   6 C                                       1.4176566
   405   6 C      406   6 C                                       1.3699949
   406   6 C      407   6 C                                       1.4179501
   404   6 C      408   7 N                                       1.3640208
   407   6 C      408   7 N                                       1.3652487
   407   6 C      409   6 C                                       1.4074502
   410   6 C      411   6 C                                       1.2135729
   412   6 C      413   6 C                                       1.3998931
   413   6 C      414   6 C                                       1.3834610
   414   6 C      415   7 N                                       1.3306571
   415   7 N      416   6 C                                       1.3305979
   412   6 C      417   6 C                                       1.3998715
   416   6 C      417   6 C                                       1.3835043
   409   6 C      418   6 C                                       1.4032536
   418   6 C      419   6 C                                       1.4496967
   419   6 C      420   6 C                                       1.3497772
   383   6 C      421   6 C                                       1.4078343
   420   6 C      421   6 C                                       1.4496376
   418   6 C      422   7 N                                       1.3557479
   421   6 C      422   7 N                                       1.3516580
   385   6 C      423   1 H                                       1.0780276
   386   6 C      424   1 H                                       1.0780884
   388   7 N      425   1 H                                       1.0146008
   393   6 C      426   1 H                                       1.0833033
   394   6 C      427   1 H                                       1.0862166
   396   6 C      428   1 H                                       1.0862145
   397   6 C      429   1 H                                       1.0833612
   399   6 C      430   1 H                                       1.0782950
   400   6 C      431   1 H                                       1.0782388
   405   6 C      432   1 H                                       1.0780338
   406   6 C      433   1 H                                       1.0780931
   408   7 N      434   1 H                                       1.0146056
   413   6 C      435   1 H                                       1.0833155
   414   6 C      436   1 H                                       1.0862105
   416   6 C      437   1 H                                       1.0862289
   417   6 C      438   1 H                                       1.0833464
   419   6 C      439   1 H                                       1.0782995
   420   6 C      440   1 H                                       1.0782504
   441   6 C      442   6 C                                       1.4095748
   442   6 C      443   6 C                                       1.4176806
   443   6 C      444   6 C                                       1.3699569
   444   6 C      445   6 C                                       1.4179960
   442   6 C      446   7 N                                       1.3639989
   445   6 C      446   7 N                                       1.3652890
   445   6 C      447   6 C                                       1.4073789
   448   6 C      449   6 C                                       1.2135660
   450   6 C      451   6 C                                       1.3998914
   451   6 C      452   6 C                                       1.3834506
   452   6 C      453   7 N                                       1.3306370
   453   7 N      454   6 C                                       1.3306102
   450   6 C      455   6 C                                       1.3998612
   454   6 C      455   6 C                                       1.3835195
   447   6 C      456   6 C                                       1.4033447
   456   6 C      457   6 C                                       1.4496685
   457   6 C      458   6 C                                       1.3497945
   456   6 C      459   7 N                                       1.3556479
   458   6 C      460   6 C                                       1.4495926
   459   7 N      460   6 C                                       1.3517665
   460   6 C      461   6 C                                       1.4077155
   461   6 C      462   6 C                                       1.4096153
   462   6 C      463   6 C                                       1.4176647
   463   6 C      464   6 C                                       1.3699807
   464   6 C      465   6 C                                       1.4179486
   462   6 C      466   7 N                                       1.3640402
   465   6 C      466   7 N                                       1.3652146
   465   6 C      467   6 C                                       1.4074780
   468   6 C      469   6 C                                       1.2135684
   470   6 C      471   6 C                                       1.3998815
   471   6 C      472   6 C                                       1.3834584
   472   6 C      473   7 N                                       1.3306678
   473   7 N      474   6 C                                       1.3306012
   470   6 C      475   6 C                                       1.3998873
   474   6 C      475   6 C                                       1.3835109
   467   6 C      476   6 C                                       1.4032087
   476   6 C      477   6 C                                       1.4496954
   477   6 C      478   6 C                                       1.3497716
   441   6 C      479   6 C                                       1.4078443
   478   6 C      479   6 C                                       1.4496576
   476   6 C      480   7 N                                       1.3557613
   479   6 C      480   7 N                                       1.3516262
   443   6 C      481   1 H                                       1.0780308
   444   6 C      482   1 H                                       1.0780897
   446   7 N      483   1 H                                       1.0145991
   451   6 C      484   1 H                                       1.0832843
   452   6 C      485   1 H                                       1.0862102
   454   6 C      486   1 H                                       1.0862080
   455   6 C      487   1 H                                       1.0833630
   457   6 C      488   1 H                                       1.0783014
   458   6 C      489   1 H                                       1.0782379
   463   6 C      490   1 H                                       1.0780355
   464   6 C      491   1 H                                       1.0780852
   466   7 N      492   1 H                                       1.0146027
   471   6 C      493   1 H                                       1.0833230
   472   6 C      494   1 H                                       1.0862139
   474   6 C      495   1 H                                       1.0862330
   475   6 C      496   1 H                                       1.0833439
   477   6 C      497   1 H                                       1.0783049
   478   6 C      498   1 H                                       1.0782458
   499   6 C      500   6 C                                       1.4093595
   500   6 C      501   6 C                                       1.4178929
   501   6 C      502   6 C                                       1.3697776
   502   6 C      503   6 C                                       1.4182452
   500   6 C      504   7 N                                       1.3639573
   503   6 C      504   7 N                                       1.3653413
   503   6 C      505   6 C                                       1.4069047
   506   6 C      507   6 C                                       1.2135953
   508   6 C      509   6 C                                       1.3999357
   509   6 C      510   6 C                                       1.3834325
   510   6 C      511   7 N                                       1.3306718
   511   7 N      512   6 C                                       1.3306112
   508   6 C      513   6 C                                       1.3998458
   512   6 C      513   6 C                                       1.3835217
   505   6 C      514   6 C                                       1.4039788
   514   6 C      515   6 C                                       1.4498818
   515   6 C      516   6 C                                       1.3496190
   514   6 C      517   7 N                                       1.3546138
   516   6 C      518   6 C                                       1.4497483
   517   7 N      518   6 C                                       1.3529422
   518   6 C      519   6 C                                       1.4062330
   519   6 C      520   6 C                                       1.4083244
   520   6 C      521   6 C                                       1.4180609
   521   6 C      522   6 C                                       1.3697140
   522   6 C      523   6 C                                       1.4182765
   520   6 C      524   7 N                                       1.3645772
   523   6 C      524   7 N                                       1.3649001
   523   6 C      525   6 C                                       1.4073936
   526   6 C      527   6 C                                       1.2135558
   528   6 C      529   6 C                                       1.3999338
   529   6 C      530   6 C                                       1.3834371
   530   6 C      531   7 N                                       1.3306639
   531   7 N      532   6 C                                       1.3306138
   528   6 C      533   6 C                                       1.3998435
   532   6 C      533   6 C                                       1.3835072
   525   6 C      534   6 C                                       1.4033174
   534   6 C      535   6 C                                       1.4498044
   535   6 C      536   6 C                                       1.3497286
   499   6 C      537   6 C                                       1.4077757
   536   6 C      537   6 C                                       1.4497134
   534   6 C      538   7 N                                       1.3556790
   537   6 C      538   7 N                                       1.3516400
   501   6 C      539   1 H                                       1.0780390
   502   6 C      540   1 H                                       1.0781043
   504   7 N      541   1 H                                       1.0146001
   509   6 C      542   1 H                                       1.0832844
   510   6 C      543   1 H                                       1.0862038
   512   6 C      544   1 H                                       1.0862167
   513   6 C      545   1 H                                       1.0833660
   515   6 C      546   1 H                                       1.0782903
   516   6 C      547   1 H                                       1.0781942
   521   6 C      548   1 H                                       1.0780366
   522   6 C      549   1 H                                       1.0781018
   524   7 N      550   1 H                                       1.0146054
   529   6 C      551   1 H                                       1.0833154
   530   6 C      552   1 H                                       1.0862246
   532   6 C      553   1 H                                       1.0862231
   533   6 C      554   1 H                                       1.0833489
   535   6 C      555   1 H                                       1.0783022
   536   6 C      556   1 H                                       1.0782500

 * 4 distinct bonds (by element types)

   Z      Z             #   av. dist./Å        max./Å        min./Å
   1 H    6 C         146     1.0815390     1.0862662     1.0780190
   6 C    6 C         286     1.3812263     1.4526429     1.2135311
   1 H    7 N          18     1.0145989     1.0146880     1.0144855
   6 C    7 N         108     1.3496928     1.3677597     1.3305960


optimized geometry written to: xtbopt.xyz


           -------------------------------------------------
          | TOTAL ENERGY             -972.918598815212 Eh   |
          | GRADIENT NORM               0.000530829272 Eh/α |
          | HOMO-LUMO GAP               0.649719389898 eV   |
           -------------------------------------------------

------------------------------------------------------------------------
 * finished run on 2022/07/28 at 22:51:52.456     
------------------------------------------------------------------------
 total:
 * wall-time:     0 d,  0 h, 45 min, 23.199 sec
 *  cpu-time:     0 d,  0 h, 45 min,  5.762 sec
 * ratio c/w:     0.994 speedup
 SCF:
 * wall-time:     0 d,  0 h,  3 min, 16.878 sec
 *  cpu-time:     0 d,  0 h,  3 min, 15.465 sec
 * ratio c/w:     0.993 speedup
 ANC optimizer:
 * wall-time:     0 d,  0 h, 42 min,  5.460 sec
 *  cpu-time:     0 d,  0 h, 41 min, 49.454 sec
 * ratio c/w:     0.994 speedup

