      -----------------------------------------------------------      
     |                   =====================                   |     
     |                           x T B                           |     
     |                   =====================                   |     
     |                         S. Grimme                         |     
     |          Mulliken Center for Theoretical Chemistry        |     
     |                    University of Bonn                     |     
      -----------------------------------------------------------      

   * xtb version 6.5.1 (b24c23e) compiled by 'conda@728c89f4b128' on 2022-07-12

   xtb is free software: you can redistribute it and/or modify it under
   the terms of the GNU Lesser General Public License as published by
   the Free Software Foundation, either version 3 of the License, or
   (at your option) any later version.
   
   xtb is distributed in the hope that it will be useful,
   but WITHOUT ANY WARRANTY; without even the implied warranty of
   MERCHANTABILITY or FITNESS FOR A PARTICULAR PURPOSE.  See the
   GNU Lesser General Public License for more details.
   
   Cite this work as:
   * C. Bannwarth, E. Caldeweyher, S. Ehlert, A. Hansen, P. Pracht,
     J. Seibert, S. Spicher, S. Grimme, WIREs Comput. Mol. Sci., 2020, 11,
     e01493. DOI: 10.1002/wcms.1493
   
   for GFN2-xTB:
   * C. Bannwarth, S. Ehlert and S. Grimme., J. Chem. Theory Comput., 2019,
     15, 1652-1671. DOI: 10.1021/acs.jctc.8b01176
   for GFN1-xTB:
   * S. Grimme, C. Bannwarth, P. Shushkov, J. Chem. Theory Comput., 2017,
     13, 1989-2009. DOI: 10.1021/acs.jctc.7b00118
   for GFN0-xTB:
   * P. Pracht, E. Caldeweyher, S. Ehlert, S. Grimme, ChemRxiv, 2019, preprint.
     DOI: 10.26434/chemrxiv.8326202.v1
   for GFN-FF:
   * S. Spicher and S. Grimme, Angew. Chem. Int. Ed., 2020, 59, 15665-15673.
     DOI: 10.1002/anie.202004239
   
   for ALPB and GBSA implicit solvation:
   * S. Ehlert, M. Stahn, S. Spicher, S. Grimme, J. Chem. Theory Comput.,
     2021, 17, 4250-4261. DOI: 10.1021/acs.jctc.1c00471
   
   for DFT-D4:
   * E. Caldeweyher, C. Bannwarth and S. Grimme, J. Chem. Phys., 2017,
     147, 034112. DOI: 10.1063/1.4993215
   * E. Caldeweyher, S. Ehlert, A. Hansen, H. Neugebauer, S. Spicher,
     C. Bannwarth and S. Grimme, J. Chem. Phys., 2019, 150, 154122.
     DOI: 10.1063/1.5090222
   * E. Caldeweyher, J.-M. Mewes, S. Ehlert and S. Grimme, Phys. Chem. Chem. Phys.
     2020, 22, 8499-8512. DOI: 10.1039/D0CP00502A
   
   for sTDA-xTB:
   * S. Grimme and C. Bannwarth, J. Chem. Phys., 2016, 145, 054103.
     DOI: 10.1063/1.4959605
   
   in the mass-spec context:
   * V. Asgeirsson, C. Bauer and S. Grimme, Chem. Sci., 2017, 8, 4879.
     DOI: 10.1039/c7sc00601b
   * J. Koopman and S. Grimme, ACS Omega 2019, 4, 12, 15120-15133.
     DOI: 10.1021/acsomega.9b02011
   
   for metadynamics refer to:
   * S. Grimme, J. Chem. Theory Comput., 2019, 155, 2847-2862
     DOI: 10.1021/acs.jctc.9b00143
   
   for SPH calculations refer to:
   * S. Spicher and S. Grimme, J. Chem. Theory Comput., 2021, 17, 1701-1714
     DOI: 10.1021/acs.jctc.0c01306
   
   with help from (in alphabetical order)
   P. Atkinson, C. Bannwarth, F. Bohle, G. Brandenburg, E. Caldeweyher
   M. Checinski, S. Dohm, S. Ehlert, S. Ehrlich, I. Gerasimov, C. Hölzer
   A. Katbashev, J. Koopman, C. Lavigne, S. Lehtola, F. März, M. Müller,
   F. Musil, H. Neugebauer, J. Pisarek, C. Plett, P. Pracht, F. Pultar,
   J. Seibert, P. Shushkov, S. Spicher, M. Stahn, M. Steiner, T. Strunk,
   J. Stückrath, T. Rose, and J. Unsleber
   
 * started run on 2022/07/28 at 22:51:52.482     

           -------------------------------------------------
          |                Calculation Setup                |
           -------------------------------------------------

          program call               : xtb xtbopt.xyz --gfn 1 --vipea
          hostname                   : cx3-14-14.cx3.hpc.ic.ac.uk
          coordinate file            : xtbopt.xyz
          omp threads                :                     1

   ID    Z sym.   atoms
    1    6 C      1-5, 7-12, 14-18, 20-25, 27-32, 34-39, 60-64, 66-71, 73-77,
                  79-84, 86-91, 93-98, 119-155, 157-162, 164-168, 170-175,
                  177-182, 184-189, 209-213, 215-220, 222-226, 228-233,
                  235-240, 242-247, 267-271, 273-278, 280-284, 286-291,
                  293-298, 300-305, 325-329, 331-336, 338-342, 344-349,
                  351-356, 358-363, 383-387, 389-394, 396-400, 402-407,
                  409-414, 416-421, 441-445, 447-452, 454-458, 460-465,
                  467-472, 474-479, 499-503, 505-510, 512-516, 518-523,
                  525-530, 532-537
    2    7 N      6, 13, 19, 26, 33, 40, 65, 72, 78, 85, 92, 99, 156, 163,
                  169, 176, 183, 190, 214, 221, 227, 234, 241, 248, 272, 279,
                  285, 292, 299, 306, 330, 337, 343, 350, 357, 364, 388, 395,
                  401, 408, 415, 422, 446, 453, 459, 466, 473, 480, 504, 511,
                  517, 524, 531, 538
    3    1 H      41-59, 100-118, 191-208, 249-266, 307-324, 365-382,
                  423-440, 481-498, 539-556

           -------------------------------------------------
          |                 I P E A - x T B                 |
           -------------------------------------------------

        Reference                      10.1039/c7sc00601b
      * Hamiltonian:
        H0-scaling (s, p, d)           2.150000    2.300000    2.000000
        zeta-weighting                 0.000000
      * Dispersion:
        s8                             2.400000
        a1                             0.630000
        a2                             5.000000
        s9                             0.000000
      * Repulsion:
        kExp                           1.500000
        rExp                           1.000000
      * Coulomb:
        alpha                          1.000000
        third order                    atomic
        anisotropic                    false
      * Halogen bond correction:
        rad-scale                      1.300000
        damping                        0.440000


          ...................................................
          :                      SETUP                      :
          :.................................................:
          :  # basis functions                2288          :
          :  # atomic orbitals                2288          :
          :  # shells                         1504          :
          :  # electrons                      1786          :
          :  # halogen bonds                     0          :
          :  max. iterations                   250          :
          :  Hamiltonian                  GFN1-xTB          :
          :  restarted?                      false          :
          :  GBSA solvation                  false          :
          :  PC potential                    false          :
          :  electronic temp.          300.0000000     K    :
          :  accuracy                    1.0000000          :
          :  -> integral cutoff          0.2500000E+02      :
          :  -> integral neglect         0.1000000E-07      :
          :  -> SCF convergence          0.1000000E-05 Eh   :
          :  -> wf. convergence          0.2000000E-04 e    :
          :  Broyden damping             0.4000000          :
          ...................................................

 iter      E             dE          RMSdq      gap      omega  full diag
   1  -1129.9072135 -0.112991E+04  0.104E+01    0.52       0.0  T
   2  -1130.2175766 -0.310363E+00  0.647E+00    1.06       1.0  T
   3  -1109.3202616  0.208973E+02  0.515E+00    0.13       1.0  T
   4  -1133.3502706 -0.240300E+02  0.114E+00    0.98       1.0  T
   5  -1134.7082728 -0.135800E+01  0.433E-01    0.87       1.0  T
   6  -1134.9271343 -0.218862E+00  0.110E-01    0.87       1.0  T
   7  -1134.9384242 -0.112898E-01  0.463E-02    0.87       1.0  T
   8  -1134.9398842 -0.146004E-02  0.303E-02    0.87       1.0  T
   9  -1134.9401884 -0.304223E-03  0.189E-02    0.87       1.0  T
  10  -1134.9404807 -0.292300E-03  0.601E-03    0.87       1.0  T
  11  -1134.9405156 -0.348499E-04  0.221E-03    0.87       1.9  T
  12  -1134.9405201 -0.449420E-05  0.838E-04    0.87       5.1  T
  13  -1134.9405208 -0.703009E-06  0.380E-04    0.87      11.2  T
  14  -1134.9405209 -0.117692E-06  0.173E-04    0.87      24.5  T
  15  -1134.9405209 -0.189680E-07  0.940E-05    0.87      45.1  T

   *** convergence criteria satisfied after 15 iterations ***

         #    Occupation            Energy/Eh            Energy/eV
      -------------------------------------------------------------
         1        2.0000           -1.0529692             -28.6528
       ...           ...                  ...                  ...
       887        2.0000           -0.3857930             -10.4980
       888        2.0000           -0.3824844             -10.4079
       889        2.0000           -0.3800467             -10.3416
       890        2.0000           -0.3779765             -10.2853
       891        2.0000           -0.3750002             -10.2043
       892        2.0000           -0.3717721             -10.1164
       893        2.0000           -0.3695589             -10.0562 (HOMO)
       894        0.0000           -0.3376816              -9.1888 (LUMO)
       895                         -0.3346513              -9.1063
       896                         -0.3309025              -9.0043
       897                         -0.3276165              -8.9149
       898                         -0.3260980              -8.8736
       ...                                ...                  ...
      2288                        567.9903996           15455.8055
      -------------------------------------------------------------
                  HL-Gap            0.0318773 Eh            0.8674 eV
             Fermi-level           -0.3535942 Eh           -9.6218 eV

 SCC (total)                   0 d,  0 h,  1 min, 23.405 sec
 SCC setup                      ...        0 min,  0.041 sec (  0.049%)
 Dispersion                     ...        0 min,  0.044 sec (  0.053%)
 classical contributions        ...        0 min,  0.009 sec (  0.011%)
 integral evaluation            ...        0 min,  2.472 sec (  2.964%)
 iterations                     ...        1 min, 15.690 sec ( 90.750%)
 molecular gradient             ...        0 min,  4.391 sec (  5.265%)
 printout                       ...        0 min,  0.757 sec (  0.908%)

         :::::::::::::::::::::::::::::::::::::::::::::::::::::
         ::                     SUMMARY                     ::
         :::::::::::::::::::::::::::::::::::::::::::::::::::::
         :: total energy           -1110.617943076099 Eh    ::
         :: gradient norm              0.133749069502 Eh/a0 ::
         :: HOMO-LUMO gap              0.867425735901 eV    ::
         ::.................................................::
         :: SCC energy             -1134.940520904121 Eh    ::
         :: -> electrostatic           0.833536754287 Eh    ::
         :: repulsion energy          24.775885469802 Eh    ::
         :: dispersion energy         -0.453307641780 Eh    ::
         :: halogen bond corr.         0.000000000000 Eh    ::
         :: add. restraining           0.000000000000 Eh    ::
         :: total charge               0.000000000020 e     ::
         :::::::::::::::::::::::::::::::::::::::::::::::::::::

           ------------------------------------------------- 
          |        vertical delta SCC IP calculation        |
           ------------------------------------------------- 
   1  -1134.5539670 -0.113455E+04  0.372E-02    0.87       0.0  T
   2  -1134.5509718  0.299519E-02  0.468E-02    0.81       1.0  T
   3  -1134.5571043 -0.613245E-02  0.202E-02    0.86       1.0  T
   4  -1134.5576967 -0.592385E-03  0.137E-02    0.85       1.0  T
   5  -1134.5571056  0.591059E-03  0.134E-02    0.85       1.0  T
   6  -1134.5571600 -0.543436E-04  0.121E-02    0.85       1.0  T
   7  -1134.5578945 -0.734559E-03  0.412E-03    0.86       1.0  T
   8  -1134.5579239 -0.294125E-04  0.165E-03    0.86       2.6  T
   9  -1134.5579277 -0.377607E-05  0.792E-04    0.86       5.4  T
  10  -1134.5579285 -0.746980E-06  0.299E-04    0.86      14.2  T
  11  -1134.5579286 -0.100802E-06  0.153E-04    0.86      27.6  T
  12  -1134.5579286 -0.290049E-07  0.534E-05    0.86      79.3  T
     SCC iter.                  ...        1 min,  0.831 sec
     gradient                   ...        0 min,  4.369 sec
------------------------------------------------------------------------
empirical IP shift (eV):    4.8455
delta SCC IP (eV):    5.5654
------------------------------------------------------------------------
           ------------------------------------------------- 
          |        vertical delta SCC EA calculation        |
           ------------------------------------------------- 
   1  -1135.2513460 -0.113525E+04  0.649E-02    0.09       0.0  T
   2  -1135.2538264 -0.248041E-02  0.662E-02    0.02       1.0  T
   3  -1135.2618825 -0.805608E-02  0.331E-02    0.06       1.0  T
   4  -1135.2623257 -0.443206E-03  0.288E-02    0.03       1.0  T
   5  -1135.2624540 -0.128368E-03  0.190E-02    0.05       1.0  T
   6  -1135.2590856  0.336844E-02  0.269E-02    0.07       1.0  T
   7  -1135.2635164 -0.443078E-02  0.823E-03    0.05       1.0  T
   8  -1135.2637096 -0.193187E-03  0.339E-03    0.04       1.3  T
   9  -1135.2637227 -0.131676E-04  0.182E-03    0.05       2.3  T
  10  -1135.2637265 -0.370803E-05  0.607E-04    0.04       7.0  T
  11  -1135.2637268 -0.397260E-06  0.330E-04    0.05      12.9  T
  12  -1135.2637270 -0.106015E-06  0.135E-04    0.05      31.4  T
  13  -1135.2637270 -0.232433E-07  0.527E-05    0.05      80.4  T
     SCC iter.                  ...        1 min,  6.360 sec
     gradient                   ...        0 min,  4.345 sec
------------------------------------------------------------------------
empirical EA shift (eV):    4.8455
delta SCC EA (eV):    3.9494
------------------------------------------------------------------------
           -------------------------------------------------
          |                Property Printout                |
           -------------------------------------------------

    * Orbital Energies and Occupations

         #    Occupation            Energy/Eh            Energy/eV
      -------------------------------------------------------------
         1        2.0000           -1.0301653             -28.0322
       ...           ...                  ...                  ...
       882        2.0000           -0.3712664             -10.1027
       883        2.0000           -0.3710102             -10.0957
       884        2.0000           -0.3709158             -10.0931
       885        2.0000           -0.3637891              -9.8992
       886        2.0000           -0.3627278              -9.8703
       887        2.0000           -0.3607571              -9.8167
       888        2.0000           -0.3588604              -9.7651
       889        2.0000           -0.3561761              -9.6920
       890        2.0000           -0.3524418              -9.5904
       891        2.0000           -0.3483070              -9.4779
       892        2.0000           -0.3442613              -9.3678
       893        2.0000           -0.3409631              -9.2781
       894        0.6728           -0.3087529              -8.4016 (HOMO)
       895        0.2641           -0.3070945              -8.3565 (LUMO)
       896        0.0392           -0.3050279              -8.3002
       897        0.0185           -0.3042958              -8.2803
       898        0.0048           -0.3029975              -8.2450
       899        0.0004           -0.3006679              -8.1816
       900        0.0001           -0.2992987              -8.1443
       901        0.0000           -0.2982988              -8.1171
       902        0.0000           -0.2977575              -8.1024
       903        0.0000           -0.2975882              -8.0978
       904        0.0000           -0.2973104              -8.0902
       905        0.0000           -0.2960372              -8.0556
       ...           ...                  ...                  ...
      2288                        568.0188515           15456.5797
      -------------------------------------------------------------
                  HL-Gap            0.0016584 Eh            0.0451 eV
             Fermi-level           -0.3165002 Eh           -8.6124 eV

  Mulliken/CM5 charges         n(s)   n(p)   n(d)
     1C    -0.01515 -0.05594   1.093  2.923  0.000
     2C     0.06318  0.12339   1.104  2.833  0.000
     3C    -0.03206 -0.07730   1.082  2.950  0.000
     4C    -0.03169 -0.07611   1.078  2.953  0.000
     5C     0.06770  0.13278   1.110  2.822  0.000
     6N    -0.15528 -0.50853   1.314  3.841  0.000
     7C     0.01936  0.02674   1.087  2.894  0.000
     8C    -0.01909 -0.02078   1.079  2.940  0.000
     9C    -0.02579 -0.02824   1.073  2.953  0.000
    10C     0.02936  0.02424   1.089  2.881  0.000
    11C    -0.01714 -0.06383   1.090  2.927  0.000
    12C     0.05410  0.07868   1.129  2.817  0.000
    13N    -0.25675 -0.45184   1.382  3.875  0.000
    14C     0.05470  0.07927   1.129  2.816  0.000
    15C    -0.01588 -0.06258   1.090  2.926  0.000
    16C     0.06452  0.13423   1.129  2.806  0.000
    17C    -0.03660 -0.08204   1.089  2.948  0.000
    18C    -0.03617 -0.08158   1.091  2.945  0.000
    19N    -0.28305 -0.46966   1.295  3.988  0.000
    20C     0.06537  0.13539   1.129  2.805  0.000
    21C     0.02266  0.02993   1.088  2.889  0.000
    22C     0.06700  0.13164   1.108  2.825  0.000
    23C    -0.03105 -0.07543   1.080  2.951  0.000
    24C    -0.03166 -0.07607   1.078  2.954  0.000
    25C     0.06663  0.13116   1.109  2.825  0.000
    26N    -0.15417 -0.50669   1.316  3.838  0.000
    27C     0.01891  0.02634   1.087  2.894  0.000
    28C    -0.01931 -0.02098   1.079  2.940  0.000
    29C    -0.02598 -0.02842   1.073  2.953  0.000
    30C     0.02924  0.02413   1.089  2.881  0.000
    31C    -0.01671 -0.06340   1.090  2.927  0.000
    32C     0.05439  0.07897   1.129  2.817  0.000
    33N    -0.25702 -0.45210   1.381  3.876  0.000
    34C     0.05421  0.07878   1.129  2.817  0.000
    35C    -0.01654 -0.06324   1.090  2.927  0.000
    36C     0.06596  0.13691   1.132  2.802  0.000
    37C    -0.03661 -0.08204   1.090  2.947  0.000
    38C    -0.03714 -0.08348   1.092  2.945  0.000
    39C     0.06053  0.12555   1.125  2.815  0.000
    40N    -0.28430 -0.47130   1.296  3.989  0.000
    41H     0.03436  0.09330   0.966  0.000  0.000
    42H     0.04424  0.10091   0.956  0.000  0.000
    43H     0.03856  0.09650   0.961  0.000  0.000
    44H     0.16802  0.37608   0.832  0.000  0.000
    45H     0.03620  0.09344   0.964  0.000  0.000
    46H     0.03438  0.10029   0.966  0.000  0.000
    47H     0.03554  0.10145   0.964  0.000  0.000
    48H     0.03817  0.09542   0.962  0.000  0.000
    49H     0.02852  0.08646   0.971  0.000  0.000
    50H     0.02835  0.08633   0.972  0.000  0.000
    51H     0.03863  0.09668   0.961  0.000  0.000
    52H     0.03866  0.09665   0.961  0.000  0.000
    53H     0.16660  0.37465   0.833  0.000  0.000
    54H     0.03737  0.09461   0.963  0.000  0.000
    55H     0.03511  0.10102   0.965  0.000  0.000
    56H     0.03447  0.10037   0.966  0.000  0.000
    57H     0.03675  0.09401   0.963  0.000  0.000
    58H     0.02857  0.08643   0.971  0.000  0.000
    59H     0.03424  0.09066   0.966  0.000  0.000
    60C    -0.01543 -0.05622   1.092  2.923  0.000
    61C     0.06319  0.12340   1.104  2.833  0.000
    62C    -0.03223 -0.07747   1.082  2.951  0.000
    63C    -0.03176 -0.07617   1.078  2.953  0.000
    64C     0.06749  0.13258   1.110  2.822  0.000
    65N    -0.15531 -0.50858   1.314  3.841  0.000
    66C     0.01954  0.02692   1.087  2.894  0.000
    67C    -0.01896 -0.02065   1.079  2.940  0.000
    68C    -0.02574 -0.02819   1.073  2.953  0.000
    69C     0.02940  0.02429   1.089  2.881  0.000
    70C    -0.01713 -0.06381   1.090  2.927  0.000
    71C     0.05412  0.07870   1.129  2.817  0.000
    72N    -0.25672 -0.45181   1.382  3.875  0.000
    73C     0.05472  0.07929   1.129  2.816  0.000
    74C    -0.01582 -0.06253   1.090  2.926  0.000
    75C     0.06429  0.13395   1.129  2.807  0.000
    76C    -0.03666 -0.08210   1.089  2.948  0.000
    77C    -0.03628 -0.08170   1.091  2.946  0.000
    78N    -0.28302 -0.46963   1.295  3.988  0.000
    79C     0.06552  0.13560   1.129  2.805  0.000
    80C     0.02241  0.02967   1.088  2.890  0.000
    81C     0.06694  0.13159   1.108  2.825  0.000
    82C    -0.03124 -0.07562   1.080  2.951  0.000
    83C    -0.03181 -0.07622   1.078  2.954  0.000
    84C     0.06637  0.13088   1.108  2.825  0.000
    85N    -0.15418 -0.50670   1.316  3.838  0.000
    86C     0.01892  0.02635   1.087  2.894  0.000
    87C    -0.01926 -0.02093   1.079  2.940  0.000
    88C    -0.02602 -0.02846   1.072  2.954  0.000
    89C     0.02925  0.02414   1.089  2.881  0.000
    90C    -0.01672 -0.06341   1.090  2.927  0.000
    91C     0.05438  0.07896   1.129  2.817  0.000
    92N    -0.25709 -0.45216   1.381  3.876  0.000
    93C     0.05418  0.07875   1.129  2.817  0.000
    94C    -0.01654 -0.06324   1.090  2.927  0.000
    95C     0.06589  0.13683   1.132  2.802  0.000
    96C    -0.03661 -0.08205   1.090  2.947  0.000
    97C    -0.03720 -0.08355   1.092  2.945  0.000
    98C     0.06053  0.12554   1.125  2.815  0.000
    99N    -0.28443 -0.47141   1.296  3.989  0.000
   100H     0.03417  0.09312   0.966  0.000  0.000
   101H     0.04409  0.10075   0.956  0.000  0.000
   102H     0.03843  0.09636   0.962  0.000  0.000
   103H     0.16798  0.37604   0.832  0.000  0.000
   104H     0.03624  0.09347   0.964  0.000  0.000
   105H     0.03437  0.10028   0.966  0.000  0.000
   106H     0.03556  0.10148   0.964  0.000  0.000
   107H     0.03814  0.09540   0.962  0.000  0.000
   108H     0.02837  0.08633   0.972  0.000  0.000
   109H     0.02822  0.08622   0.972  0.000  0.000
   110H     0.03857  0.09659   0.961  0.000  0.000
   111H     0.03851  0.09649   0.961  0.000  0.000
   112H     0.16649  0.37454   0.834  0.000  0.000
   113H     0.03737  0.09461   0.963  0.000  0.000
   114H     0.03506  0.10097   0.965  0.000  0.000
   115H     0.03440  0.10030   0.966  0.000  0.000
   116H     0.03668  0.09394   0.963  0.000  0.000
   117H     0.02848  0.08635   0.972  0.000  0.000
   118H     0.03411  0.09053   0.966  0.000  0.000
   119C    -0.01502 -0.01584   1.061  2.954  0.000
   120C    -0.01546 -0.01704   1.091  2.925  0.000
   121C    -0.01708 -0.01788   1.059  2.958  0.000
   122C    -0.01334 -0.01487   1.093  2.920  0.000
   123C    -0.01692 -0.01771   1.061  2.956  0.000
   124C    -0.01688 -0.01841   1.089  2.927  0.000
   125C    -0.01825 -0.01905   1.059  2.959  0.000
   126C    -0.01547 -0.01700   1.091  2.924  0.000
   127C    -0.01752 -0.01832   1.060  2.957  0.000
   128C    -0.01631 -0.01784   1.090  2.926  0.000
   129C    -0.01772 -0.01851   1.060  2.958  0.000
   130C    -0.01603 -0.01756   1.090  2.926  0.000
   131C    -0.01753 -0.01833   1.060  2.958  0.000
   132C    -0.01602 -0.01755   1.090  2.926  0.000
   133C    -0.01746 -0.01825   1.060  2.957  0.000
   134C    -0.01606 -0.01758   1.090  2.926  0.000
   135C    -0.01746 -0.01826   1.060  2.957  0.000
   136C    -0.01603 -0.01756   1.090  2.926  0.000
   137C    -0.01750 -0.01830   1.060  2.957  0.000
   138C    -0.01603 -0.01755   1.090  2.926  0.000
   139C    -0.01766 -0.01846   1.060  2.958  0.000
   140C    -0.01606 -0.01758   1.090  2.926  0.000
   141C    -0.01755 -0.01834   1.060  2.957  0.000
   142C    -0.01626 -0.01778   1.090  2.926  0.000
   143C    -0.01818 -0.01897   1.060  2.959  0.000
   144C    -0.01562 -0.01715   1.091  2.925  0.000
   145C    -0.01709 -0.01788   1.061  2.957  0.000
   146C    -0.01680 -0.01832   1.090  2.927  0.000
   147C    -0.01744 -0.01824   1.059  2.958  0.000
   148C    -0.01385 -0.01538   1.093  2.921  0.000
   149C    -0.01549 -0.01631   1.061  2.954  0.000
   150C    -0.01589 -0.01746   1.090  2.926  0.000
   151C     0.02012  0.02743   1.086  2.894  0.000
   152C     0.06650  0.13113   1.108  2.826  0.000
   153C    -0.03309 -0.07748   1.079  2.954  0.000
   154C    -0.03242 -0.07682   1.078  2.954  0.000
   155C     0.06515  0.12975   1.106  2.828  0.000
   156N    -0.15376 -0.50642   1.315  3.838  0.000
   157C     0.02176  0.02905   1.088  2.890  0.000
   158C    -0.01801 -0.01976   1.080  2.938  0.000
   159C    -0.02492 -0.02740   1.073  2.952  0.000
   160C     0.02963  0.02452   1.089  2.881  0.000
   161C    -0.01572 -0.06242   1.090  2.926  0.000
   162C     0.05470  0.07929   1.129  2.816  0.000
   163N    -0.25664 -0.45175   1.381  3.875  0.000
   164C     0.05428  0.07886   1.129  2.817  0.000
   165C    -0.01667 -0.06336   1.090  2.927  0.000
   166C     0.06332  0.13284   1.128  2.809  0.000
   167C    -0.03697 -0.08241   1.089  2.948  0.000
   168C    -0.03703 -0.08244   1.090  2.947  0.000
   169N    -0.28246 -0.46889   1.295  3.987  0.000
   170C     0.06562  0.13587   1.130  2.805  0.000
   171C     0.02149  0.02878   1.087  2.891  0.000
   172C     0.06666  0.13139   1.108  2.825  0.000
   173C    -0.03245 -0.07683   1.079  2.954  0.000
   174C    -0.03249 -0.07688   1.078  2.955  0.000
   175C     0.06507  0.12958   1.106  2.828  0.000
   176N    -0.15340 -0.50609   1.316  3.838  0.000
   177C     0.02118  0.02848   1.088  2.891  0.000
   178C    -0.01829 -0.02004   1.080  2.939  0.000
   179C    -0.02522 -0.02771   1.073  2.953  0.000
   180C     0.02952  0.02441   1.089  2.881  0.000
   181C    -0.01615 -0.06286   1.090  2.926  0.000
   182C     0.05435  0.07893   1.129  2.817  0.000
   183N    -0.25688 -0.45199   1.381  3.875  0.000
   184C     0.05446  0.07905   1.129  2.817  0.000
   185C    -0.01647 -0.06316   1.090  2.927  0.000
   186C     0.06386  0.13363   1.128  2.808  0.000
   187C    -0.03684 -0.08228   1.089  2.947  0.000
   188C    -0.03741 -0.08284   1.090  2.947  0.000
   189C     0.06495  0.13490   1.129  2.806  0.000
   190N    -0.28327 -0.46962   1.295  3.989  0.000
   191H     0.03671  0.09474   0.963  0.000  0.000
   192H     0.03732  0.09537   0.963  0.000  0.000
   193H     0.16681  0.37465   0.833  0.000  0.000
   194H     0.03787  0.09513   0.962  0.000  0.000
   195H     0.03534  0.10125   0.965  0.000  0.000
   196H     0.03454  0.10046   0.965  0.000  0.000
   197H     0.03680  0.09404   0.963  0.000  0.000
   198H     0.02762  0.08560   0.972  0.000  0.000
   199H     0.02756  0.08551   0.972  0.000  0.000
   200H     0.03799  0.09599   0.962  0.000  0.000
   201H     0.03757  0.09563   0.962  0.000  0.000
   202H     0.16648  0.37433   0.834  0.000  0.000
   203H     0.03721  0.09447   0.963  0.000  0.000
   204H     0.03456  0.10047   0.965  0.000  0.000
   205H     0.03504  0.10094   0.965  0.000  0.000
   206H     0.03723  0.09447   0.963  0.000  0.000
   207H     0.02756  0.08555   0.972  0.000  0.000
   208H     0.02672  0.08466   0.973  0.000  0.000
   209C     0.01998  0.02726   1.086  2.894  0.000
   210C     0.06650  0.13123   1.108  2.825  0.000
   211C    -0.03336 -0.07774   1.078  2.955  0.000
   212C    -0.03275 -0.07715   1.078  2.955  0.000
   213C     0.06445  0.12898   1.106  2.830  0.000
   214N    -0.15356 -0.50626   1.316  3.838  0.000
   215C     0.02198  0.02927   1.089  2.889  0.000
   216C    -0.01786 -0.01961   1.080  2.938  0.000
   217C    -0.02491 -0.02740   1.073  2.952  0.000
   218C     0.02967  0.02455   1.089  2.881  0.000
   219C    -0.01580 -0.06250   1.090  2.926  0.000
   220C     0.05459  0.07916   1.129  2.817  0.000
   221N    -0.25677 -0.45189   1.381  3.875  0.000
   222C     0.05432  0.07891   1.129  2.817  0.000
   223C    -0.01657 -0.06326   1.090  2.927  0.000
   224C     0.06301  0.13251   1.128  2.809  0.000
   225C    -0.03711 -0.08256   1.089  2.948  0.000
   226C    -0.03743 -0.08284   1.090  2.948  0.000
   227N    -0.28268 -0.46905   1.295  3.987  0.000
   228C     0.06544  0.13568   1.130  2.805  0.000
   229C     0.02071  0.02800   1.086  2.893  0.000
   230C     0.06661  0.13135   1.108  2.825  0.000
   231C    -0.03296 -0.07734   1.078  2.955  0.000
   232C    -0.03265 -0.07704   1.078  2.955  0.000
   233C     0.06456  0.12908   1.106  2.829  0.000
   234N    -0.15345 -0.50615   1.316  3.838  0.000
   235C     0.02189  0.02917   1.089  2.889  0.000
   236C    -0.01790 -0.01965   1.080  2.938  0.000
   237C    -0.02496 -0.02745   1.073  2.952  0.000
   238C     0.02966  0.02454   1.089  2.881  0.000
   239C    -0.01596 -0.06266   1.090  2.926  0.000
   240C     0.05446  0.07903   1.129  2.817  0.000
   241N    -0.25679 -0.45190   1.381  3.875  0.000
   242C     0.05445  0.07904   1.129  2.817  0.000
   243C    -0.01643 -0.06312   1.090  2.927  0.000
   244C     0.06303  0.13255   1.128  2.809  0.000
   245C    -0.03715 -0.08260   1.089  2.948  0.000
   246C    -0.03770 -0.08312   1.090  2.948  0.000
   247C     0.06534  0.13556   1.130  2.805  0.000
   248N    -0.28289 -0.46925   1.295  3.988  0.000
   249H     0.03696  0.09496   0.963  0.000  0.000
   250H     0.03696  0.09501   0.963  0.000  0.000
   251H     0.16645  0.37427   0.834  0.000  0.000
   252H     0.03756  0.09482   0.962  0.000  0.000
   253H     0.03502  0.10093   0.965  0.000  0.000
   254H     0.03458  0.10049   0.965  0.000  0.000
   255H     0.03683  0.09406   0.963  0.000  0.000
   256H     0.02724  0.08523   0.973  0.000  0.000
   257H     0.02702  0.08497   0.973  0.000  0.000
   258H     0.03747  0.09547   0.963  0.000  0.000
   259H     0.03718  0.09522   0.963  0.000  0.000
   260H     0.16641  0.37423   0.834  0.000  0.000
   261H     0.03722  0.09447   0.963  0.000  0.000
   262H     0.03469  0.10060   0.965  0.000  0.000
   263H     0.03489  0.10080   0.965  0.000  0.000
   264H     0.03714  0.09438   0.963  0.000  0.000
   265H     0.02708  0.08508   0.973  0.000  0.000
   266H     0.02657  0.08452   0.973  0.000  0.000
   267C     0.02059  0.02788   1.086  2.893  0.000
   268C     0.06662  0.13136   1.108  2.825  0.000
   269C    -0.03300 -0.07737   1.078  2.955  0.000
   270C    -0.03259 -0.07698   1.078  2.955  0.000
   271C     0.06464  0.12916   1.106  2.829  0.000
   272N    -0.15346 -0.50616   1.316  3.838  0.000
   273C     0.02201  0.02930   1.089  2.889  0.000
   274C    -0.01787 -0.01962   1.080  2.938  0.000
   275C    -0.02484 -0.02733   1.073  2.952  0.000
   276C     0.02968  0.02456   1.089  2.881  0.000
   277C    -0.01583 -0.06253   1.090  2.926  0.000
   278C     0.05457  0.07915   1.129  2.817  0.000
   279N    -0.25672 -0.45184   1.381  3.875  0.000
   280C     0.05440  0.07898   1.129  2.817  0.000
   281C    -0.01648 -0.06317   1.090  2.927  0.000
   282C     0.06309  0.13260   1.128  2.809  0.000
   283C    -0.03708 -0.08252   1.089  2.948  0.000
   284C    -0.03744 -0.08285   1.090  2.948  0.000
   285N    -0.28267 -0.46903   1.295  3.987  0.000
   286C     0.06542  0.13566   1.130  2.805  0.000
   287C     0.02068  0.02796   1.086  2.893  0.000
   288C     0.06670  0.13143   1.108  2.825  0.000
   289C    -0.03289 -0.07727   1.078  2.955  0.000
   290C    -0.03251 -0.07690   1.078  2.955  0.000
   291C     0.06467  0.12919   1.106  2.829  0.000
   292N    -0.15345 -0.50615   1.316  3.838  0.000
   293C     0.02205  0.02934   1.089  2.889  0.000
   294C    -0.01785 -0.01961   1.080  2.938  0.000
   295C    -0.02482 -0.02730   1.073  2.952  0.000
   296C     0.02968  0.02457   1.089  2.881  0.000
   297C    -0.01586 -0.06256   1.090  2.926  0.000
   298C     0.05454  0.07912   1.129  2.817  0.000
   299N    -0.25670 -0.45182   1.381  3.875  0.000
   300C     0.05445  0.07904   1.129  2.817  0.000
   301C    -0.01643 -0.06312   1.090  2.927  0.000
   302C     0.06306  0.13257   1.128  2.809  0.000
   303C    -0.03711 -0.08256   1.089  2.948  0.000
   304C    -0.03752 -0.08293   1.090  2.948  0.000
   305C     0.06539  0.13563   1.130  2.805  0.000
   306N    -0.28266 -0.46902   1.295  3.987  0.000
   307H     0.03734  0.09534   0.963  0.000  0.000
   308H     0.03717  0.09522   0.963  0.000  0.000
   309H     0.16648  0.37430   0.834  0.000  0.000
   310H     0.03748  0.09474   0.963  0.000  0.000
   311H     0.03495  0.10086   0.965  0.000  0.000
   312H     0.03474  0.10065   0.965  0.000  0.000
   313H     0.03698  0.09422   0.963  0.000  0.000
   314H     0.02727  0.08527   0.973  0.000  0.000
   315H     0.02698  0.08493   0.973  0.000  0.000
   316H     0.03749  0.09549   0.963  0.000  0.000
   317H     0.03727  0.09531   0.963  0.000  0.000
   318H     0.16649  0.37430   0.834  0.000  0.000
   319H     0.03740  0.09465   0.963  0.000  0.000
   320H     0.03486  0.10077   0.965  0.000  0.000
   321H     0.03486  0.10077   0.965  0.000  0.000
   322H     0.03708  0.09433   0.963  0.000  0.000
   323H     0.02721  0.08521   0.973  0.000  0.000
   324H     0.02686  0.08481   0.973  0.000  0.000
   325C     0.02081  0.02810   1.087  2.893  0.000
   326C     0.06671  0.13145   1.108  2.825  0.000
   327C    -0.03281 -0.07719   1.078  2.955  0.000
   328C    -0.03246 -0.07685   1.078  2.955  0.000
   329C     0.06477  0.12929   1.106  2.829  0.000
   330N    -0.15342 -0.50612   1.316  3.838  0.000
   331C     0.02207  0.02936   1.089  2.889  0.000
   332C    -0.01786 -0.01962   1.080  2.938  0.000
   333C    -0.02477 -0.02725   1.073  2.952  0.000
   334C     0.02968  0.02457   1.089  2.881  0.000
   335C    -0.01583 -0.06253   1.090  2.926  0.000
   336C     0.05458  0.07916   1.129  2.817  0.000
   337N    -0.25665 -0.45177   1.381  3.875  0.000
   338C     0.05445  0.07903   1.129  2.817  0.000
   339C    -0.01644 -0.06313   1.090  2.927  0.000
   340C     0.06315  0.13266   1.128  2.809  0.000
   341C    -0.03706 -0.08250   1.089  2.948  0.000
   342C    -0.03741 -0.08282   1.090  2.948  0.000
   343N    -0.28259 -0.46895   1.295  3.987  0.000
   344C     0.06543  0.13566   1.130  2.805  0.000
   345C     0.02080  0.02809   1.087  2.893  0.000
   346C     0.06672  0.13146   1.108  2.825  0.000
   347C    -0.03281 -0.07719   1.078  2.955  0.000
   348C    -0.03245 -0.07684   1.078  2.955  0.000
   349C     0.06476  0.12928   1.106  2.829  0.000
   350N    -0.15342 -0.50612   1.316  3.838  0.000
   351C     0.02208  0.02937   1.089  2.889  0.000
   352C    -0.01787 -0.01962   1.080  2.938  0.000
   353C    -0.02477 -0.02725   1.073  2.952  0.000
   354C     0.02968  0.02457   1.089  2.881  0.000
   355C    -0.01582 -0.06252   1.090  2.926  0.000
   356C     0.05458  0.07916   1.129  2.817  0.000
   357N    -0.25665 -0.45177   1.381  3.875  0.000
   358C     0.05445  0.07904   1.129  2.817  0.000
   359C    -0.01644 -0.06313   1.090  2.927  0.000
   360C     0.06315  0.13265   1.128  2.809  0.000
   361C    -0.03705 -0.08250   1.089  2.948  0.000
   362C    -0.03741 -0.08282   1.090  2.948  0.000
   363C     0.06543  0.13566   1.130  2.805  0.000
   364N    -0.28258 -0.46894   1.295  3.987  0.000
   365H     0.03754  0.09554   0.962  0.000  0.000
   366H     0.03732  0.09537   0.963  0.000  0.000
   367H     0.16653  0.37435   0.833  0.000  0.000
   368H     0.03747  0.09473   0.963  0.000  0.000
   369H     0.03496  0.10087   0.965  0.000  0.000
   370H     0.03485  0.10076   0.965  0.000  0.000
   371H     0.03707  0.09431   0.963  0.000  0.000
   372H     0.02732  0.08531   0.973  0.000  0.000
   373H     0.02701  0.08496   0.973  0.000  0.000
   374H     0.03754  0.09554   0.962  0.000  0.000
   375H     0.03733  0.09538   0.963  0.000  0.000
   376H     0.16653  0.37435   0.833  0.000  0.000
   377H     0.03747  0.09472   0.963  0.000  0.000
   378H     0.03495  0.10086   0.965  0.000  0.000
   379H     0.03485  0.10076   0.965  0.000  0.000
   380H     0.03707  0.09431   0.963  0.000  0.000
   381H     0.02732  0.08532   0.973  0.000  0.000
   382H     0.02701  0.08496   0.973  0.000  0.000
   383C     0.02070  0.02799   1.086  2.893  0.000
   384C     0.06670  0.13144   1.108  2.825  0.000
   385C    -0.03287 -0.07725   1.078  2.955  0.000
   386C    -0.03249 -0.07689   1.078  2.955  0.000
   387C     0.06469  0.12921   1.106  2.829  0.000
   388N    -0.15344 -0.50614   1.316  3.838  0.000
   389C     0.02206  0.02934   1.089  2.889  0.000
   390C    -0.01785 -0.01960   1.080  2.938  0.000
   391C    -0.02481 -0.02729   1.073  2.952  0.000
   392C     0.02969  0.02457   1.089  2.881  0.000
   393C    -0.01585 -0.06256   1.090  2.926  0.000
   394C     0.05455  0.07912   1.129  2.817  0.000
   395N    -0.25669 -0.45181   1.381  3.875  0.000
   396C     0.05445  0.07904   1.129  2.817  0.000
   397C    -0.01643 -0.06312   1.090  2.927  0.000
   398C     0.06308  0.13259   1.128  2.809  0.000
   399C    -0.03711 -0.08256   1.089  2.948  0.000
   400C    -0.03750 -0.08291   1.090  2.948  0.000
   401N    -0.28265 -0.46900   1.295  3.987  0.000
   402C     0.06540  0.13563   1.130  2.805  0.000
   403C     0.02064  0.02793   1.086  2.893  0.000
   404C     0.06664  0.13138   1.108  2.825  0.000
   405C    -0.03296 -0.07733   1.078  2.955  0.000
   406C    -0.03257 -0.07696   1.078  2.955  0.000
   407C     0.06466  0.12919   1.106  2.829  0.000
   408N    -0.15345 -0.50615   1.316  3.838  0.000
   409C     0.02202  0.02931   1.089  2.889  0.000
   410C    -0.01788 -0.01963   1.080  2.938  0.000
   411C    -0.02483 -0.02732   1.073  2.952  0.000
   412C     0.02967  0.02456   1.089  2.881  0.000
   413C    -0.01582 -0.06253   1.090  2.926  0.000
   414C     0.05457  0.07915   1.129  2.817  0.000
   415N    -0.25671 -0.45183   1.381  3.875  0.000
   416C     0.05441  0.07900   1.129  2.817  0.000
   417C    -0.01648 -0.06317   1.090  2.927  0.000
   418C     0.06311  0.13261   1.128  2.809  0.000
   419C    -0.03707 -0.08252   1.089  2.948  0.000
   420C    -0.03743 -0.08284   1.090  2.948  0.000
   421C     0.06542  0.13566   1.130  2.805  0.000
   422N    -0.28265 -0.46901   1.295  3.987  0.000
   423H     0.03750  0.09551   0.962  0.000  0.000
   424H     0.03728  0.09533   0.963  0.000  0.000
   425H     0.16650  0.37431   0.834  0.000  0.000
   426H     0.03741  0.09467   0.963  0.000  0.000
   427H     0.03488  0.10079   0.965  0.000  0.000
   428H     0.03486  0.10077   0.965  0.000  0.000
   429H     0.03709  0.09433   0.963  0.000  0.000
   430H     0.02723  0.08522   0.973  0.000  0.000
   431H     0.02689  0.08484   0.973  0.000  0.000
   432H     0.03737  0.09538   0.963  0.000  0.000
   433H     0.03720  0.09525   0.963  0.000  0.000
   434H     0.16649  0.37431   0.834  0.000  0.000
   435H     0.03748  0.09473   0.963  0.000  0.000
   436H     0.03495  0.10086   0.965  0.000  0.000
   437H     0.03475  0.10066   0.965  0.000  0.000
   438H     0.03699  0.09423   0.963  0.000  0.000
   439H     0.02729  0.08528   0.973  0.000  0.000
   440H     0.02699  0.08494   0.973  0.000  0.000
   441C     0.02067  0.02796   1.086  2.893  0.000
   442C     0.06661  0.13135   1.108  2.825  0.000
   443C    -0.03297 -0.07735   1.078  2.955  0.000
   444C    -0.03263 -0.07703   1.078  2.955  0.000
   445C     0.06457  0.12909   1.106  2.829  0.000
   446N    -0.15346 -0.50615   1.316  3.838  0.000
   447C     0.02191  0.02920   1.089  2.889  0.000
   448C    -0.01788 -0.01963   1.080  2.938  0.000
   449C    -0.02496 -0.02744   1.073  2.952  0.000
   450C     0.02966  0.02455   1.089  2.881  0.000
   451C    -0.01596 -0.06266   1.090  2.926  0.000
   452C     0.05446  0.07904   1.129  2.817  0.000
   453N    -0.25679 -0.45190   1.381  3.875  0.000
   454C     0.05444  0.07903   1.129  2.817  0.000
   455C    -0.01643 -0.06312   1.090  2.927  0.000
   456C     0.06301  0.13253   1.128  2.809  0.000
   457C    -0.03716 -0.08260   1.089  2.948  0.000
   458C    -0.03769 -0.08310   1.090  2.948  0.000
   459N    -0.28287 -0.46923   1.295  3.988  0.000
   460C     0.06533  0.13555   1.130  2.805  0.000
   461C     0.02007  0.02736   1.086  2.894  0.000
   462C     0.06652  0.13125   1.108  2.825  0.000
   463C    -0.03332 -0.07769   1.078  2.955  0.000
   464C    -0.03275 -0.07714   1.078  2.955  0.000
   465C     0.06446  0.12899   1.106  2.830  0.000
   466N    -0.15354 -0.50624   1.316  3.838  0.000
   467C     0.02197  0.02926   1.089  2.889  0.000
   468C    -0.01786 -0.01961   1.080  2.938  0.000
   469C    -0.02492 -0.02741   1.073  2.952  0.000
   470C     0.02967  0.02455   1.089  2.881  0.000
   471C    -0.01581 -0.06251   1.090  2.926  0.000
   472C     0.05458  0.07915   1.129  2.817  0.000
   473N    -0.25678 -0.45189   1.381  3.875  0.000
   474C     0.05433  0.07892   1.129  2.817  0.000
   475C    -0.01655 -0.06325   1.090  2.927  0.000
   476C     0.06301  0.13252   1.128  2.809  0.000
   477C    -0.03711 -0.08256   1.089  2.948  0.000
   478C    -0.03744 -0.08285   1.090  2.948  0.000
   479C     0.06543  0.13568   1.130  2.805  0.000
   480N    -0.28270 -0.46906   1.295  3.987  0.000
   481H     0.03746  0.09546   0.963  0.000  0.000
   482H     0.03717  0.09522   0.963  0.000  0.000
   483H     0.16641  0.37423   0.834  0.000  0.000
   484H     0.03725  0.09451   0.963  0.000  0.000
   485H     0.03470  0.10062   0.965  0.000  0.000
   486H     0.03488  0.10079   0.965  0.000  0.000
   487H     0.03712  0.09436   0.963  0.000  0.000
   488H     0.02708  0.08507   0.973  0.000  0.000
   489H     0.02660  0.08455   0.973  0.000  0.000
   490H     0.03700  0.09501   0.963  0.000  0.000
   491H     0.03697  0.09502   0.963  0.000  0.000
   492H     0.16644  0.37426   0.834  0.000  0.000
   493H     0.03754  0.09480   0.962  0.000  0.000
   494H     0.03500  0.10091   0.965  0.000  0.000
   495H     0.03460  0.10050   0.965  0.000  0.000
   496H     0.03684  0.09408   0.963  0.000  0.000
   497H     0.02723  0.08522   0.973  0.000  0.000
   498H     0.02700  0.08495   0.973  0.000  0.000
   499C     0.02130  0.02859   1.087  2.892  0.000
   500C     0.06664  0.13139   1.108  2.825  0.000
   501C    -0.03260 -0.07698   1.078  2.954  0.000
   502C    -0.03256 -0.07696   1.078  2.955  0.000
   503C     0.06491  0.12942   1.106  2.829  0.000
   504N    -0.15341 -0.50612   1.316  3.838  0.000
   505C     0.02132  0.02862   1.088  2.890  0.000
   506C    -0.01820 -0.01995   1.080  2.939  0.000
   507C    -0.02519 -0.02767   1.073  2.953  0.000
   508C     0.02955  0.02444   1.089  2.881  0.000
   509C    -0.01612 -0.06282   1.090  2.926  0.000
   510C     0.05436  0.07893   1.129  2.817  0.000
   511N    -0.25689 -0.45200   1.381  3.875  0.000
   512C     0.05445  0.07904   1.129  2.817  0.000
   513C    -0.01647 -0.06316   1.090  2.927  0.000
   514C     0.06366  0.13337   1.128  2.808  0.000
   515C    -0.03692 -0.08236   1.089  2.948  0.000
   516C    -0.03751 -0.08294   1.090  2.947  0.000
   517N    -0.28321 -0.46958   1.295  3.988  0.000
   518C     0.06506  0.13507   1.130  2.805  0.000
   519C     0.01999  0.02729   1.086  2.894  0.000
   520C     0.06643  0.13108   1.108  2.826  0.000
   521C    -0.03322 -0.07761   1.079  2.955  0.000
   522C    -0.03254 -0.07693   1.078  2.955  0.000
   523C     0.06495  0.12953   1.106  2.829  0.000
   524N    -0.15377 -0.50644   1.315  3.838  0.000
   525C     0.02177  0.02906   1.089  2.890  0.000
   526C    -0.01799 -0.01974   1.080  2.938  0.000
   527C    -0.02497 -0.02745   1.073  2.952  0.000
   528C     0.02964  0.02452   1.089  2.881  0.000
   529C    -0.01572 -0.06242   1.090  2.926  0.000
   530C     0.05467  0.07925   1.129  2.816  0.000
   531N    -0.25669 -0.45180   1.381  3.875  0.000
   532C     0.05427  0.07886   1.129  2.817  0.000
   533C    -0.01669 -0.06338   1.090  2.927  0.000
   534C     0.06325  0.13276   1.128  2.809  0.000
   535C    -0.03700 -0.08245   1.089  2.948  0.000
   536C    -0.03712 -0.08253   1.090  2.947  0.000
   537C     0.06557  0.13581   1.130  2.805  0.000
   538N    -0.28253 -0.46893   1.295  3.987  0.000
   539H     0.03786  0.09586   0.962  0.000  0.000
   540H     0.03746  0.09550   0.963  0.000  0.000
   541H     0.16646  0.37431   0.834  0.000  0.000
   542H     0.03719  0.09445   0.963  0.000  0.000
   543H     0.03455  0.10047   0.965  0.000  0.000
   544H     0.03499  0.10090   0.965  0.000  0.000
   545H     0.03724  0.09448   0.963  0.000  0.000
   546H     0.02742  0.08541   0.973  0.000  0.000
   547H     0.02662  0.08459   0.973  0.000  0.000
   548H     0.03672  0.09471   0.963  0.000  0.000
   549H     0.03720  0.09524   0.963  0.000  0.000
   550H     0.16671  0.37455   0.833  0.000  0.000
   551H     0.03778  0.09504   0.962  0.000  0.000
   552H     0.03528  0.10119   0.965  0.000  0.000
   553H     0.03450  0.10041   0.966  0.000  0.000
   554H     0.03679  0.09403   0.963  0.000  0.000
   555H     0.02752  0.08552   0.972  0.000  0.000
   556H     0.02743  0.08538   0.973  0.000  0.000

Wiberg/Mayer (AO) data.
largest (>0.10) Wiberg bond orders for each atom

 ---------------------------------------------------------------------------
     #   Z sym  total        # sym  WBO       # sym  WBO       # sym  WBO
 ---------------------------------------------------------------------------
     1   6 C    3.828 --    39 C    1.399     2 C    1.368    41 H    0.995
     2   6 C    3.915 --     1 C    1.368     3 C    1.245     6 N    1.224
     3   6 C    3.844 --     4 C    1.591     2 C    1.245    42 H    0.992
     4   6 C    3.832 --     3 C    1.591     5 C    1.260    43 H    0.999
     5   6 C    3.915 --     7 C    1.295     4 C    1.260     6 N    1.248
     6   7 N    3.262 --     5 C    1.248     2 C    1.224    44 H    0.961
     7   6 C    3.857 --    16 C    1.315     5 C    1.295     8 C    1.184
     8   6 C    3.815 --     9 C    2.663     7 C    1.184
     9   6 C    3.787 --     8 C    2.663    10 C    1.153
    10   6 C    3.930 --    15 C    1.375    11 C    1.375     9 C    1.153
    11   6 C    3.879 --    12 C    1.462    10 C    1.375    45 H    0.988
    12   6 C    4.006 --    13 N    1.471    11 C    1.462    46 H    0.981
    13   7 N    2.924 --    12 C    1.471    14 C    1.471
    14   6 C    4.006 --    13 N    1.471    15 C    1.461    47 H    0.981
    15   6 C    3.878 --    14 C    1.461    10 C    1.375    48 H    0.988
    16   6 C    3.942 --    19 N    1.385     7 C    1.315    17 C    1.163
    17   6 C    3.850 --    18 C    1.695    16 C    1.163    49 H    0.999
    18   6 C    3.857 --    17 C    1.695    20 C    1.163    50 H    0.998
    19   7 N    2.577 --    20 C    1.391    16 C    1.385
    20   6 C    3.935 --    19 N    1.391    21 C    1.308    18 C    1.163
    21   6 C    3.859 --    20 C    1.308    22 C    1.292   120 C    1.201
    22   6 C    3.897 --    21 C    1.292    23 C    1.268    26 N    1.241
    23   6 C    3.837 --    24 C    1.580    22 C    1.268    51 H    0.997
    24   6 C    3.828 --    23 C    1.580    25 C    1.266    52 H    0.998
    25   6 C    3.908 --    27 C    1.299    24 C    1.266    26 N    1.239
    26   7 N    3.269 --    22 C    1.241    25 C    1.239    53 H    0.960
    27   6 C    3.846 --    36 C    1.303    25 C    1.299    28 C    1.187
    28   6 C    3.815 --    29 C    2.659    27 C    1.187
    29   6 C    3.783 --    28 C    2.659    30 C    1.154
    30   6 C    3.930 --    35 C    1.374    31 C    1.374    29 C    1.154
    31   6 C    3.878 --    32 C    1.462    30 C    1.374    54 H    0.988
    32   6 C    4.006 --    33 N    1.471    31 C    1.462    55 H    0.981
    33   7 N    2.923 --    32 C    1.471    34 C    1.470
    34   6 C    4.006 --    33 N    1.470    35 C    1.462    56 H    0.981
    35   6 C    3.878 --    34 C    1.462    30 C    1.374    57 H    0.988
    36   6 C    3.961 --    40 N    1.411    27 C    1.303    37 C    1.156
    37   6 C    3.851 --    38 C    1.707    36 C    1.156    58 H    1.000
    38   6 C    3.868 --    37 C    1.707    39 C    1.146    59 H    0.992
    39   6 C    3.956 --     1 C    1.399    40 N    1.356    38 C    1.146
    40   7 N    2.569 --    36 C    1.411    39 C    1.356
    41   1 H    1.030 --     1 C    0.995
    42   1 H    1.012 --     3 C    0.992
    43   1 H    1.015 --     4 C    0.999
    44   1 H    1.078 --     6 N    0.961
    45   1 H    1.032 --    11 C    0.988
    46   1 H    1.048 --    12 C    0.981
    47   1 H    1.048 --    14 C    0.981
    48   1 H    1.032 --    15 C    0.988
    49   1 H    1.021 --    17 C    0.999
    50   1 H    1.027 --    18 C    0.998
    51   1 H    1.023 --    23 C    0.997
    52   1 H    1.015 --    24 C    0.998
    53   1 H    1.079 --    26 N    0.960
    54   1 H    1.031 --    31 C    0.988
    55   1 H    1.048 --    32 C    0.981
    56   1 H    1.048 --    34 C    0.981
    57   1 H    1.033 --    35 C    0.988
    58   1 H    1.020 --    37 C    1.000
    59   1 H    1.015 --    38 C    0.992
    60   6 C    3.826 --    98 C    1.399    61 C    1.367   100 H    0.995
    61   6 C    3.915 --    60 C    1.367    62 C    1.246    65 N    1.225
    62   6 C    3.843 --    63 C    1.591    61 C    1.246   101 H    0.992
    63   6 C    3.832 --    62 C    1.591    64 C    1.261   102 H    0.999
    64   6 C    3.915 --    66 C    1.295    63 C    1.261    65 N    1.248
    65   7 N    3.262 --    64 C    1.248    61 C    1.225   103 H    0.961
    66   6 C    3.858 --    75 C    1.316    64 C    1.295    67 C    1.184
    67   6 C    3.815 --    68 C    2.663    66 C    1.184
    68   6 C    3.787 --    67 C    2.663    69 C    1.153
    69   6 C    3.931 --    74 C    1.375    70 C    1.375    68 C    1.153
    70   6 C    3.881 --    71 C    1.462    69 C    1.375   104 H    0.988
    71   6 C    4.006 --    72 N    1.471    70 C    1.462   105 H    0.981
    72   7 N    2.924 --    71 C    1.471    73 C    1.471
    73   6 C    4.006 --    72 N    1.471    74 C    1.462   106 H    0.981
    74   6 C    3.878 --    73 C    1.462    69 C    1.375   107 H    0.988
    75   6 C    3.941 --    78 N    1.383    66 C    1.316    76 C    1.163
    76   6 C    3.850 --    77 C    1.695    75 C    1.163   108 H    0.999
    77   6 C    3.856 --    76 C    1.695    79 C    1.163   109 H    0.999
    78   7 N    2.577 --    79 C    1.393    75 C    1.383
    79   6 C    3.934 --    78 N    1.393    80 C    1.305    77 C    1.163
    80   6 C    3.857 --    79 C    1.305    81 C    1.290   150 C    1.205
    81   6 C    3.896 --    80 C    1.290    82 C    1.269    85 N    1.242
    82   6 C    3.837 --    83 C    1.579    81 C    1.269   110 H    0.997
    83   6 C    3.828 --    82 C    1.579    84 C    1.267   111 H    0.998
    84   6 C    3.907 --    86 C    1.299    83 C    1.267    85 N    1.239
    85   7 N    3.269 --    81 C    1.242    84 C    1.239   112 H    0.960
    86   6 C    3.846 --    95 C    1.304    84 C    1.299    87 C    1.188
    87   6 C    3.815 --    88 C    2.659    86 C    1.188
    88   6 C    3.783 --    87 C    2.659    89 C    1.154
    89   6 C    3.930 --    90 C    1.374    94 C    1.374    88 C    1.154
    90   6 C    3.878 --    91 C    1.462    89 C    1.374   113 H    0.988
    91   6 C    4.006 --    92 N    1.471    90 C    1.462   114 H    0.981
    92   7 N    2.923 --    91 C    1.471    93 C    1.470
    93   6 C    4.006 --    92 N    1.470    94 C    1.462   115 H    0.981
    94   6 C    3.877 --    93 C    1.462    89 C    1.374   116 H    0.988
    95   6 C    3.961 --    99 N    1.411    86 C    1.304    96 C    1.156
    96   6 C    3.851 --    97 C    1.707    95 C    1.156   117 H    1.000
    97   6 C    3.868 --    96 C    1.707    98 C    1.146   118 H    0.992
    98   6 C    3.956 --    60 C    1.399    99 N    1.356    97 C    1.146
    99   7 N    2.568 --    95 C    1.411    98 C    1.356
   100   1 H    1.030 --    60 C    0.995
   101   1 H    1.012 --    62 C    0.992
   102   1 H    1.015 --    63 C    0.999
   103   1 H    1.078 --    65 N    0.961
   104   1 H    1.032 --    70 C    0.988
   105   1 H    1.048 --    71 C    0.981
   106   1 H    1.048 --    73 C    0.981
   107   1 H    1.032 --    74 C    0.988
   108   1 H    1.022 --    76 C    0.999
   109   1 H    1.027 --    77 C    0.999
   110   1 H    1.023 --    82 C    0.997
   111   1 H    1.015 --    83 C    0.998
   112   1 H    1.079 --    85 N    0.960
   113   1 H    1.031 --    90 C    0.988
   114   1 H    1.048 --    91 C    0.981
   115   1 H    1.048 --    93 C    0.981
   116   1 H    1.033 --    94 C    0.988
   117   1 H    1.020 --    96 C    1.000
   118   1 H    1.015 --    97 C    0.992
   119   6 C    3.805 --   120 C    2.520   121 C    1.310
   120   6 C    3.798 --   119 C    2.520    21 C    1.201   122 C    0.181
   121   6 C    3.800 --   122 C    2.517   119 C    1.310
   122   6 C    3.801 --   121 C    2.517   151 C    1.204   120 C    0.181
   123   6 C    3.802 --   124 C    2.496   125 C    1.331
   124   6 C    3.803 --   123 C    2.496   171 C    1.224   126 C    0.181
   125   6 C    3.801 --   126 C    2.496   123 C    1.331
   126   6 C    3.803 --   125 C    2.496   209 C    1.225   124 C    0.181
   127   6 C    3.801 --   128 C    2.495   129 C    1.332
   128   6 C    3.803 --   127 C    2.495   229 C    1.225   130 C    0.181
   129   6 C    3.801 --   130 C    2.495   127 C    1.332
   130   6 C    3.803 --   129 C    2.495   267 C    1.225   128 C    0.181
   131   6 C    3.802 --   132 C    2.496   133 C    1.331
   132   6 C    3.803 --   131 C    2.496   287 C    1.225   134 C    0.181
   133   6 C    3.802 --   134 C    2.496   131 C    1.331
   134   6 C    3.803 --   133 C    2.496   325 C    1.225   132 C    0.181
   135   6 C    3.802 --   136 C    2.496   137 C    1.331
   136   6 C    3.803 --   135 C    2.496   345 C    1.225   138 C    0.181
   137   6 C    3.802 --   138 C    2.496   135 C    1.331
   138   6 C    3.803 --   137 C    2.496   383 C    1.225   136 C    0.181
   139   6 C    3.801 --   140 C    2.495   141 C    1.332
   140   6 C    3.803 --   139 C    2.495   403 C    1.225   142 C    0.181
   141   6 C    3.801 --   142 C    2.495   139 C    1.332
   142   6 C    3.803 --   141 C    2.495   441 C    1.225   140 C    0.181
   143   6 C    3.801 --   144 C    2.495   145 C    1.331
   144   6 C    3.803 --   143 C    2.495   461 C    1.225   146 C    0.181
   145   6 C    3.802 --   146 C    2.496   143 C    1.331
   146   6 C    3.803 --   145 C    2.496   499 C    1.225   144 C    0.181
   147   6 C    3.800 --   148 C    2.513   149 C    1.315
   148   6 C    3.802 --   147 C    2.513   519 C    1.208   150 C    0.181
   149   6 C    3.805 --   150 C    2.515   147 C    1.315
   150   6 C    3.799 --   149 C    2.515    80 C    1.205   148 C    0.181
   151   6 C    3.840 --   189 C    1.307   152 C    1.286   122 C    1.204
   152   6 C    3.899 --   151 C    1.286   153 C    1.273   156 N    1.243
   153   6 C    3.831 --   154 C    1.573   152 C    1.273   191 H    0.998
   154   6 C    3.829 --   153 C    1.573   155 C    1.272   192 H    0.999
   155   6 C    3.901 --   157 C    1.292   154 C    1.272   156 N    1.239
   156   7 N    3.263 --   152 C    1.243   155 C    1.239   193 H    0.961
   157   6 C    3.854 --   166 C    1.321   155 C    1.292   158 C    1.184
   158   6 C    3.815 --   159 C    2.664   157 C    1.184
   159   6 C    3.786 --   158 C    2.664   160 C    1.152
   160   6 C    3.930 --   161 C    1.375   165 C    1.375   159 C    1.152
   161   6 C    3.878 --   162 C    1.461   160 C    1.375   194 H    0.988
   162   6 C    4.006 --   163 N    1.471   161 C    1.461   195 H    0.981
   163   7 N    2.924 --   164 C    1.471   162 C    1.471
   164   6 C    4.006 --   163 N    1.471   165 C    1.461   196 H    0.981
   165   6 C    3.880 --   164 C    1.461   160 C    1.375   197 H    0.988
   166   6 C    3.938 --   169 N    1.378   157 C    1.321   167 C    1.164
   167   6 C    3.851 --   168 C    1.692   166 C    1.164   198 H    1.000
   168   6 C    3.853 --   167 C    1.692   170 C    1.165   199 H    0.999
   169   7 N    2.566 --   170 C    1.399   166 C    1.378
   170   6 C    3.931 --   169 N    1.399   171 C    1.296   168 C    1.165
   171   6 C    3.840 --   170 C    1.296   172 C    1.279   124 C    1.224
   172   6 C    3.895 --   171 C    1.279   173 C    1.276   176 N    1.245
   173   6 C    3.830 --   174 C    1.570   172 C    1.276   200 H    0.998
   174   6 C    3.826 --   173 C    1.570   175 C    1.274   201 H    0.999
   175   6 C    3.900 --   177 C    1.291   174 C    1.274   176 N    1.239
   176   7 N    3.265 --   172 C    1.245   175 C    1.239   202 H    0.961
   177   6 C    3.849 --   186 C    1.320   175 C    1.291   178 C    1.185
   178   6 C    3.815 --   179 C    2.662   177 C    1.185
   179   6 C    3.785 --   178 C    2.662   180 C    1.153
   180   6 C    3.930 --   181 C    1.375   185 C    1.375   179 C    1.153
   181   6 C    3.878 --   182 C    1.462   180 C    1.375   203 H    0.988
   182   6 C    4.006 --   183 N    1.471   181 C    1.462   204 H    0.981
   183   7 N    2.924 --   184 C    1.471   182 C    1.471
   184   6 C    4.006 --   183 N    1.471   185 C    1.462   205 H    0.981
   185   6 C    3.880 --   184 C    1.462   180 C    1.375   206 H    0.988
   186   6 C    3.941 --   190 N    1.382   177 C    1.320   187 C    1.163
   187   6 C    3.852 --   188 C    1.695   186 C    1.163   207 H    1.000
   188   6 C    3.855 --   187 C    1.695   189 C    1.164   208 H    0.999
   189   6 C    3.936 --   190 N    1.391   151 C    1.307   188 C    1.164
   190   7 N    2.563 --   189 C    1.391   186 C    1.382
   191   1 H    1.021 --   153 C    0.998
   192   1 H    1.019 --   154 C    0.999
   193   1 H    1.079 --   156 N    0.961
   194   1 H    1.033 --   161 C    0.988
   195   1 H    1.048 --   162 C    0.981
   196   1 H    1.048 --   164 C    0.981
   197   1 H    1.032 --   165 C    0.988
   198   1 H    1.024 --   167 C    1.000
   199   1 H    1.025 --   168 C    0.999
   200   1 H    1.020 --   173 C    0.998
   201   1 H    1.017 --   174 C    0.999
   202   1 H    1.079 --   176 N    0.961
   203   1 H    1.033 --   181 C    0.988
   204   1 H    1.048 --   182 C    0.981
   205   1 H    1.048 --   184 C    0.981
   206   1 H    1.032 --   185 C    0.988
   207   1 H    1.023 --   187 C    1.000
   208   1 H    1.025 --   188 C    0.999
   209   6 C    3.835 --   247 C    1.295   210 C    1.277   126 C    1.225
   210   6 C    3.896 --   209 C    1.277   211 C    1.277   214 N    1.247
   211   6 C    3.829 --   212 C    1.569   210 C    1.277   249 H    0.998
   212   6 C    3.827 --   211 C    1.569   213 C    1.275   250 H    0.999
   213   6 C    3.900 --   215 C    1.290   212 C    1.275   214 N    1.238
   214   7 N    3.263 --   210 C    1.247   213 C    1.238   251 H    0.961
   215   6 C    3.851 --   224 C    1.322   213 C    1.290   216 C    1.184
   216   6 C    3.815 --   217 C    2.663   215 C    1.184
   217   6 C    3.786 --   216 C    2.663   218 C    1.152
   218   6 C    3.930 --   219 C    1.375   223 C    1.375   217 C    1.152
   219   6 C    3.878 --   220 C    1.461   218 C    1.375   252 H    0.988
   220   6 C    4.006 --   221 N    1.471   219 C    1.461   253 H    0.981
   221   7 N    2.924 --   222 C    1.471   220 C    1.471
   222   6 C    4.006 --   221 N    1.471   223 C    1.461   254 H    0.981
   223   6 C    3.880 --   222 C    1.461   218 C    1.375   255 H    0.988
   224   6 C    3.938 --   227 N    1.376   215 C    1.322   225 C    1.165
   225   6 C    3.850 --   226 C    1.692   224 C    1.165   256 H    1.000
   226   6 C    3.852 --   225 C    1.692   228 C    1.166   257 H    0.999
   227   7 N    2.563 --   228 C    1.400   224 C    1.376
   228   6 C    3.931 --   227 N    1.400   229 C    1.295   226 C    1.166
   229   6 C    3.836 --   228 C    1.295   230 C    1.277   128 C    1.225
   230   6 C    3.896 --   229 C    1.277   231 C    1.277   234 N    1.246
   231   6 C    3.829 --   232 C    1.569   230 C    1.277   258 H    0.998
   232   6 C    3.827 --   231 C    1.569   233 C    1.275   259 H    0.999
   233   6 C    3.900 --   235 C    1.290   232 C    1.275   234 N    1.239
   234   7 N    3.263 --   230 C    1.246   233 C    1.239   260 H    0.961
   235   6 C    3.851 --   244 C    1.323   233 C    1.290   236 C    1.184
   236   6 C    3.815 --   237 C    2.663   235 C    1.184
   237   6 C    3.786 --   236 C    2.663   238 C    1.152
   238   6 C    3.930 --   239 C    1.375   243 C    1.375   237 C    1.152
   239   6 C    3.878 --   240 C    1.461   238 C    1.375   261 H    0.988
   240   6 C    4.006 --   241 N    1.471   239 C    1.461   262 H    0.981
   241   7 N    2.924 --   242 C    1.471   240 C    1.471
   242   6 C    4.006 --   241 N    1.471   243 C    1.461   263 H    0.981
   243   6 C    3.880 --   242 C    1.461   238 C    1.375   264 H    0.988
   244   6 C    3.938 --   248 N    1.376   235 C    1.323   245 C    1.164
   245   6 C    3.851 --   246 C    1.692   244 C    1.164   265 H    1.000
   246   6 C    3.852 --   245 C    1.692   247 C    1.165   266 H    0.999
   247   6 C    3.932 --   248 N    1.400   209 C    1.295   246 C    1.165
   248   7 N    2.563 --   247 C    1.400   244 C    1.376
   249   1 H    1.020 --   211 C    0.998
   250   1 H    1.019 --   212 C    0.999
   251   1 H    1.079 --   214 N    0.961
   252   1 H    1.033 --   219 C    0.988
   253   1 H    1.048 --   220 C    0.981
   254   1 H    1.048 --   222 C    0.981
   255   1 H    1.032 --   223 C    0.988
   256   1 H    1.025 --   225 C    1.000
   257   1 H    1.025 --   226 C    0.999
   258   1 H    1.020 --   231 C    0.998
   259   1 H    1.019 --   232 C    0.999
   260   1 H    1.079 --   234 N    0.961
   261   1 H    1.033 --   239 C    0.988
   262   1 H    1.048 --   240 C    0.981
   263   1 H    1.048 --   242 C    0.981
   264   1 H    1.032 --   243 C    0.988
   265   1 H    1.025 --   245 C    1.000
   266   1 H    1.025 --   246 C    0.999
   267   6 C    3.837 --   305 C    1.295   268 C    1.278   130 C    1.225
   268   6 C    3.896 --   267 C    1.278   269 C    1.276   272 N    1.246
   269   6 C    3.830 --   270 C    1.569   268 C    1.276   307 H    0.998
   270   6 C    3.827 --   269 C    1.569   271 C    1.275   308 H    0.999
   271   6 C    3.900 --   273 C    1.290   270 C    1.275   272 N    1.239
   272   7 N    3.263 --   268 C    1.246   271 C    1.239   309 H    0.961
   273   6 C    3.852 --   282 C    1.322   271 C    1.290   274 C    1.184
   274   6 C    3.815 --   275 C    2.663   273 C    1.184
   275   6 C    3.786 --   274 C    2.663   276 C    1.152
   276   6 C    3.930 --   277 C    1.375   281 C    1.375   275 C    1.152
   277   6 C    3.878 --   278 C    1.461   276 C    1.375   310 H    0.988
   278   6 C    4.006 --   279 N    1.471   277 C    1.461   311 H    0.981
   279   7 N    2.924 --   280 C    1.471   278 C    1.471
   280   6 C    4.006 --   279 N    1.471   281 C    1.461   312 H    0.981
   281   6 C    3.880 --   280 C    1.461   276 C    1.375   313 H    0.988
   282   6 C    3.938 --   285 N    1.377   273 C    1.322   283 C    1.164
   283   6 C    3.851 --   284 C    1.692   282 C    1.164   314 H    1.000
   284   6 C    3.852 --   283 C    1.692   286 C    1.166   315 H    0.999
   285   7 N    2.564 --   286 C    1.400   282 C    1.377
   286   6 C    3.931 --   285 N    1.400   287 C    1.295   284 C    1.166
   287   6 C    3.837 --   286 C    1.295   288 C    1.278   132 C    1.225
   288   6 C    3.896 --   287 C    1.278   289 C    1.276   292 N    1.246
   289   6 C    3.830 --   290 C    1.570   288 C    1.276   316 H    0.998
   290   6 C    3.827 --   289 C    1.570   291 C    1.275   317 H    0.999
   291   6 C    3.900 --   293 C    1.291   290 C    1.275   292 N    1.238
   292   7 N    3.263 --   288 C    1.246   291 C    1.238   318 H    0.961
   293   6 C    3.852 --   302 C    1.322   291 C    1.291   294 C    1.184
   294   6 C    3.815 --   295 C    2.663   293 C    1.184
   295   6 C    3.786 --   294 C    2.663   296 C    1.152
   296   6 C    3.930 --   297 C    1.375   301 C    1.375   295 C    1.152
   297   6 C    3.878 --   298 C    1.461   296 C    1.375   319 H    0.988
   298   6 C    4.006 --   299 N    1.471   297 C    1.461   320 H    0.981
   299   7 N    2.924 --   300 C    1.471   298 C    1.471
   300   6 C    4.006 --   299 N    1.471   301 C    1.461   321 H    0.981
   301   6 C    3.880 --   300 C    1.461   296 C    1.375   322 H    0.988
   302   6 C    3.938 --   306 N    1.377   293 C    1.322   303 C    1.165
   303   6 C    3.850 --   304 C    1.692   302 C    1.165   323 H    1.000
   304   6 C    3.852 --   303 C    1.692   305 C    1.166   324 H    0.999
   305   6 C    3.931 --   306 N    1.400   267 C    1.295   304 C    1.166
   306   7 N    2.564 --   305 C    1.400   302 C    1.377
   307   1 H    1.020 --   269 C    0.998
   308   1 H    1.019 --   270 C    0.999
   309   1 H    1.079 --   272 N    0.961
   310   1 H    1.033 --   277 C    0.988
   311   1 H    1.048 --   278 C    0.981
   312   1 H    1.048 --   280 C    0.981
   313   1 H    1.032 --   281 C    0.988
   314   1 H    1.025 --   283 C    1.000
   315   1 H    1.025 --   284 C    0.999
   316   1 H    1.020 --   289 C    0.998
   317   1 H    1.019 --   290 C    0.999
   318   1 H    1.079 --   292 N    0.961
   319   1 H    1.033 --   297 C    0.988
   320   1 H    1.048 --   298 C    0.981
   321   1 H    1.048 --   300 C    0.981
   322   1 H    1.032 --   301 C    0.988
   323   1 H    1.025 --   303 C    1.000
   324   1 H    1.025 --   304 C    0.999
   325   6 C    3.838 --   363 C    1.295   326 C    1.278   134 C    1.225
   326   6 C    3.896 --   325 C    1.278   327 C    1.276   330 N    1.246
   327   6 C    3.830 --   328 C    1.570   326 C    1.276   365 H    0.998
   328   6 C    3.828 --   327 C    1.570   329 C    1.274   366 H    0.999
   329   6 C    3.900 --   331 C    1.291   328 C    1.274   330 N    1.239
   330   7 N    3.263 --   326 C    1.246   329 C    1.239   367 H    0.961
   331   6 C    3.852 --   340 C    1.322   329 C    1.291   332 C    1.184
   332   6 C    3.815 --   333 C    2.664   331 C    1.184
   333   6 C    3.786 --   332 C    2.664   334 C    1.152
   334   6 C    3.930 --   335 C    1.375   339 C    1.375   333 C    1.152
   335   6 C    3.878 --   336 C    1.461   334 C    1.375   368 H    0.988
   336   6 C    4.006 --   337 N    1.471   335 C    1.461   369 H    0.981
   337   7 N    2.924 --   338 C    1.471   336 C    1.471
   338   6 C    4.006 --   337 N    1.471   339 C    1.461   370 H    0.981
   339   6 C    3.880 --   338 C    1.461   334 C    1.375   371 H    0.988
   340   6 C    3.938 --   343 N    1.377   331 C    1.322   341 C    1.165
   341   6 C    3.851 --   342 C    1.692   340 C    1.165   372 H    1.000
   342   6 C    3.852 --   341 C    1.692   344 C    1.166   373 H    0.999
   343   7 N    2.564 --   344 C    1.400   340 C    1.377
   344   6 C    3.931 --   343 N    1.400   345 C    1.295   342 C    1.166
   345   6 C    3.838 --   344 C    1.295   346 C    1.278   136 C    1.225
   346   6 C    3.896 --   345 C    1.278   347 C    1.276   350 N    1.246
   347   6 C    3.830 --   348 C    1.570   346 C    1.276   374 H    0.998
   348   6 C    3.828 --   347 C    1.570   349 C    1.274   375 H    0.999
   349   6 C    3.900 --   351 C    1.291   348 C    1.274   350 N    1.239
   350   7 N    3.263 --   346 C    1.246   349 C    1.239   376 H    0.961
   351   6 C    3.852 --   360 C    1.322   349 C    1.291   352 C    1.184
   352   6 C    3.815 --   353 C    2.663   351 C    1.184
   353   6 C    3.786 --   352 C    2.663   354 C    1.152
   354   6 C    3.930 --   355 C    1.375   359 C    1.375   353 C    1.152
   355   6 C    3.878 --   356 C    1.461   354 C    1.375   377 H    0.988
   356   6 C    4.006 --   357 N    1.471   355 C    1.461   378 H    0.981
   357   7 N    2.924 --   358 C    1.471   356 C    1.471
   358   6 C    4.006 --   357 N    1.471   359 C    1.461   379 H    0.981
   359   6 C    3.880 --   358 C    1.461   354 C    1.375   380 H    0.988
   360   6 C    3.938 --   364 N    1.377   351 C    1.322   361 C    1.165
   361   6 C    3.851 --   362 C    1.692   360 C    1.165   381 H    1.000
   362   6 C    3.852 --   361 C    1.692   363 C    1.166   382 H    0.999
   363   6 C    3.931 --   364 N    1.400   325 C    1.295   362 C    1.166
   364   7 N    2.564 --   363 C    1.400   360 C    1.377
   365   1 H    1.020 --   327 C    0.998
   366   1 H    1.018 --   328 C    0.999
   367   1 H    1.079 --   330 N    0.961
   368   1 H    1.033 --   335 C    0.988
   369   1 H    1.048 --   336 C    0.981
   370   1 H    1.048 --   338 C    0.981
   371   1 H    1.032 --   339 C    0.988
   372   1 H    1.025 --   341 C    1.000
   373   1 H    1.025 --   342 C    0.999
   374   1 H    1.020 --   347 C    0.998
   375   1 H    1.019 --   348 C    0.999
   376   1 H    1.079 --   350 N    0.961
   377   1 H    1.033 --   355 C    0.988
   378   1 H    1.048 --   356 C    0.981
   379   1 H    1.048 --   358 C    0.981
   380   1 H    1.032 --   359 C    0.988
   381   1 H    1.025 --   361 C    1.000
   382   1 H    1.025 --   362 C    0.999
   383   6 C    3.837 --   421 C    1.295   384 C    1.278   138 C    1.225
   384   6 C    3.896 --   383 C    1.278   385 C    1.276   388 N    1.246
   385   6 C    3.830 --   386 C    1.570   384 C    1.276   423 H    0.998
   386   6 C    3.827 --   385 C    1.570   387 C    1.275   424 H    0.999
   387   6 C    3.900 --   389 C    1.291   386 C    1.275   388 N    1.239
   388   7 N    3.263 --   384 C    1.246   387 C    1.239   425 H    0.961
   389   6 C    3.852 --   398 C    1.322   387 C    1.291   390 C    1.184
   390   6 C    3.815 --   391 C    2.664   389 C    1.184
   391   6 C    3.786 --   390 C    2.664   392 C    1.152
   392   6 C    3.930 --   393 C    1.375   397 C    1.375   391 C    1.152
   393   6 C    3.878 --   394 C    1.461   392 C    1.375   426 H    0.988
   394   6 C    4.006 --   395 N    1.471   393 C    1.461   427 H    0.981
   395   7 N    2.924 --   396 C    1.471   394 C    1.471
   396   6 C    4.006 --   395 N    1.471   397 C    1.461   428 H    0.981
   397   6 C    3.880 --   396 C    1.461   392 C    1.375   429 H    0.988
   398   6 C    3.938 --   401 N    1.377   389 C    1.322   399 C    1.165
   399   6 C    3.851 --   400 C    1.692   398 C    1.165   430 H    1.000
   400   6 C    3.852 --   399 C    1.692   402 C    1.166   431 H    0.999
   401   7 N    2.564 --   402 C    1.400   398 C    1.377
   402   6 C    3.931 --   401 N    1.400   403 C    1.295   400 C    1.166
   403   6 C    3.837 --   402 C    1.295   404 C    1.278   140 C    1.225
   404   6 C    3.896 --   403 C    1.278   405 C    1.276   408 N    1.246
   405   6 C    3.830 --   406 C    1.569   404 C    1.276   432 H    0.998
   406   6 C    3.827 --   405 C    1.569   407 C    1.275   433 H    0.999
   407   6 C    3.900 --   409 C    1.290   406 C    1.275   408 N    1.239
   408   7 N    3.263 --   404 C    1.246   407 C    1.239   434 H    0.961
   409   6 C    3.852 --   418 C    1.322   407 C    1.290   410 C    1.184
   410   6 C    3.815 --   411 C    2.663   409 C    1.184
   411   6 C    3.786 --   410 C    2.663   412 C    1.152
   412   6 C    3.930 --   413 C    1.375   417 C    1.375   411 C    1.152
   413   6 C    3.878 --   414 C    1.461   412 C    1.375   435 H    0.988
   414   6 C    4.006 --   415 N    1.471   413 C    1.461   436 H    0.981
   415   7 N    2.924 --   416 C    1.471   414 C    1.471
   416   6 C    4.006 --   415 N    1.471   417 C    1.461   437 H    0.981
   417   6 C    3.880 --   416 C    1.461   412 C    1.375   438 H    0.988
   418   6 C    3.938 --   422 N    1.377   409 C    1.322   419 C    1.164
   419   6 C    3.851 --   420 C    1.692   418 C    1.164   439 H    1.000
   420   6 C    3.852 --   419 C    1.692   421 C    1.166   440 H    0.999
   421   6 C    3.931 --   422 N    1.400   383 C    1.295   420 C    1.166
   422   7 N    2.564 --   421 C    1.400   418 C    1.377
   423   1 H    1.020 --   385 C    0.998
   424   1 H    1.018 --   386 C    0.999
   425   1 H    1.079 --   388 N    0.961
   426   1 H    1.033 --   393 C    0.988
   427   1 H    1.048 --   394 C    0.981
   428   1 H    1.048 --   396 C    0.981
   429   1 H    1.032 --   397 C    0.988
   430   1 H    1.025 --   399 C    1.000
   431   1 H    1.025 --   400 C    0.999
   432   1 H    1.020 --   405 C    0.998
   433   1 H    1.019 --   406 C    0.999
   434   1 H    1.079 --   408 N    0.961
   435   1 H    1.033 --   413 C    0.988
   436   1 H    1.048 --   414 C    0.981
   437   1 H    1.048 --   416 C    0.981
   438   1 H    1.032 --   417 C    0.988
   439   1 H    1.025 --   419 C    1.000
   440   1 H    1.025 --   420 C    0.999
   441   6 C    3.836 --   479 C    1.295   442 C    1.277   142 C    1.225
   442   6 C    3.896 --   441 C    1.277   443 C    1.277   446 N    1.246
   443   6 C    3.829 --   444 C    1.569   442 C    1.277   481 H    0.998
   444   6 C    3.827 --   443 C    1.569   445 C    1.275   482 H    0.999
   445   6 C    3.900 --   447 C    1.290   444 C    1.275   446 N    1.239
   446   7 N    3.263 --   442 C    1.246   445 C    1.239   483 H    0.961
   447   6 C    3.851 --   456 C    1.323   445 C    1.290   448 C    1.184
   448   6 C    3.815 --   449 C    2.663   447 C    1.184
   449   6 C    3.786 --   448 C    2.663   450 C    1.152
   450   6 C    3.930 --   451 C    1.375   455 C    1.375   449 C    1.152
   451   6 C    3.878 --   452 C    1.461   450 C    1.375   484 H    0.988
   452   6 C    4.006 --   453 N    1.471   451 C    1.461   485 H    0.981
   453   7 N    2.924 --   454 C    1.471   452 C    1.471
   454   6 C    4.006 --   453 N    1.471   455 C    1.461   486 H    0.981
   455   6 C    3.880 --   454 C    1.461   450 C    1.375   487 H    0.988
   456   6 C    3.938 --   459 N    1.376   447 C    1.323   457 C    1.164
   457   6 C    3.851 --   458 C    1.692   456 C    1.164   488 H    1.000
   458   6 C    3.852 --   457 C    1.692   460 C    1.165   489 H    0.999
   459   7 N    2.563 --   460 C    1.400   456 C    1.376
   460   6 C    3.932 --   459 N    1.400   461 C    1.295   458 C    1.165
   461   6 C    3.835 --   460 C    1.295   462 C    1.277   144 C    1.225
   462   6 C    3.896 --   461 C    1.277   463 C    1.277   466 N    1.247
   463   6 C    3.829 --   464 C    1.569   462 C    1.277   490 H    0.998
   464   6 C    3.827 --   463 C    1.569   465 C    1.275   491 H    0.999
   465   6 C    3.900 --   467 C    1.290   464 C    1.275   466 N    1.238
   466   7 N    3.263 --   462 C    1.247   465 C    1.238   492 H    0.961
   467   6 C    3.851 --   476 C    1.322   465 C    1.290   468 C    1.184
   468   6 C    3.815 --   469 C    2.663   467 C    1.184
   469   6 C    3.786 --   468 C    2.663   470 C    1.152
   470   6 C    3.930 --   471 C    1.375   475 C    1.375   469 C    1.152
   471   6 C    3.878 --   472 C    1.461   470 C    1.375   493 H    0.988
   472   6 C    4.006 --   473 N    1.471   471 C    1.461   494 H    0.981
   473   7 N    2.924 --   474 C    1.471   472 C    1.471
   474   6 C    4.006 --   473 N    1.471   475 C    1.461   495 H    0.981
   475   6 C    3.880 --   474 C    1.461   470 C    1.375   496 H    0.988
   476   6 C    3.938 --   480 N    1.376   467 C    1.322   477 C    1.165
   477   6 C    3.851 --   478 C    1.692   476 C    1.165   497 H    1.000
   478   6 C    3.852 --   477 C    1.692   479 C    1.166   498 H    0.999
   479   6 C    3.931 --   480 N    1.400   441 C    1.295   478 C    1.166
   480   7 N    2.563 --   479 C    1.400   476 C    1.376
   481   1 H    1.020 --   443 C    0.998
   482   1 H    1.019 --   444 C    0.999
   483   1 H    1.079 --   446 N    0.961
   484   1 H    1.033 --   451 C    0.988
   485   1 H    1.048 --   452 C    0.981
   486   1 H    1.048 --   454 C    0.981
   487   1 H    1.032 --   455 C    0.988
   488   1 H    1.025 --   457 C    1.000
   489   1 H    1.025 --   458 C    0.999
   490   1 H    1.020 --   463 C    0.998
   491   1 H    1.019 --   464 C    0.999
   492   1 H    1.079 --   466 N    0.961
   493   1 H    1.033 --   471 C    0.988
   494   1 H    1.048 --   472 C    0.981
   495   1 H    1.048 --   474 C    0.981
   496   1 H    1.032 --   475 C    0.988
   497   1 H    1.025 --   477 C    1.000
   498   1 H    1.025 --   478 C    0.999
   499   6 C    3.839 --   537 C    1.296   500 C    1.278   146 C    1.225
   500   6 C    3.895 --   499 C    1.278   501 C    1.276   504 N    1.246
   501   6 C    3.830 --   502 C    1.570   500 C    1.276   539 H    0.998
   502   6 C    3.826 --   501 C    1.570   503 C    1.274   540 H    0.999
   503   6 C    3.900 --   505 C    1.290   502 C    1.274   504 N    1.239
   504   7 N    3.264 --   500 C    1.246   503 C    1.239   541 H    0.961
   505   6 C    3.850 --   514 C    1.320   503 C    1.290   506 C    1.185
   506   6 C    3.815 --   507 C    2.663   505 C    1.185
   507   6 C    3.785 --   506 C    2.663   508 C    1.153
   508   6 C    3.930 --   513 C    1.375   509 C    1.375   507 C    1.153
   509   6 C    3.878 --   510 C    1.462   508 C    1.375   542 H    0.988
   510   6 C    4.006 --   511 N    1.471   509 C    1.462   543 H    0.981
   511   7 N    2.924 --   512 C    1.471   510 C    1.471
   512   6 C    4.006 --   511 N    1.471   513 C    1.461   544 H    0.981
   513   6 C    3.880 --   512 C    1.461   508 C    1.375   545 H    0.988
   514   6 C    3.940 --   517 N    1.381   505 C    1.320   515 C    1.163
   515   6 C    3.852 --   516 C    1.694   514 C    1.163   546 H    1.000
   516   6 C    3.854 --   515 C    1.694   518 C    1.164   547 H    0.999
   517   7 N    2.563 --   518 C    1.394   514 C    1.381
   518   6 C    3.935 --   517 N    1.394   519 C    1.304   516 C    1.164
   519   6 C    3.838 --   518 C    1.304   520 C    1.284   148 C    1.208
   520   6 C    3.898 --   519 C    1.284   521 C    1.274   524 N    1.244
   521   6 C    3.830 --   522 C    1.572   520 C    1.274   548 H    0.998
   522   6 C    3.829 --   521 C    1.572   523 C    1.273   549 H    0.999
   523   6 C    3.901 --   525 C    1.292   522 C    1.273   524 N    1.239
   524   7 N    3.263 --   520 C    1.244   523 C    1.239   550 H    0.961
   525   6 C    3.853 --   534 C    1.321   523 C    1.292   526 C    1.184
   526   6 C    3.815 --   527 C    2.664   525 C    1.184
   527   6 C    3.786 --   526 C    2.664   528 C    1.152
   528   6 C    3.930 --   529 C    1.375   533 C    1.375   527 C    1.152
   529   6 C    3.878 --   530 C    1.461   528 C    1.375   551 H    0.988
   530   6 C    4.006 --   531 N    1.471   529 C    1.461   552 H    0.981
   531   7 N    2.924 --   532 C    1.471   530 C    1.471
   532   6 C    4.006 --   531 N    1.471   533 C    1.461   553 H    0.981
   533   6 C    3.880 --   532 C    1.461   528 C    1.375   554 H    0.988
   534   6 C    3.938 --   538 N    1.378   525 C    1.321   535 C    1.164
   535   6 C    3.850 --   536 C    1.692   534 C    1.164   555 H    1.000
   536   6 C    3.853 --   535 C    1.692   537 C    1.165   556 H    0.999
   537   6 C    3.931 --   538 N    1.399   499 C    1.296   536 C    1.165
   538   7 N    2.566 --   537 C    1.399   534 C    1.378
   539   1 H    1.020 --   501 C    0.998
   540   1 H    1.019 --   502 C    0.999
   541   1 H    1.079 --   504 N    0.961
   542   1 H    1.033 --   509 C    0.988
   543   1 H    1.048 --   510 C    0.981
   544   1 H    1.048 --   512 C    0.981
   545   1 H    1.032 --   513 C    0.988
   546   1 H    1.025 --   515 C    1.000
   547   1 H    1.025 --   516 C    0.999
   548   1 H    1.021 --   521 C    0.998
   549   1 H    1.017 --   522 C    0.999
   550   1 H    1.079 --   524 N    0.961
   551   1 H    1.033 --   529 C    0.988
   552   1 H    1.048 --   530 C    0.981
   553   1 H    1.048 --   532 C    0.981
   554   1 H    1.032 --   533 C    0.988
   555   1 H    1.023 --   535 C    1.000
   556   1 H    1.025 --   536 C    0.999
 ---------------------------------------------------------------------------

Topologies differ in total number of bonds
Writing topology from bond orders to xtbtopo.mol

 dipole moment from electron density (au)
     X       Y       Z   
-359.4282   0.4499  -0.1030  total (Debye):  913.576


           -------------------------------------------------
          | TOTAL ENERGY            -1110.941149148794 Eh   |
          | GRADIENT NORM               0.130544854803 Eh/α |
          | HOMO-LUMO GAP               0.045127571476 eV   |
           -------------------------------------------------
########################################################################
[WARNING] Runtime exception occurred
-1- restart_readRestart: Dimension missmatch in restart file.
########################################################################

------------------------------------------------------------------------
 * finished run on 2022/07/28 at 22:55:40.391     
------------------------------------------------------------------------
 total:
 * wall-time:     0 d,  0 h,  3 min, 47.909 sec
 *  cpu-time:     0 d,  0 h,  3 min, 46.528 sec
 * ratio c/w:     0.994 speedup
 SCF:
 * wall-time:     0 d,  0 h,  3 min, 46.099 sec
 *  cpu-time:     0 d,  0 h,  3 min, 44.743 sec
 * ratio c/w:     0.994 speedup

