128
 energy: -232.205915162802 gnorm: 0.000304567271 xtb: 6.5.1 (b24c23e)
Co          13.31300472817626        0.03240463694304       -0.11592496266876
C            9.94197993887782        0.09331448474851       -0.26668662592581
C           10.62285718201861        1.28966999933787       -0.32803675348623
C            9.97741538132974        2.56217311447392       -0.44123796529851
C           10.93216316044613        3.50010583812551       -0.24118920821962
C           12.16426954585376        2.79925139574669       -0.02511381227595
N           11.97025530663524        1.44504175765819       -0.11732929133134
C           13.34788028812549        3.40769304347958        0.37165957720609
C           13.36033892198079        4.87110387198765        0.60282689374727
C           13.58544358740287        5.37924198490177        1.88512335564550
C           13.59084530081662        6.74377956097467        2.10226754676297
C           13.37685139234030        7.62986606623623        1.04135016480571
C           13.38707715820228        9.08179352994529        1.29878155154377
O           13.56990307414429        9.56725615426305        2.38552770848622
C           13.15738725616375        7.12213140179696       -0.24127510596622
C           13.14739390456926        5.75543462665312       -0.45751553724776
C           14.52350549580579        2.69314371172127        0.54039784341635
C           15.78073135685858        3.29585608758435        0.86889608301356
C           16.72671098743846        2.34123342597003        0.70340367041581
N           14.69598512651987        1.36315399086727        0.22743058379298
C           16.04549228843781        1.15790965828715        0.28314590587936
C           16.70668198878692       -0.00846270004685       -0.11130204153983
C           16.01259056071116       -1.17357451727838       -0.44628583917352
C           16.65846170779888       -2.38796990309575       -0.83192431762196
C           15.69610317628998       -3.34010304391266       -0.88248235810064
C           14.46470544959924       -2.70134465942573       -0.52812492924135
N           14.66441414986949       -1.35744254299577       -0.31357481652566
C           13.26144521537698       -3.37136387842295       -0.36107672845035
C           13.24105980430044       -4.84651643171107       -0.47396680961968
C           12.45948974574135       -5.46776249863767       -1.45232254744668
C           12.44046718030343       -6.84654939987606       -1.56300892624472
C           13.19914762129937       -7.63267620756500       -0.69249500721776
C           13.19218904917677       -9.10414302193535       -0.78720638783865
O           13.82708349586283       -9.82452781689010       -0.06046543469866
C           13.98076528476792       -7.01137062659391        0.28716992713189
C           14.00467785566470       -5.63403303149585        0.39290063630153
C           12.07216465936041       -2.69586056624652       -0.12256105736389
C           10.80342573239868       -3.33973540215124        0.05702081089321
C            9.86629503982697       -2.36318160291807        0.05626871967092
C           10.56541538769842       -1.12406385581546       -0.09844644140909
N           11.92082659486189       -1.33278813985727       -0.14675983173044
H            8.86030867444728        0.11344725439688       -0.32759535039856
H            8.92347963098732        2.69819716810765       -0.62414012879423
H           10.82133007115640        4.57202857132718       -0.22172097347829
H           13.74081125415378        4.69379771974967        2.71050743184068
H           13.75884991816866        7.14744811861366        3.09494983145847
H           13.20911990942025        9.70578864914390        0.39705133165544
H           12.99542433321581        7.80294990188497       -1.07064294909240
H           12.98939926044355        5.36402356729671       -1.45611869581654
H           15.91375499445428        4.32528972290183        1.15864335673229
H           17.79343577318445        2.41791558650429        0.83851916340229
H           17.71495236175791       -2.48484169358569       -1.02315043199740
H           15.79832448184010       -4.38170712899005       -1.13975208250760
H           11.87992183163854       -4.85965949851324       -2.13774210085885
H           11.83555119584972       -7.32022726716430       -2.32938177824657
H           12.54406679696364       -9.50554009889100       -1.59530306196876
H           14.56447769755309       -7.63016076402950        0.96020904807224
H           14.60286945765028       -5.15552606876112        1.16003733260314
H           10.66216142251140       -4.40298440006605        0.16366224436216
H            8.79587907335021       -2.45271476405055        0.15088057178109
Co          31.83744843086658       -0.01892753360889       -0.11926655873429
C           35.20911415768040       -0.05493940639109       -0.27996267946612
C           34.52951592234015       -1.23216830777080       -0.50516200399372
C           35.17702940556683       -2.47588257430681       -0.79245898339173
C           34.22322115825005       -3.43352409830133       -0.72666844493274
C           32.98964950036721       -2.77072321212769       -0.41845594413564
N           33.18201337165080       -1.41668562481640       -0.32013895495688
C           31.80528454360732       -3.43016561244967       -0.11707093349490
C           31.79366699719538       -4.91159874290525       -0.09617436889602
C           31.56210606114665       -5.59679251229571        1.09968971604308
C           31.55653676395550       -6.97833370133526        1.12076103101609
C           31.77694118414665       -7.70472866718455       -0.05408021515054
C           31.76561354841542       -9.17851933359393       -0.00570787645162
O           31.57658592186910       -9.81341722956918        0.99990102035418
C           32.00329947586404       -7.01992380102080       -1.25028006547457
C           32.01334212970127       -5.63636703833869       -1.27014230664903
C           30.62787583543359       -2.74790568981837        0.14624989736119
C           29.37032849281316       -3.39293689062605        0.37930822136395
C           28.42378138492824       -2.42510130162745        0.35135117986857
N           30.45484090381679       -1.38674768951230        0.02839019720814
C           29.10497957775932       -1.19273448542518        0.11014461354621
C           28.44297385350048        0.01845671645067       -0.10841661462370
C           29.13581876943603        1.22081705424762       -0.26836972552696
C           28.48795109938184        2.47788728374464       -0.47012276087970
C           29.44963939198680        3.42808092918080       -0.38438961380428
C           30.68260923422209        2.74553004721028       -0.13175320321316
N           30.48428527478160        1.38447964443547       -0.11395589591317
C           31.88648158260985        3.38587564639691        0.12316147946349
C           31.90608679078484        4.86218494250968        0.22166827305124
C           32.67903812926134        5.61722343898147       -0.66511498982886
C           32.69796175486618        6.99769941219931       -0.57796435409162
C           31.94794651563846        7.65093271567389        0.40292948192364
C           31.95544948374938        9.12082894028102        0.51955524935045
O           31.32852073776933        9.72962882215610        1.34811122389191
C           31.17482336127032        6.89560868329443        1.29087090564277
C           31.15081451198542        5.51726257959261        1.19894583016390
C           33.07727074895515        2.68479664544667        0.25681963560356
C           34.34632021459257        3.29885584753426        0.51936906311055
C           35.28399083120249        2.33307865789076        0.37869474515492
C           34.58491645195677        1.12689152328054        0.05540370584582
N           33.22922696669474        1.33878720046689        0.04087068084684
H           36.29074661633634       -0.06531479171517       -0.34399226144624
H           36.23153133259792       -2.58394096046657       -0.99016388647867
H           34.33550660534077       -4.49764348520852       -0.85594273488808
H           31.40162310961214       -5.03555952049275        2.01319724098035
H           31.38327067300916       -7.51891389621266        2.04507060591033
H           31.94915281994372       -9.66804274743575       -0.98594609293370
H           32.17045577715358       -7.57602613826983       -2.16701815536888
H           32.17650716245976       -5.10710057089781       -2.20214457924420
H           29.23761019901576       -4.45366112176620        0.51577561258389
H           27.35673015825236       -2.52127586266270        0.47047514664794
H           27.43075071552544        2.60064085851468       -0.64150410013329
H           29.34609451239679        4.49600887583870       -0.48625087393857
H           33.25203981415329        5.11351903291885       -1.43546459250613
H           33.29616166011949        7.57635825592615       -1.27433215873476
H           32.59667517123969        9.63386890159918       -0.22867891722845
H           30.59776404079017        7.41157718407775        2.05072955967407
H           30.55916435493467        4.93370610618984        1.89515765281407
H           34.48733113991393        4.33699880180902        0.77273597946240
H           36.35471973859978        2.40966721161223        0.48080930818604
C           18.10875232508111       -0.01391500307869       -0.14622584169904
C           19.33367730675603       -0.00787419572216       -0.16994919323170
C           20.67504781403246       -0.00136847601633       -0.18776199437474
C           21.90647291108581        0.00986058256709       -0.19613510884447
C           23.24309235105750        0.01904204322663       -0.19538193042010
C           24.47456244415279        0.02644445843011       -0.18567446135290
C           25.81593767881824        0.03052158602026       -0.16645655346020
C           27.04085787512058        0.02817952250727       -0.14244232792203
