318
 energy: -500.967930464697 gnorm: 2.456334068947 xtb: 6.5.1 (b24c23e)
Co          41.35078400000000       -0.02403400000000       -0.02112800000000
C           37.97691600000000        0.10848400000000        0.01815500000000
C           38.64563200000000        1.16112400000000        0.49676700000000
C           38.00231500000000        2.34265300000000        1.05955100000000
C           38.94932899999999        3.19511700000000        1.40467600000000
C           40.24977300000000        2.59782100000000        1.07429100000000
N           40.06520600000000        1.30362800000000        0.50186500000000
C           41.44353200000000        3.19535400000000        1.25660700000000
C           41.48908700000000        4.56324800000000        1.83616800000000
C           41.40535300000000        5.69648600000000        0.99296800000000
C           41.26755800000000        5.54603600000000       -0.50006500000000
C           41.44829399999999        6.98176200000000        1.55450700000000
C           41.56789000000000        7.15442100000000        2.93837600000000
C           41.65378900000000        8.53436200000000        3.52184900000000
C           41.67664400000000        6.03281100000000        3.76852100000000
C           41.62983600000000        4.73670700000000        3.23301900000000
C           41.74120000000000        3.55049000000000        4.15551600000000
C           42.73661500000000        2.55590600000000        0.90327900000000
C           44.02875200000000        3.24660500000000        0.97547000000000
C           44.96394999999999        2.38761900000000        0.62744600000000
N           42.87400600000000        1.32061100000000        0.52787700000000
C           44.27620100000000        1.13584700000000        0.33157400000000
C           44.87120100000000       -0.01788400000000       -0.01694200000000
C           44.11395400000000       -1.25984600000000       -0.30457400000000
C           44.67024099999999       -2.45871000000000       -0.42744800000000
C           43.62125900000000       -3.38777600000000       -0.79405900000000
C           42.48987799999999       -2.69742600000000       -0.87054100000000
N           42.71018000000000       -1.31900600000000       -0.56443100000000
C           41.18819400000000       -3.27704800000000       -1.29060000000000
C           41.17771600000000       -4.63915300000000       -1.88891800000000
C           41.41638500000000       -4.80684700000000       -3.27310400000000
C           41.68411199999999       -3.62178000000000       -4.16455500000000
C           41.41308999999999       -6.09677000000000       -3.82516900000000
C           41.17433900000000       -7.21787100000000       -3.02299300000000
C           41.14876600000000       -8.58389400000000       -3.64380400000000
C           40.92521900000000       -7.05026600000000       -1.65533600000000
C           40.93591799999999       -5.77221700000000       -1.07603200000000
C           40.67484000000000       -5.62854000000000        0.40132300000000
C           40.02652000000000       -2.61430800000000       -1.14710000000000
C           38.70652100000000       -3.10988400000000       -1.52990200000000
C           37.84538100000000       -2.18276900000000       -1.15879300000000
C           38.60754000000000       -1.09428100000000       -0.54829700000000
N           39.88081900000000       -1.33531200000000       -0.53522800000000
H           36.89374100000000        0.13384100000000        0.04048300000000
H           36.93922700000000        2.50863400000000        1.17746300000000
H           38.77148600000000        4.16642700000000        1.84795200000000
H           40.31593500000000        5.02664500000000       -0.73822000000000
H           42.11758900000000        4.95407700000000       -0.89962400000000
H           41.26303099999999        6.53036800000000       -1.01448700000000
H           41.38908200000000        7.85374600000000        0.91364200000000
H           41.22992899999999        8.55306800000000        4.54860900000000
H           42.71661000000000        8.85228300000000        3.56254200000000
H           41.08188700000000        9.25893700000000        2.90369800000000
H           41.79600700000000        6.17233500000000        4.83663200000000
H           42.65619500000000        2.97111800000000        3.91132000000000
H           41.80005900000000        3.86083400000000        5.22008200000000
H           40.85190300000000        2.89637700000000        4.03756700000000
H           44.20440300000000        4.27521600000000        1.26198900000000
H           46.02413100000000        2.59938900000000        0.58481000000000
H           45.71585000000000       -2.70586500000000       -0.30362300000000
H           43.74860100000000       -4.44393100000000       -0.99329000000000
H           40.84901300000000       -2.89383300000000       -4.08668700000000
H           41.77993700000000       -3.92125200000000       -5.22971500000000
H           42.62967500000000       -3.12845600000000       -3.85635800000000
H           41.59484900000000       -6.23321400000000       -4.88507000000000
H           42.04971500000000       -8.72793200000000       -4.27819600000000
H           41.13964600000000       -9.38205600000000       -2.87046200000000
H           40.24017000000000       -8.68683600000000       -4.27446600000000
H           40.72636100000000       -7.91914300000000       -1.03908900000000
H           39.72033699999999       -5.08555800000000        0.56176400000000
H           41.50240500000000       -5.06292500000000        0.87853800000000
H           40.60209400000000       -6.61590700000000        0.90477300000000
H           38.45868099999999       -4.04767400000000       -2.01005300000000
H           36.77216000000000       -2.23359200000000       -1.28699800000000
Co          98.01139199999999       -0.01054800000000       -0.01570500000000
C          101.38526000000000       -0.13336800000000       -0.07910500000000
C          100.71654399999998       -1.22429100000000       -0.46251800000000
C          101.35986100000000       -2.46649400000000       -0.87442700000000
C          100.41284800000000       -3.32055700000000       -1.21557400000000
C           99.11240399999998       -2.66082300000000       -1.04045100000000
N           99.29697000000000       -1.33064900000000       -0.55749900000000
C           97.91864399999999       -3.21821600000000       -1.32258200000000
C           97.87309000000000       -4.60651100000000       -1.85141200000000
C           97.95682300000000       -4.84046700000000       -3.24442200000000
C           98.09461799999998       -3.69823700000000       -4.21760900000000
C           97.91388200000000       -6.15667000000000       -3.72905700000000
C           97.79428600000000       -7.23934800000000       -2.85001700000000
C           97.70838799999999       -8.63904500000000       -3.38436300000000
C           97.68553199999999       -7.00474500000000       -1.47447700000000
C           97.73234099999999       -5.69875500000000       -0.96355800000000
C           97.62097600000000       -5.48147000000000        0.52335200000000
C           96.62556200000000       -2.51218200000000       -1.13483100000000
C           95.33342500000001       -3.06055900000000       -1.56092900000000
C           94.39822599999999       -2.19978200000000       -1.21735800000000
N           96.48817000000000       -1.36091200000000       -0.55048600000000
C           95.08597500000000       -1.09168500000000       -0.56421800000000
C           94.49097600000000       -0.01788400000000       -0.01694200000000
C           95.24822299999998        1.07743000000000        0.63535200000000
C           94.69193600000000        2.02758000000000        1.37669400000000
C           95.74091799999999        2.95179400000000        1.75537300000000
C           96.87229800000000        2.50659900000000        1.22223600000000
N           96.65199600000000        1.30002600000000        0.48880100000000
C           98.17398200000000        3.21566300000000        1.32041700000000
C           98.18446099999998        4.61276800000000        1.83170300000000
C           97.94579099999999        5.69208300000000        0.94899500000000
C           97.67806400000001        5.45413400000000       -0.51471500000000
C           97.94908700000001        7.00508000000000        1.44368400000000
C           98.18783700000000        7.25868000000000        2.79869000000000
C           98.21341099999999        8.67418400000000        3.29645800000000
C           98.43695800000000        6.19087200000000        3.66953100000000
C           98.42625800000000        4.86758500000000        3.20271900000000
C           98.68733599999999        3.74109700000000        4.16928200000000
C           99.33565699999998        2.63809200000000        0.96513000000000
C          100.65565499999998        3.26071600000000        1.03200800000000
C          101.51679500000000        2.33479700000000        0.65792600000000
C          100.75463599999999        1.12669800000000        0.34486000000000
N           99.48135700000000        1.29157400000000        0.52116300000000
H          102.46843499999999       -0.16712300000000       -0.08054800000000
H          102.42294899999999       -2.66789700000000       -0.90425600000000
H          100.59068999999998       -4.32833000000000       -1.56817800000000
H           99.04624099999999       -3.15857100000000       -4.02987000000000
H           97.24458700000000       -2.99446400000000       -4.09609500000000
H           98.09914499999999       -4.05236700000000       -5.27028900000000
H           97.97309499999999       -6.34219100000000       -4.79519300000000
H           98.13224700000001       -9.36339700000000       -2.65642100000000
H           96.64556600000000       -8.89662500000000       -3.57510500000000
H           98.28028999999998       -8.73392300000000       -4.33205400000000
H           97.56616900000000       -7.84490600000000       -0.80034100000000
H           96.70598099999999       -4.89434100000000        0.74825900000000
H           97.56211800000000       -6.44243700000000        1.07666500000000
H           98.51027300000000       -4.92781400000000        0.89110200000000
H           95.15777299999999       -4.00115300000000       -2.06631700000000
H           93.33804499999998       -2.32307400000000       -1.39473800000000
H           93.64632700000000        2.12019600000000        1.63715700000000
H           95.61357499999998        3.85183100000000        2.34281500000000
H           98.51316300000001        4.87495000000000       -0.96250400000000
H           97.58224000000000        6.40766800000000       -1.07598400000000
H           96.73250199999998        4.88478700000000       -0.63386600000000
H           97.76732800000001        7.83733400000000        0.77334100000000
H           97.31246099999998        9.21732600000000        2.93841300000000
H           98.22253100000000        8.71471800000000        4.40707900000000
H           99.12200700000000        9.18508900000000        2.91265200000000
H           98.63581499999999        6.39119500000000        4.71575200000000
H           99.64183900000000        3.23821200000000        3.90913300000000
H           97.85977199999999        3.00257000000000        4.12204200000000
H           98.76008200000000        4.10501300000000        5.21614500000000
H          100.90349500000001        4.26983100000000        1.33479700000000
H          102.59001700000000        2.46022900000000        0.60060200000000
C           47.18687400000000       -0.00319400000000       -0.00666600000000
C           48.64510099999999       -0.02503000000000       -0.02453900000000
C           49.77902900000000       -0.04578400000000       -0.02603000000000
C           51.14041000000000       -0.05837400000000       -0.02822100000000
C           52.41462899999999       -0.04806700000000       -0.03298600000000
C           53.60309200000000       -0.02926900000000       -0.03914200000000
C           54.95545199999999       -0.00448500000000       -0.02327400000000
C           56.05571999999999       -0.00319400000000       -0.00666600000000
C           65.18464700000000       -0.00319400000000       -0.00666600000000
C           66.64287299999999       -0.02503000000000       -0.02453900000000
C           67.77680099999999       -0.04578400000000       -0.02603000000000
C           69.13818300000000       -0.05837400000000       -0.02822100000000
C           70.41240200000000       -0.04806700000000       -0.03298600000000
C           71.60086399999999       -0.02926900000000       -0.03914200000000
C           72.95322500000000       -0.00448500000000       -0.02327400000000
C           74.05349300000000       -0.00319400000000       -0.00666600000000
C           83.18241999999999       -0.00319400000000       -0.00666600000000
C           84.64064600000000       -0.02503000000000       -0.02453900000000
C           85.77457399999999       -0.04578400000000       -0.02603000000000
C           87.13595599999999       -0.05837400000000       -0.02822100000000
C           88.41017499999998       -0.04806700000000       -0.03298600000000
C           89.59863699999998       -0.02926900000000       -0.03914200000000
C           90.95099800000000       -0.00448500000000       -0.02327400000000
C           92.05126500000000       -0.00319400000000       -0.00666600000000
Co          60.67421900000000       -0.03827000000000       -0.00682100000000
C           57.22835900000000        0.01865400000000        0.01827000000000
C           57.88688100000000        0.18046300000000        1.18102000000000
C           57.24510600000000        0.41474400000000        2.47695100000000
C           58.18517299999999        0.49014800000000        3.39644400000000
C           59.48472099999999        0.30967400000000        2.74362600000000
N           59.30635300000000        0.11671300000000        1.33887200000000
C           60.66973200000000        0.30284300000000        3.38652000000000
C           60.69398300000000        0.47478100000000        4.86318400000000
C           60.85055000000000        1.76405600000000        5.42444500000000
C           61.01148799999999        2.97942100000000        4.54793800000000
C           60.87988300000000        1.91278800000000        6.81945500000000
C           60.73194300000000        0.80357700000000        7.66072100000000
C           60.79523600000000        0.97111200000000        9.15079000000000
C           60.59387800000000       -0.47319900000000        7.10413600000000
C           60.57496100000000       -0.65100800000000        5.71233500000000
C           60.41021500000000       -2.03791200000000        5.14677700000000
C           61.97417500000000        0.13404200000000        2.69979500000000
C           63.25097099999999       -0.00904000000000        3.40886100000000
C           64.20605399999999       -0.08872600000000        2.50615800000000
N           62.13931700000000        0.14344300000000        1.41316500000000
C           63.54597700000000        0.00461900000000        1.20992800000000
C           64.16517899999999        0.01865400000000        0.01827000000000
C           63.42680100000000        0.11032500000000       -1.26203300000000
C           63.99476400000000        0.36400500000000       -2.43416100000000
C           62.96108100000000        0.26689400000000       -3.44449300000000
C           61.82826000000000       -0.03793400000000       -2.82322900000000
N           62.03082500000000       -0.15069700000000       -1.41454100000000
C           60.54961500000000       -0.32546900000000       -3.51720700000000
C           60.58180500000000       -0.57233300000000       -4.98397700000000
C           60.33457100000000        0.48638700000000       -5.89018500000000
C           60.03139200000000        1.87787700000000       -5.39720700000000
C           60.37288000000000        0.23887700000000       -7.27088700000000
C           60.64996800000000       -1.04268100000000       -7.76072100000000
C           60.73436200000000       -1.28303400000000       -9.23946600000000
C           60.91950700000000       -2.08286100000000       -6.86379300000000
C           60.87588000000000       -1.86500600000000       -5.47834300000000
C           61.17087100000000       -3.00804700000000       -4.54146600000000
C           59.37365199999999       -0.38560600000000       -2.86563300000000
C           58.08211000000000       -0.67859900000000       -3.47638500000000
C           57.19077299999999       -0.57833200000000       -2.51258200000000
C           57.90242300000000       -0.22492900000000       -1.27885600000000
N           59.17984299999999       -0.11164500000000       -1.47845500000000
H           56.18677000000000        0.50952800000000        2.67982900000000
H           58.00147900000000        0.65461500000000        4.45040500000000
H           61.96696600000000        2.91037000000000        3.98767800000000
H           61.02253500000000        3.91661800000000        5.14350300000000
H           60.16890500000000        3.04285000000000        3.82814300000000
H           61.01559799999999        2.89613900000000        7.25463000000000
H           61.84037599999999        0.82402200000000        9.49444300000000
H           60.13966599999999        0.22896100000000        9.65430900000000
H           60.45533700000000        1.98565300000000        9.44979300000000
H           60.50320200000000       -1.33123800000000        7.75996900000000
H           59.43441100000000       -2.11360700000000        4.62327800000000
H           61.22882400000000       -2.25517100000000        4.42918900000000
H           60.44024200000000       -2.81245100000000        5.94242900000000
H           63.40353799999999       -0.04182100000000        4.47975000000000
H           65.26175400000000       -0.19606400000000        2.71736700000000
H           65.03969499999999        0.57446600000000       -2.61799500000000
H           63.10131600000000        0.38465400000000       -4.51115300000000
H           59.08119400000000        1.87359000000000       -4.82337700000000
H           59.92614700000000        2.59847700000000       -6.23611400000000
H           60.85349800000000        2.23347600000000       -4.74098700000000
H           60.19075999999999        1.04677400000000       -7.97002000000000
H           60.42457199999999       -2.32126400000000       -9.48525600000000
H           61.77922300000000       -1.12659000000000       -9.58006000000000
H           60.06575299999999       -0.58712600000000       -9.79012400000000
H           61.16304100000000       -3.06644100000000       -7.24859200000000
H           61.25319400000000       -3.97352200000000       -5.08464700000000
H           60.35570400000000       -3.10832400000000       -3.79449400000000
H           62.12998000000000       -2.82005000000000       -4.01543200000000
H           57.87098700000000       -0.92298800000000       -4.50941900000000
H           56.12777300000000       -0.73471500000000       -2.63665700000000
Co          78.67199100000001       -0.03827000000000       -0.00682100000000
C           75.22613200000001        0.01865400000000        0.01827000000000
C           75.88465400000000        0.18046300000000        1.18102000000000
C           75.24287899999999        0.41474400000000        2.47695100000000
C           76.18294600000000        0.49014800000000        3.39644400000000
C           77.48249300000001        0.30967400000000        2.74362600000000
N           77.30412500000000        0.11671300000000        1.33887200000000
C           78.66750500000001        0.30284300000000        3.38652000000000
C           78.69175500000000        0.47478100000000        4.86318400000000
C           78.84832299999998        1.76405600000000        5.42444500000000
C           79.00926100000000        2.97942100000000        4.54793800000000
C           78.87765599999999        1.91278800000000        6.81945500000000
C           78.72971499999998        0.80357700000000        7.66072100000000
C           78.79300900000000        0.97111200000000        9.15079000000000
C           78.59165100000000       -0.47319900000000        7.10413600000000
C           78.57273300000000       -0.65100800000000        5.71233500000000
C           78.40798799999999       -2.03791200000000        5.14677700000000
C           79.97194700000000        0.13404200000000        2.69979500000000
C           81.24874400000000       -0.00904000000000        3.40886100000000
C           82.20382699999999       -0.08872600000000        2.50615800000000
N           80.13709000000000        0.14344300000000        1.41316500000000
C           81.54374999999999        0.00461900000000        1.20992800000000
C           82.16295200000000        0.01865400000000        0.01827000000000
C           81.42457400000001        0.11032500000000       -1.26203300000000
C           81.99253699999998        0.36400500000000       -2.43416100000000
C           80.95885399999999        0.26689400000000       -3.44449300000000
C           79.82603299999998       -0.03793400000000       -2.82322900000000
N           80.02859699999999       -0.15069700000000       -1.41454100000000
C           78.54738800000000       -0.32546900000000       -3.51720700000000
C           78.57957800000000       -0.57233300000000       -4.98397700000000
C           78.33234299999999        0.48638700000000       -5.89018500000000
C           78.02916499999999        1.87787700000000       -5.39720700000000
C           78.37065200000001        0.23887700000000       -7.27088700000000
C           78.64774099999998       -1.04268100000000       -7.76072100000000
C           78.73213500000000       -1.28303400000000       -9.23946600000000
C           78.91728000000001       -2.08286100000000       -6.86379300000000
C           78.87365300000000       -1.86500600000000       -5.47834300000000
C           79.16864400000000       -3.00804700000000       -4.54146600000000
C           77.37142400000000       -0.38560600000000       -2.86563300000000
C           76.07988299999998       -0.67859900000000       -3.47638500000000
C           75.18854600000000       -0.57833200000000       -2.51258200000000
C           75.90019599999998       -0.22492900000000       -1.27885600000000
N           77.17761600000000       -0.11164500000000       -1.47845500000000
H           74.18454199999998        0.50952800000000        2.67982900000000
H           75.99925200000000        0.65461500000000        4.45040500000000
H           79.96473800000000        2.91037000000000        3.98767800000000
H           79.02030800000000        3.91661800000000        5.14350300000000
H           78.16667800000000        3.04285000000000        3.82814300000000
H           79.01336999999999        2.89613900000000        7.25463000000000
H           79.83814800000000        0.82402200000000        9.49444300000000
H           78.13743800000000        0.22896100000000        9.65430900000000
H           78.45310999999998        1.98565300000000        9.44979300000000
H           78.50097499999998       -1.33123800000000        7.75996900000000
H           77.43218299999998       -2.11360700000000        4.62327800000000
H           79.22659600000000       -2.25517100000000        4.42918900000000
H           78.43801499999999       -2.81245100000000        5.94242900000000
H           81.40131100000001       -0.04182100000000        4.47975000000000
H           83.25952599999999       -0.19606400000000        2.71736700000000
H           83.03746799999999        0.57446600000000       -2.61799500000000
H           81.09908900000001        0.38465400000000       -4.51115300000000
H           77.07896599999998        1.87359000000000       -4.82337700000000
H           77.92392000000000        2.59847700000000       -6.23611400000000
H           78.85127099999998        2.23347600000000       -4.74098700000000
H           78.18853300000001        1.04677400000000       -7.97002000000000
H           78.42234499999999       -2.32126400000000       -9.48525600000000
H           79.77699499999999       -1.12659000000000       -9.58006000000000
H           78.06352600000000       -0.58712600000000       -9.79012400000000
H           79.16081299999999       -3.06644100000000       -7.24859200000000
H           79.25096700000000       -3.97352200000000       -5.08464700000000
H           78.35347699999998       -3.10832400000000       -3.79449400000000
H           80.12775299999998       -2.82005000000000       -4.01543200000000
H           75.86875900000000       -0.92298800000000       -4.50941900000000
H           74.12554500000000       -0.73471500000000       -2.63665700000000
318
 energy: -501.828401025092 gnorm: 0.852269128593 xtb: 6.5.1 (b24c23e)
Co          41.35392797599084       -0.02265189795047       -0.02083155101706
C           37.97757062754341        0.09906003588053        0.01362259033771
C           38.65144057616919        1.16221046556976        0.49725929031848
C           38.00146980387628        2.33897209585478        1.05794472997142
C           38.95466870121592        3.19644964071661        1.40502391525341
C           40.24850821067771        2.59216304913161        1.07217672628461
N           40.05854277937564        1.30849150857839        0.50471078807479
C           41.45324679550489        3.19420737101107        1.25518694325547
C           41.49062364361789        4.56616236894276        1.83709907241813
C           41.40550763193444        5.69716259459750        0.99513841260400
C           41.26762306188532        5.54564231703744       -0.50100803695464
C           41.44817461953063        6.97926506850728        1.55603929028474
C           41.56879844584505        7.15292500320994        2.93762164064427
C           41.65289523561433        8.53601211873603        3.52263597671155
C           41.67598019215713        6.03215549480085        3.76572722384966
C           41.62990783212995        4.73870337348621        3.23194364004708
C           41.74113088399194        3.54952254395268        4.15583669872551
C           42.73093440616799        2.56462042941967        0.90683946186356
C           44.02146333376286        3.25129315835558        0.97812823125465
C           44.96490344795924        2.38336207678115        0.62573269385684
N           42.87626522362347        1.31442515061257        0.52452946878095
C           44.28170489129498        1.13432927175940        0.33089066374937
C           44.87167809388439       -0.02588078485038       -0.01833567818582
C           44.11330413071684       -1.24649563804310       -0.30387800809813
C           44.67103103097091       -2.47248567371592       -0.43032476414934
C           43.63469494029751       -3.38916709280229       -0.79280784080306
C           42.47974869173824       -2.68833817926726       -0.87155321220390
N           42.71000220407336       -1.31960736587569       -0.56222887651277
C           41.19618535000895       -3.27399566774010       -1.28854997684949
C           41.17978543844495       -4.64129256808624       -1.88919749160194
C           41.41638204157348       -4.80862656549098       -3.27200607719994
C           41.68406644158316       -3.62076536962163       -4.16488427344216
C           41.41256317763800       -6.09596608493435       -3.82228389144704
C           41.17370663235075       -7.21655535030993       -3.02196477495713
C           41.14925954553684       -8.58569193709952       -3.64425525499766
C           40.92588672586290       -7.04771469438388       -1.65686049469244
C           40.93607625868589       -5.77251486048117       -1.07814744136877
C           40.67498617245264       -5.62814562892463        0.40231669450818
C           40.02601566183969       -2.61222686439475       -1.14642235952021
C           38.71162748274918       -3.11085970587044       -1.52977673414426
C           37.84096989930653       -2.17662483563336       -1.15587325484620
C           38.59758198946776       -1.08788174750571       -0.54546225304665
N           39.88603542794996       -1.33717657119396       -0.53759236493323
H           36.89395559697061        0.13255498730396        0.03968111773306
H           36.93931663834046        2.50624948310165        1.17641360414200
H           38.77457414272548        4.16652152070206        1.84791723255749
H           40.31915694266154        5.02761631415547       -0.73809344402578
H           42.11452590324782        4.95521117304499       -0.89888421817226
H           41.26301121151385        6.52723332583803       -1.01230546186924
H           41.38895442065145        7.85303172498105        0.91378075456842
H           41.23183611202312        8.55323684094571        4.54570384539238
H           42.71313659524416        8.85203624498478        3.56275595637714
H           41.08420870130947        9.25706685915064        2.90549060985586
H           41.79575046184040        6.17192421127522        4.83605349341869
H           42.65304296265224        2.97204624695047        3.91206813960412
H           41.79992976575863        3.86022683470085        5.21633188092619
H           40.85504955994513        2.89756161552447        4.03776082595973
H           44.20190056462833        4.27610551094203        1.26256488903673
H           46.02402045157782        2.59621989557020        0.58389649269522
H           45.71597469786197       -2.70705576641065       -0.30385103385615
H           43.74994946678502       -4.44383106659026       -0.99287086276500
H           40.85208160224081       -2.89531187555194       -4.08669912747128
H           41.77963402555115       -3.92069226937307       -5.22594228839927
H           42.62648709517423       -3.12911230671660       -3.85728293825031