      -----------------------------------------------------------      
     |                   =====================                   |     
     |                           x T B                           |     
     |                   =====================                   |     
     |                         S. Grimme                         |     
     |          Mulliken Center for Theoretical Chemistry        |     
     |                    University of Bonn                     |     
      -----------------------------------------------------------      

   * xtb version 6.5.1 (b24c23e) compiled by 'conda@728c89f4b128' on 2022-07-12

   xtb is free software: you can redistribute it and/or modify it under
   the terms of the GNU Lesser General Public License as published by
   the Free Software Foundation, either version 3 of the License, or
   (at your option) any later version.
   
   xtb is distributed in the hope that it will be useful,
   but WITHOUT ANY WARRANTY; without even the implied warranty of
   MERCHANTABILITY or FITNESS FOR A PARTICULAR PURPOSE.  See the
   GNU Lesser General Public License for more details.
   
   Cite this work as:
   * C. Bannwarth, E. Caldeweyher, S. Ehlert, A. Hansen, P. Pracht,
     J. Seibert, S. Spicher, S. Grimme, WIREs Comput. Mol. Sci., 2020, 11,
     e01493. DOI: 10.1002/wcms.1493
   
   for GFN2-xTB:
   * C. Bannwarth, S. Ehlert and S. Grimme., J. Chem. Theory Comput., 2019,
     15, 1652-1671. DOI: 10.1021/acs.jctc.8b01176
   for GFN1-xTB:
   * S. Grimme, C. Bannwarth, P. Shushkov, J. Chem. Theory Comput., 2017,
     13, 1989-2009. DOI: 10.1021/acs.jctc.7b00118
   for GFN0-xTB:
   * P. Pracht, E. Caldeweyher, S. Ehlert, S. Grimme, ChemRxiv, 2019, preprint.
     DOI: 10.26434/chemrxiv.8326202.v1
   for GFN-FF:
   * S. Spicher and S. Grimme, Angew. Chem. Int. Ed., 2020, 59, 15665-15673.
     DOI: 10.1002/anie.202004239
   
   for ALPB and GBSA implicit solvation:
   * S. Ehlert, M. Stahn, S. Spicher, S. Grimme, J. Chem. Theory Comput.,
     2021, 17, 4250-4261. DOI: 10.1021/acs.jctc.1c00471
   
   for DFT-D4:
   * E. Caldeweyher, C. Bannwarth and S. Grimme, J. Chem. Phys., 2017,
     147, 034112. DOI: 10.1063/1.4993215
   * E. Caldeweyher, S. Ehlert, A. Hansen, H. Neugebauer, S. Spicher,
     C. Bannwarth and S. Grimme, J. Chem. Phys., 2019, 150, 154122.
     DOI: 10.1063/1.5090222
   * E. Caldeweyher, J.-M. Mewes, S. Ehlert and S. Grimme, Phys. Chem. Chem. Phys.
     2020, 22, 8499-8512. DOI: 10.1039/D0CP00502A
   
   for sTDA-xTB:
   * S. Grimme and C. Bannwarth, J. Chem. Phys., 2016, 145, 054103.
     DOI: 10.1063/1.4959605
   
   in the mass-spec context:
   * V. Asgeirsson, C. Bauer and S. Grimme, Chem. Sci., 2017, 8, 4879.
     DOI: 10.1039/c7sc00601b
   * J. Koopman and S. Grimme, ACS Omega 2019, 4, 12, 15120-15133.
     DOI: 10.1021/acsomega.9b02011
   
   for metadynamics refer to:
   * S. Grimme, J. Chem. Theory Comput., 2019, 155, 2847-2862
     DOI: 10.1021/acs.jctc.9b00143
   
   for SPH calculations refer to:
   * S. Spicher and S. Grimme, J. Chem. Theory Comput., 2021, 17, 1701-1714
     DOI: 10.1021/acs.jctc.0c01306
   
   with help from (in alphabetical order)
   P. Atkinson, C. Bannwarth, F. Bohle, G. Brandenburg, E. Caldeweyher
   M. Checinski, S. Dohm, S. Ehlert, S. Ehrlich, I. Gerasimov, C. Hölzer
   A. Katbashev, J. Koopman, C. Lavigne, S. Lehtola, F. März, M. Müller,
   F. Musil, H. Neugebauer, J. Pisarek, C. Plett, P. Pracht, F. Pultar,
   J. Seibert, P. Shushkov, S. Spicher, M. Stahn, M. Steiner, T. Strunk,
   J. Stückrath, T. Rose, and J. Unsleber
   
 * started run on 2022/07/28 at 05:13:56.793     

           -------------------------------------------------
          |                Calculation Setup                |
           -------------------------------------------------

          program call               : xtb xtbopt.xyz --gfn 1 --vipea
          hostname                   : cx3-2-25.cx3.hpc.ic.ac.uk
          coordinate file            : xtbopt.xyz
          omp threads                :                     1

   ID    Z sym.   atoms
    1    6 C      1-5, 7-10, 12-30, 33-40, 70-74, 76-79, 81-99, 102-109,
                  139-146
    2    7 N      6, 11, 31, 32, 75, 80, 100, 101
    3    1 H      41-69, 110-138

           -------------------------------------------------
          |                 I P E A - x T B                 |
           -------------------------------------------------

        Reference                      10.1039/c7sc00601b
      * Hamiltonian:
        H0-scaling (s, p, d)           2.150000    2.300000    2.000000
        zeta-weighting                 0.000000
      * Dispersion:
        s8                             2.400000
        a1                             0.630000
        a2                             5.000000
        s9                             0.000000
      * Repulsion:
        kExp                           1.500000
        rExp                           1.000000
      * Coulomb:
        alpha                          1.000000
        third order                    atomic
        anisotropic                    false
      * Halogen bond correction:
        rad-scale                      1.300000
        damping                        0.440000


          ...................................................
          :                      SETUP                      :
          :.................................................:
          :  # basis functions                 556          :
          :  # atomic orbitals                 556          :
          :  # shells                          380          :
          :  # electrons                       418          :
          :  # halogen bonds                     0          :
          :  max. iterations                   250          :
          :  Hamiltonian                  GFN1-xTB          :
          :  restarted?                      false          :
          :  GBSA solvation                  false          :
          :  PC potential                    false          :
          :  electronic temp.          300.0000000     K    :
          :  accuracy                    1.0000000          :
          :  -> integral cutoff          0.2500000E+02      :
          :  -> integral neglect         0.1000000E-07      :
          :  -> SCF convergence          0.1000000E-05 Eh   :
          :  -> wf. convergence          0.2000000E-04 e    :
          :  Broyden damping             0.4000000          :
          ...................................................

 iter      E             dE          RMSdq      gap      omega  full diag
   1   -260.0663559 -0.260066E+03  0.977E+00    1.03       0.0  T
   2   -260.5025272 -0.436171E+00  0.615E+00    1.40       1.0  T
   3   -255.9022673  0.460026E+01  0.458E+00    0.91       1.0  T
   4   -260.9801209 -0.507785E+01  0.116E+00    1.39       1.0  T
   5   -261.4120513 -0.431930E+00  0.334E-01    1.33       1.0  T
   6   -261.4452016 -0.331503E-01  0.116E-01    1.33       1.0  T
   7   -261.4483401 -0.313855E-02  0.499E-02    1.33       1.0  T
   8   -261.4488367 -0.496626E-03  0.285E-02    1.32       1.0  T
   9   -261.4489292 -0.925054E-04  0.193E-02    1.33       1.0  T
  10   -261.4490015 -0.722811E-04  0.486E-03    1.33       1.7  T
  11   -261.4490067 -0.521275E-05  0.151E-03    1.33       5.5  T
  12   -261.4490074 -0.715396E-06  0.570E-04    1.33      14.5  T
  13   -261.4490075 -0.708127E-07  0.330E-04    1.33      25.1  T
  14   -261.4490075 -0.290916E-07  0.110E-04    1.33      75.2  T
  15   -261.4490075 -0.218370E-08  0.675E-05    1.33     122.6  T

   *** convergence criteria satisfied after 15 iterations ***

         #    Occupation            Energy/Eh            Energy/eV
      -------------------------------------------------------------
         1        2.0000           -1.0389886             -28.2723
       ...           ...                  ...                  ...
       203        2.0000           -0.4159442             -11.3184
       204        2.0000           -0.4054922             -11.0340
       205        2.0000           -0.3939719             -10.7205
       206        2.0000           -0.3868939             -10.5279
       207        2.0000           -0.3866939             -10.5225
       208        2.0000           -0.3743252             -10.1859
       209        2.0000           -0.3626774              -9.8690 (HOMO)
       210                         -0.3138758              -8.5410 (LUMO)
       211                         -0.3026044              -8.2343
       212                         -0.3007449              -8.1837
       213                         -0.2997476              -8.1565
       214                         -0.2653969              -7.2218
       ...                                ...                  ...
       556                        529.1270979           14398.2812
      -------------------------------------------------------------
                  HL-Gap            0.0488016 Eh            1.3280 eV
             Fermi-level           -0.3382766 Eh           -9.2050 eV

 SCC (total)                   0 d,  0 h,  0 min,  2.282 sec
 SCC setup                      ...        0 min,  0.003 sec (  0.140%)
 Dispersion                     ...        0 min,  0.004 sec (  0.192%)
 classical contributions        ...        0 min,  0.002 sec (  0.074%)
 integral evaluation            ...        0 min,  0.329 sec ( 14.419%)
 iterations                     ...        0 min,  1.205 sec ( 52.809%)
 molecular gradient             ...        0 min,  0.721 sec ( 31.591%)
 printout                       ...        0 min,  0.018 sec (  0.773%)

         :::::::::::::::::::::::::::::::::::::::::::::::::::::
         ::                     SUMMARY                     ::
         :::::::::::::::::::::::::::::::::::::::::::::::::::::
         :: total energy            -255.975445699668 Eh    ::
         :: gradient norm              0.058761101041 Eh/a0 ::
         :: HOMO-LUMO gap              1.327959076952 eV    ::
         ::.................................................::
         :: SCC energy              -261.449007547908 Eh    ::
         :: -> electrostatic           0.124132834253 Eh    ::
         :: repulsion energy           5.589588191274 Eh    ::
         :: dispersion energy         -0.116026343034 Eh    ::
         :: halogen bond corr.         0.000000000000 Eh    ::
         :: add. restraining           0.000000000000 Eh    ::
         :: total charge              -0.000000000000 e     ::
         :::::::::::::::::::::::::::::::::::::::::::::::::::::

           ------------------------------------------------- 
          |        vertical delta SCC IP calculation        |
           ------------------------------------------------- 
   1   -261.0439486 -0.261044E+03  0.150E-01    1.33       0.0  T
   2   -261.0497107 -0.576204E-02  0.945E-02    1.36       1.0  T
   3   -261.0518584 -0.214775E-02  0.756E-02    1.33       1.0  T
   4   -261.0527716 -0.913154E-03  0.340E-02    1.34       1.0  T
   5   -261.0527082  0.633156E-04  0.254E-02    1.34       1.0  T
   6   -261.0526901  0.181042E-04  0.177E-02    1.34       1.0  T
   7   -261.0527892 -0.990269E-04  0.116E-02    1.34       1.0  T
   8   -261.0528768 -0.876484E-04  0.285E-03    1.34       2.9  T
   9   -261.0528795 -0.268871E-05  0.129E-03    1.34       6.4  T
  10   -261.0528800 -0.456270E-06  0.398E-04    1.34      20.8  T
  11   -261.0528800 -0.609155E-07  0.146E-04    1.34      56.6  T
  12   -261.0528800 -0.552001E-08  0.773E-05    1.34     107.0  T
     SCC iter.                  ...        0 min,  0.961 sec
     gradient                   ...        0 min,  0.732 sec
------------------------------------------------------------------------
empirical IP shift (eV):    4.8455
delta SCC IP (eV):    5.9337
------------------------------------------------------------------------
           ------------------------------------------------- 
          |        vertical delta SCC EA calculation        |
           ------------------------------------------------- 
   1   -261.6988099 -0.261699E+03  0.269E-01    0.33       0.0  T
   2   -261.7204933 -0.216834E-01  0.174E-01    0.24       1.0  T
   3   -261.7262429 -0.574959E-02  0.131E-01    0.26       1.0  T
   4   -261.7286491 -0.240626E-02  0.697E-02    0.24       1.0  T
   5   -261.7285110  0.138148E-03  0.508E-02    0.23       1.0  T
   6   -261.7286514 -0.140362E-03  0.295E-02    0.23       1.0  T
   7   -261.7288701 -0.218782E-03  0.202E-02    0.23       1.0  T
   8   -261.7291843 -0.314157E-03  0.631E-03    0.23       1.3  T
   9   -261.7292017 -0.174398E-04  0.277E-03    0.23       3.0  T
  10   -261.7292045 -0.277029E-05  0.926E-04    0.23       8.9  T
  11   -261.7292047 -0.230188E-06  0.353E-04    0.23      23.4  T
  12   -261.7292048 -0.333151E-07  0.130E-04    0.23      63.5  T
  13   -261.7292048 -0.441946E-08  0.496E-05    0.23     166.7  T
     SCC iter.                  ...        0 min,  1.049 sec
     gradient                   ...        0 min,  0.729 sec
------------------------------------------------------------------------
empirical EA shift (eV):    4.8455
delta SCC EA (eV):    2.7791
------------------------------------------------------------------------
           -------------------------------------------------
          |                Property Printout                |
           -------------------------------------------------

    * Orbital Energies and Occupations

         #    Occupation            Energy/Eh            Energy/eV
      -------------------------------------------------------------
         1        2.0000           -0.9741382             -26.5076
       ...           ...                  ...                  ...
       198        2.0000           -0.3639345              -9.9032
       199        2.0000           -0.3637975              -9.8994
       200        2.0000           -0.3558042              -9.6819
       201        2.0000           -0.3551524              -9.6642
       202        2.0000           -0.3514907              -9.5645
       203        2.0000           -0.3514451              -9.5633
       204        2.0000           -0.3374622              -9.1828
       205        2.0000           -0.3225943              -8.7782
       206        2.0000           -0.3217065              -8.7541
       207        2.0000           -0.3216002              -8.7512
       208        2.0000           -0.3084968              -8.3946
       209        2.0000           -0.2958750              -8.0512
       210        0.9868           -0.2465367              -6.7086 (HOMO)
       211        0.0087           -0.2379440              -6.4748 (LUMO)
       212        0.0044           -0.2372786              -6.4567
       213        0.0001           -0.2339684              -6.3666
       214                         -0.2001943              -5.4476
       215                         -0.1920264              -5.2253
       216                         -0.1902180              -5.1761
       217                         -0.1816398              -4.9427
       218                         -0.1807884              -4.9195
       219                         -0.1740873              -4.7372
       220                         -0.1735661              -4.7230
       221                         -0.1676287              -4.5614
       ...                                ...                  ...
       556                        529.1912773           14400.0276
      -------------------------------------------------------------
                  HL-Gap            0.0085927 Eh            0.2338 eV
             Fermi-level           -0.2568227 Eh           -6.9885 eV

  Mulliken/CM5 charges         n(s)   n(p)   n(d)
     1C    -0.03673 -0.07755   1.078  2.958  0.000
     2C     0.05753  0.11796   1.104  2.838  0.000
     3C    -0.04461 -0.08990   1.076  2.968  0.000
     4C    -0.03926 -0.08418   1.074  2.966  0.000
     5C     0.05521  0.11910   1.095  2.850  0.000
     6N    -0.16463 -0.51758   1.312  3.853  0.000
     7C     0.00390  0.00959   1.090  2.906  0.000
     8C     0.05220  0.12015   1.113  2.835  0.000
     9C    -0.04300 -0.08898   1.083  2.960  0.000
    10C    -0.04394 -0.08937   1.088  2.956  0.000
    11N    -0.29142 -0.47804   1.293  3.999  0.000
    12C     0.06102  0.13194   1.129  2.810  0.000
    13C     0.00599  0.01319   1.077  2.917  0.000
    14C     0.06215  0.12712   1.108  2.830  0.000
    15C    -0.04149 -0.08592   1.075  2.966  0.000
    16C    -0.03990 -0.08487   1.071  2.969  0.000
    17C     0.05477  0.11803   1.094  2.852  0.000
    18C     0.00159  0.00733   1.088  2.910  0.000
    19C     0.00583 -0.00271   1.092  2.902  0.000
    20C    -0.02563 -0.07703   1.065  2.961  0.000
    21C    -0.00242 -0.02017   1.095  2.907  0.000
    22C    -0.06081 -0.20555   1.074  2.987  0.000
    23C    -0.03345 -0.08524   1.063  2.971  0.000
    24C    -0.00220 -0.01994   1.095  2.907  0.000
    25C    -0.06076 -0.20551   1.074  2.987  0.000
    26C    -0.02583 -0.07719   1.063  2.963  0.000
    27C     0.05410  0.12344   1.117  2.829  0.000
    28C    -0.04280 -0.08876   1.086  2.957  0.000
    29C    -0.04667 -0.09303   1.089  2.957  0.000
    30C     0.05448  0.12019   1.124  2.821  0.000
    31N    -0.29687 -0.48381   1.290  4.007  0.000
    32N    -0.16066 -0.51286   1.315  3.845  0.000
    33C     0.00609 -0.00246   1.092  2.902  0.000
    34C    -0.02468 -0.07607   1.065  2.960  0.000
    35C    -0.00171 -0.01947   1.096  2.906  0.000
    36C    -0.06051 -0.20525   1.074  2.987  0.000
    37C    -0.03315 -0.08495   1.063  2.970  0.000
    38C    -0.00259 -0.02033   1.095  2.908  0.000
    39C    -0.06105 -0.20578   1.074  2.987  0.000
    40C    -0.02640 -0.07772   1.062  2.964  0.000
    41H     0.01498  0.07398   0.985  0.000  0.000
    42H     0.02671  0.08338   0.973  0.000  0.000
    43H     0.01829  0.07696   0.982  0.000  0.000
    44H     0.15922  0.36753   0.841  0.000  0.000
    45H     0.01038  0.06916   0.990  0.000  0.000
    46H     0.01595  0.07400   0.984  0.000  0.000
    47H     0.02487  0.08297   0.975  0.000  0.000
    48H     0.01891  0.07774   0.981  0.000  0.000
    49H     0.02064  0.07930   0.979  0.000  0.000
    50H     0.02218  0.07409   0.978  0.000  0.000
    51H     0.01761  0.06998   0.982  0.000  0.000
    52H     0.01916  0.07163   0.981  0.000  0.000
    53H     0.02579  0.08326   0.974  0.000  0.000
    54H     0.02132  0.07377   0.979  0.000  0.000
    55H     0.01825  0.07065   0.982  0.000  0.000
    56H     0.02139  0.07330   0.979  0.000  0.000
    57H     0.02229  0.08100   0.978  0.000  0.000
    58H     0.00954  0.06818   0.990  0.000  0.000
    59H     0.01770  0.07411   0.982  0.000  0.000
    60H     0.15757  0.36584   0.842  0.000  0.000
    61H     0.02228  0.08096   0.978  0.000  0.000
    62H     0.02020  0.07253   0.980  0.000  0.000
    63H     0.01617  0.06865   0.984  0.000  0.000
    64H     0.02558  0.07752   0.974  0.000  0.000
    65H     0.02598  0.08343   0.974  0.000  0.000
    66H     0.01744  0.06981   0.983  0.000  0.000
    67H     0.02283  0.07474   0.977  0.000  0.000
    68H     0.01914  0.07160   0.981  0.000  0.000
    69H     0.02144  0.08007   0.979  0.000  0.000
    70C    -0.03671 -0.07753   1.078  2.958  0.000
    71C     0.05753  0.11795   1.104  2.838  0.000
    72C    -0.04461 -0.08990   1.076  2.968  0.000
    73C    -0.03926 -0.08420   1.074  2.966  0.000
    74C     0.05522  0.11910   1.095  2.850  0.000
    75N    -0.16463 -0.51758   1.312  3.853  0.000
    76C     0.00388  0.00957   1.090  2.906  0.000
    77C     0.05221  0.12016   1.113  2.835  0.000
    78C    -0.04299 -0.08898   1.083  2.960  0.000
    79C    -0.04393 -0.08937   1.088  2.956  0.000
    80N    -0.29142 -0.47804   1.293  3.999  0.000
    81C     0.06102  0.13194   1.129  2.810  0.000
    82C     0.00600  0.01320   1.077  2.917  0.000
    83C     0.06213  0.12711   1.108  2.830  0.000
    84C    -0.04150 -0.08592   1.075  2.966  0.000
    85C    -0.03990 -0.08488   1.071  2.969  0.000
    86C     0.05477  0.11802   1.094  2.852  0.000
    87C     0.00157  0.00732   1.088  2.910  0.000
    88C     0.00579 -0.00274   1.092  2.902  0.000
    89C    -0.02563 -0.07705   1.065  2.961  0.000
    90C    -0.00244 -0.02018   1.095  2.907  0.000
    91C    -0.06081 -0.20555   1.074  2.987  0.000
    92C    -0.03347 -0.08526   1.063  2.971  0.000
    93C    -0.00221 -0.01996   1.095  2.907  0.000
    94C    -0.06076 -0.20551   1.074  2.987  0.000
    95C    -0.02584 -0.07720   1.063  2.963  0.000
    96C     0.05411  0.12344   1.117  2.829  0.000
    97C    -0.04279 -0.08876   1.086  2.957  0.000
    98C    -0.04666 -0.09302   1.089  2.957  0.000
    99C     0.05448  0.12019   1.124  2.821  0.000
   100N    -0.29687 -0.48382   1.290  4.006  0.000
   101N    -0.16066 -0.51286   1.315  3.845  0.000
   102C     0.00606 -0.00249   1.092  2.902  0.000
   103C    -0.02466 -0.07607   1.065  2.960  0.000
   104C    -0.00172 -0.01947   1.096  2.906  0.000
   105C    -0.06050 -0.20525   1.074  2.987  0.000
   106C    -0.03315 -0.08496   1.063  2.970  0.000
   107C    -0.00261 -0.02035   1.095  2.908  0.000
   108C    -0.06105 -0.20578   1.074  2.987  0.000
   109C    -0.02642 -0.07774   1.062  2.964  0.000
   110H     0.01497  0.07397   0.985  0.000  0.000
   111H     0.02671  0.08338   0.973  0.000  0.000
   112H     0.01829  0.07698   0.982  0.000  0.000
   113H     0.15922  0.36754   0.841  0.000  0.000
   114H     0.01038  0.06917   0.990  0.000  0.000
   115H     0.01595  0.07401   0.984  0.000  0.000
   116H     0.02486  0.08297   0.975  0.000  0.000
   117H     0.01891  0.07775   0.981  0.000  0.000
   118H     0.02061  0.07929   0.979  0.000  0.000
   119H     0.02220  0.07411   0.978  0.000  0.000
   120H     0.01756  0.06993   0.982  0.000  0.000
   121H     0.01918  0.07164   0.981  0.000  0.000
   122H     0.02577  0.08324   0.974  0.000  0.000
   123H     0.02131  0.07376   0.979  0.000  0.000
   124H     0.01829  0.07068   0.982  0.000  0.000
   125H     0.02137  0.07328   0.979  0.000  0.000
   126H     0.02227  0.08099   0.978  0.000  0.000
   127H     0.00955  0.06820   0.990  0.000  0.000
   128H     0.01770  0.07412   0.982  0.000  0.000
   129H     0.15757  0.36585   0.842  0.000  0.000
   130H     0.02227  0.08097   0.978  0.000  0.000
   131H     0.02023  0.07255   0.980  0.000  0.000
   132H     0.01615  0.06864   0.984  0.000  0.000
   133H     0.02559  0.07754   0.974  0.000  0.000
   134H     0.02597  0.08342   0.974  0.000  0.000
   135H     0.01746  0.06983   0.983  0.000  0.000
   136H     0.02279  0.07471   0.977  0.000  0.000
   137H     0.01913  0.07159   0.981  0.000  0.000
   138H     0.02140  0.08004   0.979  0.000  0.000
   139C    -0.02622 -0.02785   1.091  2.936  0.000
   140C    -0.03222 -0.03298   1.059  2.974  0.000
   141C    -0.02742 -0.02752   1.076  2.951  0.000
   142C    -0.02949 -0.02950   1.076  2.954  0.000
   143C    -0.02947 -0.02948   1.076  2.954  0.000
   144C    -0.02743 -0.02752   1.076  2.951  0.000
   145C    -0.03221 -0.03297   1.059  2.974  0.000
   146C    -0.02622 -0.02785   1.091  2.936  0.000

Wiberg/Mayer (AO) data.
largest (>0.10) Wiberg bond orders for each atom

 ---------------------------------------------------------------------------
     #   Z sym  total        # sym  WBO       # sym  WBO       # sym  WBO
 ---------------------------------------------------------------------------
     1   6 C    3.775 --    30 C    1.379     2 C    1.362    41 H    0.997
     2   6 C    3.921 --     1 C    1.362     3 C    1.245     6 N    1.232
     3   6 C    3.818 --     4 C    1.582     2 C    1.245    42 H    0.995
     4   6 C    3.815 --     3 C    1.582     5 C    1.260    43 H    1.001
     5   6 C    3.883 --     7 C    1.337     4 C    1.260     6 N    1.218
     6   7 N    3.234 --     2 C    1.232     5 C    1.218    44 H    0.963
     7   6 C    3.834 --     8 C    1.373     5 C    1.337    33 C    1.049
     8   6 C    3.913 --     7 C    1.373    11 N    1.340     9 C    1.167
     9   6 C    3.833 --    10 C    1.681     8 C    1.167    45 H    1.000
    10   6 C    3.839 --     9 C    1.681    12 C    1.172    46 H    1.001
    11   7 N    2.543 --    12 C    1.423     8 C    1.340
    12   6 C    3.936 --    11 N    1.423    13 C    1.270    10 C    1.172
    13   6 C    3.797 --    12 C    1.270    14 C    1.264   139 C    1.243
    14   6 C    3.894 --    15 C    1.281    13 C    1.264    32 N    1.253
    15   6 C    3.812 --    16 C    1.558    14 C    1.281    47 H    1.000
    16   6 C    3.799 --    15 C    1.558    17 C    1.273    48 H    1.000
    17   6 C    3.877 --    18 C    1.327    16 C    1.273    32 N    1.216
    18   6 C    3.813 --    27 C    1.371    17 C    1.327    19 C    1.051
    19   6 C    3.908 --    26 C    1.425    20 C    1.424    18 C    1.051
    20   6 C    3.825 --    21 C    1.437    19 C    1.424    49 H    0.996
    21   6 C    3.922 --    20 C    1.437    23 C    1.430    22 C    1.009
    22   6 C    3.918 --    21 C    1.009    52 H    0.998    51 H    0.998
                            50 H    0.988
    23   6 C    3.832 --    24 C    1.431    21 C    1.430    53 H    0.995
    24   6 C    3.922 --    26 C    1.437    23 C    1.431    25 C    1.009
    25   6 C    3.918 --    24 C    1.009    55 H    0.998    54 H    0.997
                            56 H    0.988
    26   6 C    3.821 --    24 C    1.437    19 C    1.425    57 H    0.996
    27   6 C    3.937 --    18 C    1.371    31 N    1.364    28 C    1.155
    28   6 C    3.841 --    29 C    1.702    27 C    1.155    58 H    1.001
    29   6 C    3.853 --    28 C    1.702    30 C    1.148    59 H    0.995
    30   6 C    3.965 --    31 N    1.379     1 C    1.379    29 C    1.148
    31   7 N    2.519 --    30 C    1.379    27 C    1.364
    32   7 N    3.254 --    14 C    1.253    17 C    1.216    60 H    0.962
    33   6 C    3.908 --    34 C    1.430    40 C    1.423     7 C    1.049
    34   6 C    3.827 --    35 C    1.433    33 C    1.430    61 H    0.996
    35   6 C    3.923 --    37 C    1.434    34 C    1.433    36 C    1.009
    36   6 C    3.918 --    35 C    1.009    63 H    1.000    62 H    0.996
                            64 H    0.987
    37   6 C    3.834 --    35 C    1.434    38 C    1.427    65 H    0.995
    38   6 C    3.922 --    40 C    1.439    37 C    1.427    39 C    1.009
    39   6 C    3.919 --    38 C    1.009    66 H    0.998    68 H    0.998
                            67 H    0.988
    40   6 C    3.822 --    38 C    1.439    33 C    1.423    69 H    0.996
    41   1 H    1.037 --     1 C    0.997
    42   1 H    1.021 --     3 C    0.995
    43   1 H    1.037 --     4 C    1.001
    44   1 H    1.087 --     6 N    0.963
    45   1 H    1.039 --     9 C    1.000
    46   1 H    1.038 --    10 C    1.001
    47   1 H    1.034 --    15 C    1.000
    48   1 H    1.036 --    16 C    1.000
    49   1 H    1.046 --    20 C    0.996
    50   1 H    1.035 --    22 C    0.988
    51   1 H    1.037 --    22 C    0.998
    52   1 H    1.037 --    22 C    0.998
    53   1 H    1.020 --    23 C    0.995
    54   1 H    1.036 --    25 C    0.997
    55   1 H    1.036 --    25 C    0.998
    56   1 H    1.035 --    25 C    0.988
    57   1 H    1.043 --    26 C    0.996
    58   1 H    1.040 --    28 C    1.001
    59   1 H    1.024 --    29 C    0.995
    60   1 H    1.091 --    32 N    0.962
    61   1 H    1.046 --    34 C    0.996
    62   1 H    1.037 --    36 C    0.996
    63   1 H    1.037 --    36 C    1.000
    64   1 H    1.034 --    36 C    0.987
    65   1 H    1.021 --    37 C    0.995
    66   1 H    1.037 --    39 C    0.998
    67   1 H    1.034 --    39 C    0.988
    68   1 H    1.036 --    39 C    0.998
    69   1 H    1.042 --    40 C    0.996
    70   6 C    3.775 --    99 C    1.379    71 C    1.362   110 H    0.997
    71   6 C    3.921 --    70 C    1.362    72 C    1.245    75 N    1.232
    72   6 C    3.818 --    73 C    1.582    71 C    1.245   111 H    0.995
    73   6 C    3.815 --    72 C    1.582    74 C    1.261   112 H    1.001
    74   6 C    3.883 --    76 C    1.337    73 C    1.261    75 N    1.218
    75   7 N    3.234 --    71 C    1.232    74 C    1.218   113 H    0.963
    76   6 C    3.834 --    77 C    1.373    74 C    1.337   102 C    1.049
    77   6 C    3.913 --    76 C    1.373    80 N    1.340    78 C    1.167
    78   6 C    3.832 --    79 C    1.681    77 C    1.167   114 H    1.000
    79   6 C    3.839 --    78 C    1.681    81 C    1.172   115 H    1.001
    80   7 N    2.543 --    81 C    1.422    77 C    1.340
    81   6 C    3.936 --    80 N    1.422    82 C    1.270    79 C    1.172
    82   6 C    3.797 --    81 C    1.270    83 C    1.264   146 C    1.243
    83   6 C    3.893 --    84 C    1.281    82 C    1.264   101 N    1.253
    84   6 C    3.812 --    85 C    1.558    83 C    1.281   116 H    1.000
    85   6 C    3.798 --    84 C    1.558    86 C    1.273   117 H    1.000
    86   6 C    3.877 --    87 C    1.327    85 C    1.273   101 N    1.216
    87   6 C    3.813 --    96 C    1.371    86 C    1.327    88 C    1.052
    88   6 C    3.907 --    95 C    1.425    89 C    1.424    87 C    1.052
    89   6 C    3.825 --    90 C    1.437    88 C    1.424   118 H    0.996
    90   6 C    3.922 --    89 C    1.437    92 C    1.430    91 C    1.009
    91   6 C    3.918 --    90 C    1.009   121 H    0.998   120 H    0.998
                           119 H    0.988
    92   6 C    3.832 --    93 C    1.430    90 C    1.430   122 H    0.995
    93   6 C    3.922 --    95 C    1.437    92 C    1.430    94 C    1.009
    94   6 C    3.918 --    93 C    1.009   124 H    0.998   123 H    0.997
                           125 H    0.988
    95   6 C    3.821 --    93 C    1.437    88 C    1.425   126 H    0.996
    96   6 C    3.937 --    87 C    1.371   100 N    1.364    97 C    1.155
    97   6 C    3.841 --    98 C    1.702    96 C    1.155   127 H    1.001
    98   6 C    3.853 --    97 C    1.702    99 C    1.148   128 H    0.995
    99   6 C    3.965 --   100 N    1.379    70 C    1.379    98 C    1.148
   100   7 N    2.519 --    99 C    1.379    96 C    1.364
   101   7 N    3.254 --    83 C    1.253    86 C    1.216   129 H    0.962
   102   6 C    3.908 --   103 C    1.430   109 C    1.423    76 C    1.049
   103   6 C    3.827 --   104 C    1.433   102 C    1.430   130 H    0.996
   104   6 C    3.923 --   106 C    1.434   103 C    1.433   105 C    1.009
   105   6 C    3.918 --   104 C    1.009   132 H    1.000   131 H    0.996
                           133 H    0.987
   106   6 C    3.834 --   104 C    1.434   107 C    1.427   134 H    0.995
   107   6 C    3.922 --   109 C    1.439   106 C    1.427   108 C    1.009
   108   6 C    3.919 --   107 C    1.009   135 H    0.998   137 H    0.998
                           136 H    0.988
   109   6 C    3.822 --   107 C    1.439   102 C    1.423   138 H    0.996
   110   1 H    1.037 --    70 C    0.997
   111   1 H    1.021 --    72 C    0.995
   112   1 H    1.037 --    73 C    1.001
   113   1 H    1.087 --    75 N    0.963
   114   1 H    1.039 --    78 C    1.000
   115   1 H    1.038 --    79 C    1.001
   116   1 H    1.034 --    84 C    1.000
   117   1 H    1.036 --    85 C    1.000
   118   1 H    1.046 --    89 C    0.996
   119   1 H    1.035 --    91 C    0.988
   120   1 H    1.037 --    91 C    0.998
   121   1 H    1.037 --    91 C    0.998
   122   1 H    1.020 --    92 C    0.995
   123   1 H    1.036 --    94 C    0.997
   124   1 H    1.036 --    94 C    0.998
   125   1 H    1.035 --    94 C    0.988
   126   1 H    1.043 --    95 C    0.996
   127   1 H    1.040 --    97 C    1.001
   128   1 H    1.024 --    98 C    0.995
   129   1 H    1.091 --   101 N    0.962
   130   1 H    1.046 --   103 C    0.996
   131   1 H    1.037 --   105 C    0.996
   132   1 H    1.037 --   105 C    1.000
   133   1 H    1.034 --   105 C    0.987
   134   1 H    1.021 --   106 C    0.995
   135   1 H    1.037 --   108 C    0.998
   136   1 H    1.034 --   108 C    0.988
   137   1 H    1.036 --   108 C    0.998
   138   1 H    1.042 --   109 C    0.996
   139   6 C    3.747 --   140 C    2.432    13 C    1.243   142 C    0.159
   140   6 C    3.792 --   139 C    2.432   141 C    1.383
   141   6 C    3.795 --   142 C    2.315   140 C    1.383   144 C    0.153
   142   6 C    3.827 --   141 C    2.315   143 C    1.410   139 C    0.159
   143   6 C    3.827 --   144 C    2.315   142 C    1.410   146 C    0.159
   144   6 C    3.795 --   143 C    2.315   145 C    1.383   141 C    0.153
   145   6 C    3.792 --   146 C    2.432   144 C    1.383
   146   6 C    3.747 --   145 C    2.432    82 C    1.243   143 C    0.159
 ---------------------------------------------------------------------------

Topologies differ in total number of bonds
Writing topology from bond orders to xtbtopo.mol

 dipole moment from electron density (au)
     X       Y       Z   
 -40.9990   0.0545  -0.1900  total (Debye):  104.210


           -------------------------------------------------
          | TOTAL ENERGY             -256.255642926258 Eh   |
          | GRADIENT NORM               0.078384983199 Eh/α |
          | HOMO-LUMO GAP               0.233820252535 eV   |
           -------------------------------------------------
########################################################################
[WARNING] Runtime exception occurred
-1- restart_readRestart: Dimension missmatch in restart file.
########################################################################

------------------------------------------------------------------------
 * finished run on 2022/07/28 at 05:14:03.906     
------------------------------------------------------------------------
 total:
 * wall-time:     0 d,  0 h,  0 min,  7.113 sec
 *  cpu-time:     0 d,  0 h,  0 min,  6.778 sec
 * ratio c/w:     0.953 speedup
 SCF:
 * wall-time:     0 d,  0 h,  0 min,  6.483 sec
 *  cpu-time:     0 d,  0 h,  0 min,  6.448 sec
 * ratio c/w:     0.994 speedup

