576
 energy: -1109.079872123576 gnorm: 0.000441695908 xtb: 6.5.1 (b24c23e)
C          132.70881618938080       -0.16786069711673        0.13344771194244
C          133.29538146559506       -1.08510986001096       -0.72863399679164
C          132.62020038666395       -2.00630656508684       -1.57785963525427
C          133.56439755379046       -2.72037699475677       -2.25991479625972
C          134.84785788768923       -2.26830775283301       -1.83891365249652
N          134.63403251946389       -1.27631628764326       -0.92405265961901
C          136.10045440128550       -2.71734830959888       -2.27182920402397
C          136.10705409980693       -3.81650461917199       -3.26950515100744
C          136.68736781106384       -3.61089951252632       -4.52426105189267
C          136.68617153964493       -4.63597824757216       -5.46187287753186
O          137.22896865672152       -4.50533443331820       -6.71339229944581
C          136.11489798418609       -5.86807058241366       -5.15412836870424
O          136.10253737749227       -6.89613014982492       -6.05972646642070
C          135.53826320980653       -6.07575104317207       -3.90002910889708
O          134.98771724614423       -7.27928216548279       -3.60862679885597
C          135.53172341345504       -5.04971563514452       -2.96218949093977
C          137.32744265054683       -2.20999134035792       -1.83596462408383
C          138.61412863807692       -2.74297916710673       -2.24476759087579
C          139.55128453167168       -2.00293737384422       -1.61653810105154
N          137.50571098991128       -1.17839930283536       -0.96524050861148
C          138.83784153862493       -1.02540795018325       -0.81852892314787
C          139.49567479658876       -0.05419643698068       -0.03715978534554
C          138.87974774246521        0.92566988474647        0.76421094663899
C          139.54148071276154        1.92661791063353        1.52337568947621
C          138.59068036752026        2.66634277182387        2.16976538263052
C          137.31651431380570        2.12800073785689        1.83881816242080
N          137.54275733481731        1.08634500176272        0.97767754675882
C          136.06580476049254        2.56880922339856        2.28523775322555
C          136.05644742865766        3.70491536126394        3.23939059771727
C          136.70720957900127        3.59718703995983        4.46905250565827
C          136.69299450087200        4.66242895108074        5.36178211824240
O          137.31704047393083        4.56551328805596        6.56133367215715
C          136.03192205407387        5.84438278019507        5.02398283932455
O          136.03750633397652        6.87870947108430        5.92259871294168
C          135.38485715605589        5.95314191638320        3.79562117463187
O          134.76178963349273        7.14481824060955        3.53296371434505
C          135.39208063644654        4.88809409945922        2.90376577162203
C          134.83989646600182        2.01359622688563        1.90264352637906
C          133.55086617280816        2.43009142032225        2.43294773227538
C          132.62218480460149        1.66153435417681        1.82885027111312
C          133.34302366480571        0.76983048060820        0.93794685789292
N          134.67595159544399        1.00421872262425        1.01491159098470
H          131.62445528971952       -0.19126567586853        0.17441194494107
H          131.54819084435940       -2.09521990538917       -1.65341399465912
H          133.39271255627423       -3.48959575712873       -2.99515870872951
H          135.37234986176617       -0.75777875067732       -0.46014021280974
H          137.12078191406667       -2.65010136398787       -4.77593483903003
H          137.59594374440570       -3.62028001394192       -6.83785550471610
H          136.53883529982130       -6.58685613359080       -6.86950520199711
H          135.09315778874219       -7.85862605424136       -4.38130439421833
H          135.09685265275670       -5.22831738664985       -1.98725562169373
H          138.76056662608102       -3.57940516107276       -2.90894303492214
H          140.62411347128372       -2.09242317094604       -1.67326087573884
H          140.61000835592347        2.05982332737673        1.56418967931372
H          138.75538139034910        3.51355333585363        2.81512362465578
H          136.81021869014535        0.51832869317092        0.56485533169131
H          137.20697910546343        2.67924724246891        4.75038631860290
H          137.18667167107262        5.40035148338993        7.04073838233001
H          135.53303617113463        7.61249088952018        5.53666851629022
H          134.33504626535148        7.12612554041996        2.66632458675446
H          134.89958974595140        4.98568371036722        1.94342548272974
H          133.40212000867214        3.19561185907085        3.17751663925277
H          131.55134346414459        1.66757787103458        1.95968817667343
C          226.75318958895767        0.04544100357803        0.43503609511286
C          226.13482523171672        0.98317025910267        1.25169043051261
C          226.77845565054213        1.94047934395746        2.08536997767007
C          225.80977182489994        2.66652023791711        2.71885663313124
C          224.54223655598460        2.16803341469220        2.30206976954255
N          224.78970036331080        1.16264421416270        1.41053549469766
C          223.27432257882950        2.60944174449040        2.69659505229461
C          223.22928255469643        3.70255012322033        3.69939143069813
C          222.60917662103611        4.91383892981326        3.38038256592523
C          222.57170575879636        5.93824573277670        4.31800721242430
O          221.98853108573388        7.15413834549951        4.07465970103696
C          223.14408582623074        5.76057749163649        5.57506038870543
O          223.11799819658964        6.75386728793190        6.51869526426027
C          223.76086516233781        4.55026121890912        5.89595296419223
O          224.31180112578443        4.38564790400425        7.12343170569468
C          223.80585843849400        3.52577877224939        4.95759331403551
C          222.06479649238403        2.09357895121917        2.22295883142449
C          220.76158048262212        2.50844766786406        2.70968478205142
C          219.85038379435716        1.78405276961539        2.02734512480798
N          221.92262177357165        1.12526834377018        1.27685441176283
C          220.59677403442424        0.92399747422066        1.12992219558014
C          219.97222132875788        0.01385453440528        0.25462350038357
C          220.61630616495518       -0.89292205697275       -0.60655021164290
C          219.98336008463446       -1.76161995912845       -1.53501022717115
C          220.95733902846419       -2.46013543490295       -2.19266494841448
C          222.21738599062954       -2.04637386270542       -1.67818513717140
N          221.95936060237887       -1.09300074608889       -0.72855478554195
C          223.48460334315033       -2.49226824102269       -2.06909117645699
C          223.53343576695212       -3.54623430645902       -3.11191935968513
C          222.92429197543751       -4.78270782854748       -2.89562206691881
C          222.97487935027434       -5.76648390780429       -3.87641165002754
O          222.39307030600341       -6.97326893581904       -3.67250216831780
C          223.62927419584989       -5.51286278965845       -5.08306997184722
O          223.65928792452081       -6.49970470113333       -6.03300900347453
C          224.23410559355622       -4.27743923915760       -5.30038602568719
O          224.85289721127720       -4.10022028516523       -6.51012776676506
C          224.19201678484797       -3.29507470865730       -4.31915111643997
C          224.69367148644207       -2.01365561148804       -1.55236279211961
C          226.00194670042103       -2.54010182766150       -1.90945303660534
C          226.90570338895108       -1.82904866872278       -1.20533744569878
C          226.15076815300563       -0.87439202979922       -0.41337107366762
N          224.82240516252946       -1.02082395621104       -0.64053538380833
H          227.83809739419854        0.03970575656960        0.46795746795083
H          227.84721821178493        2.05290102724769        2.17460168594053
H          225.95473140336912        3.48100340304140        3.40982068097648
H          224.06883254323131        0.62914902182689        0.93619733361315
H          222.17433728189960        5.06436984318202        2.39925852132915
H          221.61506030636400        7.18398979551737        3.18404555029945
H          222.65399851942109        7.51603373961535        6.13710227205879
H          224.17550794372045        5.20268952808036        7.63096676370781
H          224.27094260093912        2.58550419895952        5.22436815977038
H          220.58804956918800        3.23963313528696        3.48265890743032
H          218.77609508263086        1.80146095993315        2.11796527104488
H          218.91787639040282       -1.82806930914568       -1.68415699807534
H          220.81827180479266       -3.19026040330593       -2.97304368871231
H          222.67606847713435       -0.60202348034687       -0.20424956929654
H          222.42912237864161       -4.99752160036669       -1.95743206124234
H          222.53737256022447       -7.51967259275448       -4.46267211585086
H          224.14988241381195       -6.16214604892883       -6.79928438482454
H          225.24550585736864       -3.21940334667643       -6.56942417594319
H          224.65197984103915       -2.33088900981276       -4.50126735987282
H          226.17945768812740       -3.35458965302458       -2.59333550452750
H          227.98035922037235       -1.92355680754654       -1.19562406378844
C          140.90534346145895       -0.04990885562793       -0.05094906949057
C          142.12266899195743       -0.04358462295562       -0.05072618135368
C          151.80999764825015       -0.03586218357589        0.01272523144083
C          153.02806994371673       -0.02339745357911        0.01458391423032
C          162.72548999412967        0.03900330688626        0.00689516178875
C          163.94416049864762        0.04608108693725        0.01054086662419
C          173.65013315817640        0.07279935899790        0.03833363709182
C          174.86910417647152        0.07881654986289        0.04162148034122
C          184.58070339665363        0.08258549320078        0.05978308059777
C          185.79969601715729        0.08293786707414        0.06662940958100
C          195.50859910340006        0.02314365629411        0.05569860700233
C          196.72765538798058        0.02199351374864        0.05042949368048
C          206.43692661511963       -0.00026541795089        0.11183654056268
C          207.65576157352078       -0.00244966615393        0.12244255478523
C          217.34539482194606       -0.00533752705842        0.20500036965916
C          218.56189657823481        0.00428013431324        0.22677848807114
C          143.53139539498699       -0.04495222582181       -0.04459051724445
C          144.16073658591137       -1.27255449990077       -0.32639655831734
C          143.52041006682737       -2.51765039252633       -0.55231321905175
C          144.48855787378275       -3.44928746881260       -0.81215592911653
C          145.74997070562131       -2.79705912291482       -0.75935560353980
N          145.50204502570742       -1.48701495984608       -0.44707875247464
C          147.01007609077317       -3.36675278848261       -0.98427947456342
C          147.02968048356297       -4.79469149089656       -1.38530597255783
C          147.70866147217868       -5.73219375126290       -0.60547614652746
C          147.73602265702533       -7.07729576881309       -0.96247471123200
O          148.38573248212015       -7.99977248426858       -0.20627373657062
C          147.08280890116697       -7.49978577586068       -2.12507792164530
O          147.09688106993605       -8.80380384773317       -2.50375146142475
C          146.40834815201254       -6.55491901416709       -2.90295976841795
O          145.79416912556604       -7.03354889729177       -4.03174249104601
C          146.37100693958973       -5.21512967660861       -2.54269645133710
C          148.23237510525792       -2.70297647663062       -0.86143161183806
C          149.51172233629114       -3.29611267997556       -1.20556620178401
C          150.45023612902665       -2.36593225465363       -0.93154255831291
N          148.41417618542295       -1.42954521894360       -0.41381535263121
C          149.74432818111313       -1.20719622408556       -0.42398194909520
C          150.40285345276439       -0.03849206081785        0.01006638907313
C          149.77084158302262        1.14111478590080        0.44961289770582
C          150.40842846451787        2.30027005363135        0.96096755015722
C          149.44027855855288        3.22484133175423        1.24351753762170
C          148.18145190123542        2.65841235652486        0.90532602374170
N          148.43088340664411        1.39190613283754        0.44731423523065
C          146.92315209467907        3.26417469463387        1.00982207947307
C          146.90421423825248        4.67707483699351        1.46304198029916
C          147.58245398808290        5.65831192321803        0.73889517754873
C          147.56162079193069        6.98058125669121        1.16669295496927
O          148.21130223650775        7.94208467439211        0.46621596375970
C          146.86768666414540        7.32509888862849        2.32775618500195
O          146.86893115308402        8.63531302279858        2.72807637200158
C          146.19318811371542        6.34537431661067        3.05226248500513
O          145.53886266607128        6.75889829574243        4.18254671133733
C          146.20576229419731        5.02434597293192        2.62306883149479
C          145.70193459628504        2.64889622521715        0.72564905722587
C          144.42515648049189        3.33920132735962        0.74692429983452
C          143.48663983693211        2.41572243267668        0.45120423860409
C          144.19007434550142        1.16589186677551        0.24695568407397
N          145.51973848651789        1.34088043025559        0.39569251029393
H          142.45575737071906       -2.67810040804311       -0.50693443683486
H          144.34234545030361       -4.49862539853191       -1.00977186092462
H          146.21901335348497       -0.78213127510401       -0.31197675556374
H          148.20736847435111       -5.41745458199493        0.30427618932851
H          148.79372356429113       -7.59173702805146        0.56870765291784
H          146.59013605753498       -8.88664652481353       -3.32763831784740
H          145.35474803882897       -6.32091790072424       -4.51345108781023
H          145.85483033441005       -4.50025057914837       -3.17277066430472
H          149.65107848348282       -4.28154865663520       -1.61974846435144
H          151.51774818329093       -2.43019038990930       -1.06717907911286
H          151.47137187043481        2.40364880383006        1.10461398090443
H          149.58422709563800        4.20862161573207        1.65921657921154
H          147.71567768608807        0.73478759287222        0.15446653812033
H          148.10956271578934        5.40633451396827       -0.17226449341980
H          148.07498076029239        8.79219318870794        0.91618597057031
H          146.34138542315841        8.70010247758750        3.54013153546973
H          145.09393221545159        6.01739362644066        4.61368615429159
H          145.69086927101367        4.26484801780919        3.19951618882817
H          144.28756731227512        4.39067262241436        0.94079787781056
H          142.42099303323650        2.54887013988294        0.35742910606088
C          154.43493309380787       -0.01563420798552        0.01274130771452
C          155.07354801384730       -1.27119627543503       -0.01379840324140
C          154.44519636652015       -2.54120835889612        0.03467047977389
C          155.41971522517605       -3.49794520630537       -0.05801807820991
C          156.67256138198954       -2.83765692588745       -0.17289280447455
N          156.41429504937472       -1.49375788446660       -0.12076932645606
C          157.93326954807330       -3.42977540994511       -0.32582173503621
C          157.95882523843406       -4.90693618586430       -0.45406074725018
C          158.67926267674963       -5.67691911317935        0.46045845447632
C          158.71011518131931       -7.06499991605353        0.36216957917791
O          159.39902107108489       -7.82470646370098        1.25291272106690
C          158.01879536857447       -7.70264226509143       -0.67334962593015
O          158.03409383936983       -9.05436035530160       -0.79939417799179
C          157.30392285433271       -6.92493555334536       -1.58852245746221
O          156.65455448884057       -7.61148154233299       -2.58159902466025
C          157.26276628161793       -5.54157547788835       -1.48523287246531
C          159.15050552693077       -2.74659900614346       -0.36432863674712
C          160.42550588849377       -3.38351810122374       -0.63797733075108
C          161.36255057483518       -2.41623863823416       -0.54917729726790
N          159.33221747457810       -1.41415795976502       -0.14715229773453
C          160.66021135513043       -1.19195966030756       -0.22495042872518
C          161.31876909971388        0.03421202341704        0.00494416202051
C          160.67924807957894        1.26831276767725        0.23709445073332
C          161.30646297203441        2.50376037121443        0.53790960109999
C          160.33186985754804        3.45930987750931        0.63724164730141
C          159.07912267272005        2.83435052416668        0.39398213830145
N          159.33800062668942        1.50679426913104        0.17883883425791
C          157.81872910923428        3.44575672068527        0.36435127408723
C          157.79666432479289        4.92086446284802        0.52285565059438
C          158.49028127228948        5.73455164066969       -0.37403663503298
C          158.46604584598032        7.11621150203558       -0.22541013550127
O          159.13031430135763        7.91476861867780       -1.09587150812831
C          157.75341269925536        7.68985997811711        0.82896471345846
O          157.75187289068040        9.05394396144306        0.95364469358239
C          157.06400215763625        6.87784061621024        1.72622546094766
O          156.39227232896400        7.51255513415667        2.73765136157899
C          157.07974831785575        5.49704522848264        1.57563207495176
C          156.60003234934368        2.78450391379789        0.19948244598233
C          155.32272519326446        3.46202541865516        0.07015002447074
C          154.38555463654737        2.49576750846912       -0.02687106931498
C          155.09069376522768        1.23211423164479        0.03743768894633
N          156.41941712378329        1.43563385089875        0.14847151963313
H          153.38431517758249       -2.69815523968490        0.14011078156111
H          155.28321858321235       -4.56679316028707       -0.03570101397547
H          157.12375040860206       -0.76927104031373       -0.15045898293707
H          159.20751244716362       -5.19363660280847        1.27461750091994
H          159.83227101641270       -7.27513022684505        1.91908808518114
H          157.49661182281898       -9.29406112063271       -1.57157881191451
H          156.18598049649694       -7.00634703847961       -3.17094059243316
H          156.71422096810886       -4.96103552806056       -2.21771639725919
H          160.56279572807276       -4.42383688731352       -0.88483819032755
H          162.42630146765106       -2.49741060930258       -0.70267356327189
H          162.36713286776060        2.63757403153162        0.67171483920239
H          160.46778784818881        4.50290741009876        0.86918334705981
H          158.62899150215799        0.80292677271296        0.00310922791944
H          159.03200397177343        5.30246784806356       -1.20555421696043
H          158.98721142265271        8.83896150115190       -0.83291608612935
H          157.20652083930088        9.28349167766176        1.72292567983751
H          155.93291217613086        6.87437342320649        3.29910358309878
H          156.55299980955084        4.87085663739119        2.28607816865145
H          155.18367693315841        4.53050918471701        0.03707134253424
H          153.32012175385401        2.60463728162319       -0.14961485576004
C          165.35068012549158        0.04769218035923        0.01407510922769
C          165.98749450270952       -1.20697462314661        0.09912240660157
C          165.36010183785510       -2.46782750565102        0.25941783161463
C          166.33341008610489       -3.43014694093746        0.23444029043974
C          167.58488832039691       -2.78306449022274        0.05138948173895
N          167.32738162270161       -1.43893694568890       -0.00066140402305
C          168.84233293807904       -3.38848994181135       -0.07763544827403
C          168.86197523139057       -4.87063433001952       -0.11060686154409
C          169.60376756085617       -5.58385770478773        0.83261197155631
C          169.63009251700123       -6.97543523267479        0.82142964968024
O          170.33981306650514       -7.67964400213862        1.74092980646174
C          168.91225666965818       -7.67518415325274       -0.15425643047435
O          168.92277104064419       -9.03206611923025       -0.19518253430711
C          168.17566645169029       -6.95455796144382       -1.09850710080657
O          167.50056513913600       -7.70036176896447       -2.02973244099134
C          168.13931782280622       -5.56741772316493       -1.08186622503517
C          170.06108399048762       -2.71370882054261       -0.17594423495996
C          171.33046408445921       -3.37020914900118       -0.42857203130294
C          172.27251692052644       -2.40394846688265       -0.40067274356841
N          170.25053124423769       -1.37217516153759       -0.03472887547311
C          171.57893908758896       -1.16109804435360       -0.13476537176610
C          172.24367111632191        0.07185904929945        0.03457011859445
C          171.60555622766762        1.31743655534725        0.20246199737797
C          172.23154231856441        2.56505175091961        0.44944573031883
C          171.25846599111114        3.52694085406879        0.48239593348731
C          170.00811077806657        2.89342126137155        0.24968894107792
N          170.26603102731127        1.55556618046149        0.11138065220298
C          168.75137684338850        3.50629111505434        0.15433954398742
C          168.73253649482976        4.98809896902941        0.22144081671449
C          169.46097143324349        5.74433562484703       -0.69799902333585
C          169.44043685748423        7.13244276877380       -0.63233741476499
O          170.13932382727344        7.87494464431400       -1.52495683628618
C          168.69573074816498        7.77085989848357        0.36091299223188
O          168.69860377483903        9.13987151282202        0.40449981386358
C          167.97086317043610        7.01649592568345        1.28026107381292
O          167.26850091337354        7.71289808194407        2.22839172176877
C          167.98352681190136        5.62922136011170        1.21270278188320
C          167.53309603413439        2.84049684468177        0.00444118540348
C          166.26423013171853        3.51299458578525       -0.20714497281662
C          165.32202899892593        2.54750638775181       -0.24766333976516
C          166.01524305829466        1.28918027575456       -0.06544666648153
N          167.34329199219681        1.49266977695985        0.05370526701972
H          164.30083122053551       -2.61492542020525        0.39028580848489
H          166.19690216333419       -4.49331644715240        0.34647347716838
H          168.03601356494923       -0.71935196562046       -0.09575599859619
H          170.15267462546808       -5.05205150622611        1.60158864424939
H          170.79114893692744       -7.09068452833724        2.35973350925835
H          168.36566039586620       -9.31862769901242       -0.93689248012100
H          167.01780050035146       -7.13215036204247       -2.64385888351582
H          167.57379308964670       -5.03273186497770       -1.83602396088374
H          171.46094432438809       -4.42265832448128       -0.62192087776101
H          173.33419407789046       -2.49809948396078       -0.56060702438750
H          173.29012348646930        2.70316333689979        0.59444304961704
H          171.39430336753921        4.58071908582600        0.66243490851853
H          169.55826230543954        0.84444952026615       -0.03801620793361
H          170.02760830511826        5.26156824159260       -1.48375840454808
H          169.99401090270825        8.81376992097140       -1.32188638069582
H          168.12909022311732        9.41707918297338        1.13981872758360
H          166.78699911572443        7.11076735795320        2.81072665517554
H          167.42934100998613        5.04867338604822        1.94081762508326
H          166.13436991330050        4.57610821475545       -0.32952112470415
H          164.26068583011403        2.65242427944558       -0.40357821848771
C          176.27543104219410        0.07784763689061        0.04253524323514
C          176.91151716144418       -1.17688440527004        0.13635532912093
C          176.28511941060103       -2.43647279973531        0.30863413361358
C          177.25749918525037       -3.39964847799705        0.27757099584512
C          178.50746418503613       -2.75422153945581        0.07938816373799
N          178.25038575998224       -1.41008113344895        0.02588552360732
C          179.76242359179400       -3.36168066388960       -0.06384400471323
C          179.77863878871935       -4.84361412184686       -0.10224078942478
C          180.53059051286331       -5.56170123470783        0.82914587348980
C          180.55528085042479       -6.95320767189382        0.81160302002608
O          181.27525826048395       -7.66202567800484        1.71949675761128
C          179.82522698501865       -7.64789273486037       -0.15861634401570
O          179.83397444704059       -9.00456472692285       -0.20581685831156
C          179.07823803868848       -6.92238063272107       -1.09090029086671
O          178.39158103558989       -7.66339013664329       -2.01752050890697
C          179.04356405002125       -5.53532271986032       -1.06779098591975
C          180.98200840311475       -2.68975213665262       -0.17093600453040
C          182.24749646951034       -3.34836712763044       -0.43733557104055
C          183.19319356320676       -2.38567527863647       -0.40639916823304
N          181.17679780253695       -1.34999697753112       -0.02120705589454
C          182.50544945704942       -1.14286617598016       -0.12617495611096
C          183.17446012482480        0.08645619570665        0.05284401468560
C          182.53849386751830        1.33222448832733        0.22693081544005
C          183.16475804813700        2.57802122042772        0.48168855878248
C          182.19260699694064        3.54102769452059        0.51246531518567
C          180.94272222508883        2.90984895505685        0.27087612498308
N          181.19964756625612        1.57218547829605        0.13043058437616
C          179.68771244684166        3.52494807586285        0.16671603795147
C          179.67182379442173        5.00684050894310        0.23156722110570
C          180.40857046821733        5.76048061844671       -0.68334409589550
C          180.39039720771549        7.14869260135359       -0.61932610988163
O          181.09702366393739        7.88877094435250       -1.50784554077731
C          179.64010681343834        7.78971764586628        0.36803177256450
O          179.64551584471354        9.15876919255757        0.41026146794579
C          178.90729586795047        7.03788096326857        1.28312713492469
O          178.20002023102285        7.73663217385001        2.22588719744835
C          178.91722514322547        5.65056297583066        1.21686813687395
C          178.46849763935879        2.86210364528889        0.01151198978220
C          177.20326170859508        3.53770484677636       -0.21147286068394
C          176.25734045371604        2.57560003241269       -0.24743563379212
C          176.94450750040883        1.31627538590560       -0.05100407846634
N          178.27303685064942        1.51539118851408        0.07037043685237
H          175.22724124611614       -2.58235962961772        0.45102137954899
H          177.12148528897208       -4.46229787669725        0.39503346897841
H          178.95783098783340       -0.69066354145652       -0.07870871755636
H          181.08916022175464       -5.03373795838191        1.59379032288176
H          181.73513759635230       -7.07600537517653        2.33480138534841
H          179.26773895195117       -9.28720895908266       -0.94209442894657
H          177.90239503232479       -7.09188010896381       -2.62344861516326
H          178.46981414337483       -4.99667626560128       -1.81286356804390
H          182.37307541099219       -4.39947236283349       -0.64094843366763
H          184.25351783341796       -2.48202699348025       -0.57386885043333
H          184.22278463480723        2.71425019739824        0.63254224077266
H          182.32863702649493        4.59406393035788        0.69668883006522
H          180.49251489380464        0.86164186802031       -0.02446567891581