      -----------------------------------------------------------      
     |                   =====================                   |     
     |                           x T B                           |     
     |                   =====================                   |     
     |                         S. Grimme                         |     
     |          Mulliken Center for Theoretical Chemistry        |     
     |                    University of Bonn                     |     
      -----------------------------------------------------------      

   * xtb version 6.5.1 (b24c23e) compiled by 'conda@728c89f4b128' on 2022-07-12

   xtb is free software: you can redistribute it and/or modify it under
   the terms of the GNU Lesser General Public License as published by
   the Free Software Foundation, either version 3 of the License, or
   (at your option) any later version.
   
   xtb is distributed in the hope that it will be useful,
   but WITHOUT ANY WARRANTY; without even the implied warranty of
   MERCHANTABILITY or FITNESS FOR A PARTICULAR PURPOSE.  See the
   GNU Lesser General Public License for more details.
   
   Cite this work as:
   * C. Bannwarth, E. Caldeweyher, S. Ehlert, A. Hansen, P. Pracht,
     J. Seibert, S. Spicher, S. Grimme, WIREs Comput. Mol. Sci., 2020, 11,
     e01493. DOI: 10.1002/wcms.1493
   
   for GFN2-xTB:
   * C. Bannwarth, S. Ehlert and S. Grimme., J. Chem. Theory Comput., 2019,
     15, 1652-1671. DOI: 10.1021/acs.jctc.8b01176
   for GFN1-xTB:
   * S. Grimme, C. Bannwarth, P. Shushkov, J. Chem. Theory Comput., 2017,
     13, 1989-2009. DOI: 10.1021/acs.jctc.7b00118
   for GFN0-xTB:
   * P. Pracht, E. Caldeweyher, S. Ehlert, S. Grimme, ChemRxiv, 2019, preprint.
     DOI: 10.26434/chemrxiv.8326202.v1
   for GFN-FF:
   * S. Spicher and S. Grimme, Angew. Chem. Int. Ed., 2020, 59, 15665-15673.
     DOI: 10.1002/anie.202004239
   
   for ALPB and GBSA implicit solvation:
   * S. Ehlert, M. Stahn, S. Spicher, S. Grimme, J. Chem. Theory Comput.,
     2021, 17, 4250-4261. DOI: 10.1021/acs.jctc.1c00471
   
   for DFT-D4:
   * E. Caldeweyher, C. Bannwarth and S. Grimme, J. Chem. Phys., 2017,
     147, 034112. DOI: 10.1063/1.4993215
   * E. Caldeweyher, S. Ehlert, A. Hansen, H. Neugebauer, S. Spicher,
     C. Bannwarth and S. Grimme, J. Chem. Phys., 2019, 150, 154122.
     DOI: 10.1063/1.5090222
   * E. Caldeweyher, J.-M. Mewes, S. Ehlert and S. Grimme, Phys. Chem. Chem. Phys.
     2020, 22, 8499-8512. DOI: 10.1039/D0CP00502A
   
   for sTDA-xTB:
   * S. Grimme and C. Bannwarth, J. Chem. Phys., 2016, 145, 054103.
     DOI: 10.1063/1.4959605
   
   in the mass-spec context:
   * V. Asgeirsson, C. Bauer and S. Grimme, Chem. Sci., 2017, 8, 4879.
     DOI: 10.1039/c7sc00601b
   * J. Koopman and S. Grimme, ACS Omega 2019, 4, 12, 15120-15133.
     DOI: 10.1021/acsomega.9b02011
   
   for metadynamics refer to:
   * S. Grimme, J. Chem. Theory Comput., 2019, 155, 2847-2862
     DOI: 10.1021/acs.jctc.9b00143
   
   for SPH calculations refer to:
   * S. Spicher and S. Grimme, J. Chem. Theory Comput., 2021, 17, 1701-1714
     DOI: 10.1021/acs.jctc.0c01306
   
   with help from (in alphabetical order)
   P. Atkinson, C. Bannwarth, F. Bohle, G. Brandenburg, E. Caldeweyher
   M. Checinski, S. Dohm, S. Ehlert, S. Ehrlich, I. Gerasimov, C. Hölzer
   A. Katbashev, J. Koopman, C. Lavigne, S. Lehtola, F. März, M. Müller,
   F. Musil, H. Neugebauer, J. Pisarek, C. Plett, P. Pracht, F. Pultar,
   J. Seibert, P. Shushkov, S. Spicher, M. Stahn, M. Steiner, T. Strunk,
   J. Stückrath, T. Rose, and J. Unsleber
   
 * started run on 2022/07/30 at 16:37:43.331     

           -------------------------------------------------
          |                Calculation Setup                |
           -------------------------------------------------

          program call               : xtb Zn_PhCN_C8_4.xyz --gfn 1 --opt -T 48
          hostname                   : cx3-15-13.cx3.hpc.ic.ac.uk
          coordinate file            : Zn_PhCN_C8_4.xyz
          omp threads                :                     1

   ID    Z sym.   atoms
    1   30 Zn     1, 59, 141, 198
    2    6 C      2-6, 8-13, 15-19, 21-26, 28-33, 35-40, 60-64, 66-71, 73-77,
                  79-84, 86-91, 93-98, 117-140, 142-146, 148-153, 155-159,
                  161-166, 168-173, 175-180, 199-203, 205-210, 212-216,
                  218-223, 225-230, 232-237
    3    7 N      7, 14, 20, 27, 34, 41, 65, 72, 78, 85, 92, 99, 147, 154,
                  160, 167, 174, 181, 204, 211, 217, 224, 231, 238
    4    1 H      42-58, 100-116, 182-197, 239-254

molecular fragmentation (1/2 indicates fragments):
111111111111111111111111111111111111111111111111111111111122222222222222
222222222222222222222222222222222222222222222222222222222222222222222222
222222222222222222222222222222222222222222222222222222222222222222222222
22222222222222222222222222222222222222
# atoms in fragment 1/2:    58   196
 fragment masses (1/2) :      574.92     2011.00
CMA distance (Bohr)    :  69.872
constraining FC (au)   :  0.0500
########################################################################
[WARNING] Please study the warnings concerning your input carefully
-1- prog_main_parseArguments: Unknown option '-T' provided
########################################################################

           -------------------------------------------------
          |                 G F N 1 - x T B                 |
           -------------------------------------------------

        Reference                      10.1021/acs.jctc.7b00118
      * Hamiltonian:
        H0-scaling (s, p, d)           1.850000    2.250000    2.000000
        zeta-weighting                 0.000000
      * Dispersion:
        s8                             2.400000
        a1                             0.630000
        a2                             5.000000
        s9                             0.000000
      * Repulsion:
        kExp                           1.500000
        rExp                           1.000000
      * Coulomb:
        alpha                          2.000000
        third order                    atomic
        anisotropic                    false
      * Halogen bond correction:
        rad-scale                      1.300000
        damping                        0.440000


          ...................................................
          :                      SETUP                      :
          :.................................................:
          :  # basis functions                 884          :
          :  # atomic orbitals                 884          :
          :  # shells                          508          :
          :  # electrons                       834          :
          :  # halogen bonds                     0          :
          :  max. iterations                   250          :
          :  Hamiltonian                  GFN1-xTB          :
          :  restarted?                      false          :
          :  GBSA solvation                  false          :
          :  PC potential                    false          :
          :  electronic temp.          300.0000000     K    :
          :  accuracy                    1.0000000          :
          :  -> integral cutoff          0.2500000E+02      :
          :  -> integral neglect         0.1000000E-07      :
          :  -> SCF convergence          0.1000000E-05 Eh   :
          :  -> wf. convergence          0.2000000E-04 e    :
          :  Broyden damping             0.4000000          :
          ...................................................

 iter      E             dE          RMSdq      gap      omega  full diag
   1   -459.7511101 -0.459751E+03  0.107E+01    0.04       0.0  T
   2   -458.5385915  0.121252E+01  0.658E+00    0.08       1.0  T
   3   -367.3347612  0.912038E+02  0.655E+00    0.09       1.0  T
   4    -19.2721813  0.348063E+03  0.964E+00    0.11       1.0  T
   5   -335.7908698 -0.316519E+03  0.563E+00    0.05       1.0  T
   6   -443.2290589 -0.107438E+03  0.316E+00    0.04       1.0  T
   7   -455.2452672 -0.120162E+02  0.203E+00    0.06       1.0  T
   8   -459.4335412 -0.418827E+01  0.128E+00    0.20       1.0  T
   9   -459.5086640 -0.751227E-01  0.112E+00    0.08       1.0  T
  10   -459.7571990 -0.248535E+00  0.674E-01    0.10       1.0  T
  11   -459.8740840 -0.116885E+00  0.720E-01    0.26       1.0  T
  12   -460.0523423 -0.178258E+00  0.424E-01    0.17       1.0  T
  13   -460.1449710 -0.926287E-01  0.312E-01    0.25       1.0  T
  14   -460.2048179 -0.598469E-01  0.158E-01    0.10       1.0  T
  15   -460.1751739  0.296440E-01  0.244E-01    0.02       1.0  T
  16   -460.2129995 -0.378256E-01  0.124E-01    0.07       1.0  T
  17   -460.2211558 -0.815627E-02  0.102E-01    0.09       1.0  T
  18   -460.2220844 -0.928636E-03  0.911E-02    0.07       1.0  T
  19   -460.2257090 -0.362456E-02  0.749E-02    0.09       1.0  T
  20   -460.1957516  0.299573E-01  0.158E-01    0.04       1.0  T
  21   -460.2276219 -0.318703E-01  0.563E-02    0.07       1.0  T
  22   -460.2285969 -0.974992E-03  0.409E-02    0.07       1.0  T
  23   -460.2285228  0.741004E-04  0.355E-02    0.06       1.0  T
  24   -460.2290257 -0.502866E-03  0.270E-02    0.07       1.0  T
  25   -460.2294416 -0.415898E-03  0.150E-02    0.07       1.0  T
  26   -460.2296426 -0.201010E-03  0.476E-03    0.08       1.3  T
  27   -460.2296569 -0.143229E-04  0.399E-03    0.08       1.6  T
  28   -460.2296622 -0.530155E-05  0.288E-03    0.08       2.2  T
  29   -460.2296576  0.460245E-05  0.295E-03    0.07       2.1  T
  30   -460.2296643 -0.675510E-05  0.219E-03    0.07       2.9  T
  31   -460.2296654 -0.102703E-05  0.207E-03    0.08       3.0  T
  32   -460.2296680 -0.262022E-05  0.103E-03    0.08       6.1  T
  33   -460.2296686 -0.608325E-06  0.331E-04    0.08      18.9  T
  34   -460.2296688 -0.209579E-06  0.254E-04    0.08      24.7  T
  35   -460.2296688 -0.688311E-08  0.172E-04    0.08      36.6  T
  36   -460.2296688 -0.200731E-07  0.145E-04    0.08      43.2  T

   *** convergence criteria satisfied after 36 iterations ***

         #    Occupation            Energy/Eh            Energy/eV
      -------------------------------------------------------------
         1        2.0000           -0.7775404             -21.1580
       ...           ...                  ...                  ...
       411        2.0000           -0.3943057             -10.7296
       412        2.0000           -0.3921180             -10.6701
       413        2.0000           -0.3889230             -10.5831
       414        2.0000           -0.3877908             -10.5523
       415        2.0000           -0.3838273             -10.4445
       416        1.9998           -0.3805648             -10.3557
       417        1.5323           -0.3726747             -10.1410 (HOMO)
       418        0.3025           -0.3699084             -10.0657 (LUMO)
       419        0.1652           -0.3692599             -10.0481
       420        0.0001           -0.3624397              -9.8625
       421                         -0.3536455              -9.6232
       422                         -0.3410387              -9.2801
       ...                                ...                  ...
       884                          2.3302853              63.4103
      -------------------------------------------------------------
                  HL-Gap            0.0027662 Eh            0.0753 eV
             Fermi-level           -0.3715472 Eh          -10.1103 eV

 SCC (total)                   0 d,  0 h,  0 min,  9.931 sec
 SCC setup                      ...        0 min,  0.017 sec (  0.173%)
 Dispersion                     ...        0 min,  0.010 sec (  0.100%)
 classical contributions        ...        0 min,  0.003 sec (  0.027%)
 integral evaluation            ...        0 min,  0.280 sec (  2.818%)
 iterations                     ...        0 min,  9.011 sec ( 90.738%)
 molecular gradient             ...        0 min,  0.547 sec (  5.511%)
 printout                       ...        0 min,  0.063 sec (  0.632%)

         :::::::::::::::::::::::::::::::::::::::::::::::::::::
         ::                     SUMMARY                     ::
         :::::::::::::::::::::::::::::::::::::::::::::::::::::
         :: total energy            -451.461455803980 Eh    ::
         :: gradient norm              1.612016295144 Eh/a0 ::
         :: HOMO-LUMO gap              0.075273004695 eV    ::
         ::.................................................::
         :: SCC energy              -460.229668838804 Eh    ::
         :: -> electrostatic           0.396989789789 Eh    ::
         :: repulsion energy           8.995975447767 Eh    ::
         :: dispersion energy         -0.227762412942 Eh    ::
         :: halogen bond corr.         0.000000000000 Eh    ::
         :: add. restraining           0.000000000000 Eh    ::
         :: total charge              -0.000000000000 e     ::
         :::::::::::::::::::::::::::::::::::::::::::::::::::::

      ----------------------------------------------------------- 
     |                   =====================                   |
     |                        A N C O P T                        |
     |                   =====================                   |
     |               Approximate Normal Coordinate               |
     |                Rational Function Optimizer                |
      ----------------------------------------------------------- 

          ...................................................
          :                      SETUP                      :
          :.................................................:
          :   optimization level            normal          :
          :   max. optcycles                   762          :
          :   ANC micro-cycles                  20          :
          :   degrees of freedom               756          :
          :.................................................:
          :   RF solver                   davidson          :
          :   write xtbopt.log                true          :
          :   linear?                        false          :
          :   energy convergence         0.5000000E-05 Eh   :
          :   grad. convergence          0.1000000E-02 Eh/α :
          :   maximium RF displ.         1.0000000          :
          :   Hlow (freq-cutoff)         0.1000000E-01      :
          :   Hmax (freq-cutoff)         5.0000000          :
          :   S6 in model hess.         20.0000000          :
          ...................................................

generating ANC from model Hessian ...
Using Lindh-Hessian (1995)
 Shifting diagonal of input Hessian by    1.0028096227798086E-002
 Lowest  eigenvalues of input Hessian
    0.010000    0.010002    0.010006    0.010011    0.010014    0.010015
    0.010018    0.010019    0.010022    0.010023    0.010025    0.000000
    0.000000    0.000000    0.000000    0.000000    0.000000    0.010031
 Highest eigenvalues
    3.027487    3.074174    3.109709    3.246582    3.417167    3.417528


........................................................................
.............................. CYCLE    1 ..............................
........................................................................
   1   -460.2296689 -0.460230E+03  0.935E-05    0.08       0.0  T
   2   -460.2296650  0.389205E-05  0.160E-03    0.08       3.9  T
   3   -460.2296686 -0.368118E-05  0.408E-04    0.08      15.4  T
   4   -460.2296688 -0.155130E-06  0.197E-04    0.08      31.9  T
   5   -460.2296689 -0.574894E-07  0.758E-05    0.08      82.8  T
     SCC iter.                  ...        0 min,  1.246 sec
     gradient                   ...        0 min,  0.545 sec
 * total energy  :  -451.4614558 Eh     change       -0.1479685E-07 Eh
   gradient norm :     1.6120185 Eh/α   predicted     0.0000000E+00 (-100.00%)
   displ. norm   :     0.5115065 α      lambda       -0.7734884E+00
   maximum displ.:     0.2267487 α      in ANC's #751, #753, #752, ...

........................................................................
.............................. CYCLE    2 ..............................
........................................................................
   1   -460.1952630 -0.460195E+03  0.203E-01    0.19       0.0  T
   2   -459.5334720  0.661791E+00  0.724E-01    0.27       1.0  T
   3   -459.7921501 -0.258678E+00  0.578E-01    0.11       1.0  T
   4   -460.1671812 -0.375031E+00  0.215E-01    0.36       1.0  T
   5   -460.1940266 -0.268454E-01  0.165E-01    0.10       1.0  T
   6   -460.1955012 -0.147459E-02  0.121E-01    0.09       1.0  T
   7   -460.1759399  0.195612E-01  0.161E-01    0.05       1.0  T
   8   -460.2046585 -0.287186E-01  0.750E-02    0.11       1.0  T
   9   -460.2074455 -0.278699E-02  0.592E-02    0.11       1.0  T
  10   -460.2080842 -0.638691E-03  0.560E-02    0.11       1.0  T
  11   -460.2106230 -0.253888E-02  0.362E-02    0.11       1.0  T
  12   -460.0858064  0.124817E+00  0.280E-01    0.01       1.0  T
  13   -460.2097320 -0.123926E+00  0.371E-02    0.15       1.0  T
  14   -460.2097003  0.316587E-04  0.363E-02    0.13       1.0  T
  15   -460.2092355  0.464814E-03  0.392E-02    0.13       1.0  T
  16   -460.2092110  0.244890E-04  0.388E-02    0.13       1.0  T
  17   -460.2096687 -0.457725E-03  0.345E-02    0.13       1.0  T
  18   -460.2103628 -0.694120E-03  0.270E-02    0.12       1.0  T
  19   -460.2108709 -0.508079E-03  0.200E-02    0.12       1.0  T
  20   -460.2113456 -0.474699E-03  0.967E-03    0.12       1.0  T
  21   -460.2113359  0.970632E-05  0.988E-03    0.12       1.0  T
  22   -460.2114749 -0.138978E-03  0.279E-03    0.12       2.3  T
  23   -460.2114812 -0.627094E-05  0.183E-03    0.12       3.4  T
  24   -460.2114862 -0.501812E-05  0.431E-04    0.12      14.6  T
  25   -460.2114865 -0.283028E-06  0.968E-05    0.12      64.8  T
  26   -460.2114865 -0.117049E-07  0.369E-05    0.12     169.9  T
     SCC iter.                  ...        0 min,  6.391 sec
     gradient                   ...        0 min,  0.545 sec
 * total energy  :  -451.9853969 Eh     change       -0.5239411E+00 Eh
   gradient norm :     0.6758824 Eh/α   predicted    -0.4879333E+00 (  -6.87%)
   displ. norm   :     0.5131523 α      lambda       -0.2949341E+00
   maximum displ.:     0.1275644 α      in ANC's #751, #753, #752, ...

........................................................................
.............................. CYCLE    3 ..............................
........................................................................
   1   -460.3837589 -0.460384E+03  0.142E-01    0.26       0.0  T
   2   -460.3633733  0.203856E-01  0.176E-01    0.08       1.0  T
   3   -460.3846246 -0.212512E-01  0.932E-02    0.33       1.0  T
   4   -460.3907130 -0.608849E-02  0.455E-02    0.18       1.0  T
   5   -460.3908428 -0.129735E-03  0.326E-02    0.23       1.0  T
   6   -460.3881519  0.269091E-02  0.566E-02    0.13       1.0  T
   7   -460.3892268 -0.107493E-02  0.433E-02    0.15       1.0  T
   8   -460.3911031 -0.187632E-02  0.176E-02    0.22       1.0  T
   9   -460.3912149 -0.111788E-03  0.112E-02    0.21       1.0  T
  10   -460.3913258 -0.110904E-03  0.608E-03    0.20       1.0  T
  11   -460.3913570 -0.311838E-04  0.269E-03    0.19       2.3  T
  12   -460.3913596 -0.256656E-05  0.261E-03    0.19       2.4  T
  13   -460.3913632 -0.364134E-05  0.920E-04    0.19       6.8  T
  14   -460.3913639 -0.672729E-06  0.426E-04    0.19      14.7  T
  15   -460.3913640 -0.127716E-06  0.180E-04    0.19      34.9  T
  16   -460.3913640 -0.203495E-07  0.935E-05    0.19      67.1  T
     SCC iter.                  ...        0 min,  3.975 sec
     gradient                   ...        0 min,  0.548 sec
 * total energy  :  -452.1729587 Eh     change       -0.1875618E+00 Eh
   gradient norm :     0.2433596 Eh/α   predicted    -0.1862990E+00 (  -0.67%)
   displ. norm   :     0.6364889 α      lambda       -0.9873303E-01
   maximum displ.:     0.2474541 α      in ANC's #212, #59, #152, ...

........................................................................
.............................. CYCLE    4 ..............................
........................................................................
   1   -460.4168190 -0.460417E+03  0.886E-02    0.49       0.0  T
   2   -460.4175086 -0.689586E-03  0.705E-02    0.33       1.0  T
   3   -460.4196468 -0.213826E-02  0.283E-02    0.43       1.0  T
   4   -460.4198098 -0.162959E-03  0.250E-02    0.38       1.0  T
   5   -460.4200026 -0.192799E-03  0.158E-02    0.38       1.0  T
   6   -460.4200746 -0.719505E-04  0.538E-03    0.39       1.2  T
   7   -460.4200879 -0.133264E-04  0.147E-03    0.39       4.3  T
   8   -460.4200893 -0.145863E-05  0.585E-04    0.39      10.7  T
   9   -460.4200896 -0.253737E-06  0.195E-04    0.39      32.2  T
  10   -460.4200896 -0.108558E-07  0.118E-04    0.39      53.2  T
     SCC iter.                  ...        0 min,  2.490 sec
     gradient                   ...        0 min,  0.545 sec
 * total energy  :  -452.2486642 Eh     change       -0.7570551E-01 Eh
   gradient norm :     0.1313374 Eh/α   predicted    -0.6936597E-01 (  -8.37%)
   displ. norm   :     0.7975883 α      lambda       -0.7019462E-01
   maximum displ.:     0.2662646 α      in ANC's #212, #59, #138, ...

........................................................................
.............................. CYCLE    5 ..............................
........................................................................
   1   -460.3926139 -0.460393E+03  0.768E-02    0.88       0.0  T
   2   -460.3929902 -0.376337E-03  0.725E-02    0.84       1.0  T
   3   -460.3947706 -0.178031E-02  0.209E-02    0.88       1.0  T
   4   -460.3947503  0.202615E-04  0.163E-02    0.89       1.0  T
   5   -460.3948185 -0.682383E-04  0.904E-03    0.89       1.0  T
   6   -460.3948539 -0.353365E-04  0.257E-03    0.89       2.4  T
   7   -460.3948578 -0.391802E-05  0.792E-04    0.89       7.9  T
   8   -460.3948580 -0.250446E-06  0.386E-04    0.89      16.2  T
   9   -460.3948581 -0.939498E-07  0.192E-04    0.89      32.7  T
  10   -460.3948581 -0.144415E-07  0.781E-05    0.89      80.3  T
     SCC iter.                  ...        0 min,  2.487 sec
     gradient                   ...        0 min,  0.538 sec
 * total energy  :  -452.3089225 Eh     change       -0.6025826E-01 Eh
   gradient norm :     0.1002036 Eh/α   predicted    -0.5742441E-01 (  -4.70%)
   displ. norm   :     0.9056874 α      lambda       -0.6493152E-01
   maximum displ.:     0.3255947 α      in ANC's #59, #138, #152, ...

........................................................................
.............................. CYCLE    6 ..............................
........................................................................
   1   -460.3469387 -0.460347E+03  0.724E-02    0.93       0.0  T
   2   -460.3477045 -0.765825E-03  0.703E-02    0.93       1.0  T
   3   -460.3487828 -0.107828E-02  0.233E-02    0.93       1.0  T
   4   -460.3486303  0.152507E-03  0.192E-02    0.93       1.0  T
   5   -460.3487757 -0.145479E-03  0.741E-03    0.93       1.0  T
   6   -460.3488148 -0.390565E-04  0.231E-03    0.93       2.7  T
   7   -460.3488178 -0.300491E-05  0.782E-04    0.93       8.0  T
   8   -460.3488181 -0.289067E-06  0.382E-04    0.93      16.4  T
   9   -460.3488182 -0.100231E-06  0.175E-04    0.93      35.8  T
  10   -460.3488182 -0.128924E-07  0.664E-05    0.93      94.6  T
     SCC iter.                  ...        0 min,  2.464 sec
     gradient                   ...        0 min,  0.543 sec
 * total energy  :  -452.3721615 Eh     change       -0.6323901E-01 Eh
   gradient norm :     0.1090440 Eh/α   predicted    -0.5909651E-01 (  -6.55%)
   displ. norm   :     0.9498841 α      lambda       -0.7015905E-01
   maximum displ.:     0.3440314 α      in ANC's #59, #138, #152, ...

........................................................................
.............................. CYCLE    7 ..............................
........................................................................
   1   -460.2933162 -0.460293E+03  0.734E-02    0.95       0.0  T
   2   -460.2940047 -0.688461E-03  0.706E-02    0.95       1.0  T
   3   -460.2946670 -0.662270E-03  0.306E-02    0.95       1.0  T
   4   -460.2943137  0.353240E-03  0.266E-02    0.95       1.0  T
   5   -460.2946580 -0.344325E-03  0.693E-03    0.95       1.0  T
   6   -460.2946967 -0.386871E-04  0.158E-03    0.95       4.0  T
   7   -460.2946979 -0.120466E-05  0.801E-04    0.95       7.8  T
   8   -460.2946983 -0.383192E-06  0.337E-04    0.95      18.6  T
   9   -460.2946984 -0.776034E-07  0.136E-04    0.95      46.3  T
  10   -460.2946984 -0.719996E-08  0.565E-05    0.95     111.0  T
     SCC iter.                  ...        0 min,  2.490 sec
     gradient                   ...        0 min,  0.546 sec
 * total energy  :  -452.4356626 Eh     change       -0.6350106E-01 Eh
   gradient norm :     0.1080747 Eh/α   predicted    -0.6673109E-01 (   5.09%)
   displ. norm   :     0.8544585 α      lambda       -0.5352915E-01
   maximum displ.:     0.3717151 α      in ANC's #59, #138, #152, ...

........................................................................
.............................. CYCLE    8 ..............................
........................................................................
   1   -460.2673132 -0.460267E+03  0.574E-02    0.93       0.0  T
   2   -460.2675309 -0.217628E-03  0.598E-02    0.93       1.0  T
   3   -460.2680462 -0.515352E-03  0.285E-02    0.93       1.0  T
   4   -460.2676429  0.403374E-03  0.253E-02    0.93       1.0  T
   5   -460.2680434 -0.400500E-03  0.526E-03    0.93       1.2  T
   6   -460.2680620 -0.186547E-04  0.784E-04    0.93       8.0  T
   7   -460.2680623 -0.277592E-06  0.319E-04    0.93      19.7  T
   8   -460.2680623 -0.398690E-07  0.137E-04    0.93      45.8  T
   9   -460.2680623 -0.122425E-07  0.709E-05    0.93      88.5  T
     SCC iter.                  ...        0 min,  2.244 sec
     gradient                   ...        0 min,  0.545 sec
 * total energy  :  -452.4755804 Eh     change       -0.3991783E-01 Eh
   gradient norm :     0.1058397 Eh/α   predicted    -0.4630540E-01 (  16.00%)
   displ. norm   :     0.7066448 α      lambda       -0.3560408E-01
   maximum displ.:     0.3766258 α      in ANC's #59, #18, #138, ...

........................................................................
.............................. CYCLE    9 ..............................
........................................................................
   1   -460.3067456 -0.460307E+03  0.216E-02    0.93       0.0  T
   2   -460.3067435  0.203616E-05  0.220E-02    0.93       1.0  T
   3   -460.3069020 -0.158509E-03  0.942E-03    0.93       1.0  T
   4   -460.3068508  0.511796E-04  0.955E-03    0.93       1.0  T
   5   -460.3069075 -0.566840E-04  0.174E-03    0.93       3.6  T
   6   -460.3069085 -0.921871E-06  0.396E-04    0.93      15.8  T
   7   -460.3069085 -0.851461E-07  0.178E-04    0.93      35.2  T
   8   -460.3069086 -0.265757E-07  0.731E-05    0.93      85.8  T
     SCC iter.                  ...        0 min,  1.996 sec
     gradient                   ...        0 min,  0.544 sec
 * total energy  :  -452.5053027 Eh     change       -0.2972227E-01 Eh
   gradient norm :     0.0762642 Eh/α   predicted    -0.2669145E-01 ( -10.20%)
   displ. norm   :     0.7915746 α      lambda       -0.3338712E-01
   maximum displ.:     0.4333252 α      in ANC's #59, #18, #87, ...

........................................................................
.............................. CYCLE   10 ..............................
........................................................................
   1   -460.3580112 -0.460358E+03  0.318E-02    0.92       0.0  T
   2   -460.3581084 -0.971589E-04  0.225E-02    0.92       1.0  T
   3   -460.3582691 -0.160755E-03  0.109E-02    0.92       1.0  T
   4   -460.3582751 -0.600362E-05  0.938E-03    0.92       1.0  T
   5   -460.3583237 -0.485568E-04  0.305E-03    0.92       2.1  T
   6   -460.3583261 -0.238165E-05  0.948E-04    0.92       6.6  T
   7   -460.3583269 -0.791002E-06  0.272E-04    0.92      23.1  T
   8   -460.3583269 -0.609351E-07  0.959E-05    0.92      65.5  T
   9   -460.3583269 -0.350667E-08  0.456E-05    0.92     137.6  T
     SCC iter.                  ...        0 min,  2.245 sec
     gradient                   ...        0 min,  0.546 sec
 * total energy  :  -452.5303735 Eh     change       -0.2507085E-01 Eh
   gradient norm :     0.0732490 Eh/α   predicted    -0.2715359E-01 (   8.31%)
   displ. norm   :     0.8233209 α      lambda       -0.2669195E-01
   maximum displ.:     0.4928041 α      in ANC's #59, #18, #89, ...

........................................................................
.............................. CYCLE   11 ..............................
........................................................................
   1   -460.3927974 -0.460393E+03  0.247E-02    0.91       0.0  T
   2   -460.3928437 -0.463214E-04  0.214E-02    0.91       1.0  T
   3   -460.3929740 -0.130311E-03  0.771E-03    0.91       1.0  T
   4   -460.3929391  0.349321E-04  0.870E-03    0.91       1.0  T
   5   -460.3929843 -0.452093E-04  0.218E-03    0.91       2.9  T
   6   -460.3929857 -0.141908E-05  0.622E-04    0.91      10.1  T
   7   -460.3929860 -0.275793E-06  0.234E-04    0.91      26.8  T
   8   -460.3929860 -0.480333E-07  0.706E-05    0.91      88.9  T
   9   -460.3929860 -0.218859E-08  0.284E-05    0.91     221.3  T
     SCC iter.                  ...        0 min,  2.248 sec
     gradient                   ...        0 min,  0.547 sec
 * total energy  :  -452.5500327 Eh     change       -0.1965924E-01 Eh
   gradient norm :     0.0589599 Eh/α   predicted    -0.2239264E-01 (  13.90%)
   displ. norm   :     0.8374661 α      lambda       -0.2181872E-01
   maximum displ.:     0.5156567 α      in ANC's #59, #18, #77, ...

........................................................................
.............................. CYCLE   12 ..............................
........................................................................
   1   -460.4457887 -0.460446E+03  0.219E-02    0.92       0.0  T
   2   -460.4458283 -0.395963E-04  0.180E-02    0.92       1.0  T
   3   -460.4459062 -0.779211E-04  0.773E-03    0.92       1.0  T
   4   -460.4458826  0.236346E-04  0.722E-03    0.92       1.0  T
   5   -460.4459140 -0.313754E-04  0.159E-03    0.92       3.9  T
   6   -460.4459159 -0.186871E-05  0.459E-04    0.92      13.7  T
   7   -460.4459160 -0.133225E-06  0.153E-04    0.92      41.1  T
   8   -460.4459160 -0.188700E-07  0.597E-05    0.92     105.1  T
     SCC iter.                  ...        0 min,  2.000 sec
     gradient                   ...        0 min,  0.549 sec
 * total energy  :  -452.5647509 Eh     change       -0.1471817E-01 Eh
   gradient norm :     0.0531766 Eh/α   predicted    -0.1856067E-01 (  26.11%)
   displ. norm   :     0.7781320 α      lambda       -0.2095411E-01
   maximum displ.:     0.4518328 α      in ANC's #59, #18, #77, ...

........................................................................
.............................. CYCLE   13 ..............................
........................................................................
   1   -460.5002766 -0.460500E+03  0.214E-02    0.93       0.0  T
   2   -460.5003243 -0.477362E-04  0.204E-02    0.93       1.0  T
   3   -460.5004131 -0.887670E-04  0.820E-03    0.93       1.0  T
   4   -460.5003688  0.442303E-04  0.833E-03    0.93       1.0  T
   5   -460.5004156 -0.467320E-04  0.203E-03    0.93       3.1  T
   6   -460.5004166 -0.983848E-06  0.462E-04    0.93      13.6  T
   7   -460.5004167 -0.143870E-06  0.176E-04    0.93      35.7  T
   8   -460.5004167 -0.301500E-07  0.371E-05    0.93     169.0  T
     SCC iter.                  ...        0 min,  1.962 sec
     gradient                   ...        0 min,  0.538 sec
 * total energy  :  -452.5775816 Eh     change       -0.1283070E-01 Eh
   gradient norm :     0.0886466 Eh/α   predicted    -0.1682083E-01 (  31.10%)
   displ. norm   :     0.7099157 α      lambda       -0.1676546E-01
   maximum displ.:     0.4292617 α      in ANC's #59, #18, #135, ...

........................................................................
.............................. CYCLE   14 ..............................
........................................................................
   1   -460.5147832 -0.460515E+03  0.238E-02    0.91       0.0  T
   2   -460.5148775 -0.942953E-04  0.177E-02    0.91       1.0  T
   3   -460.5149487 -0.711654E-04  0.725E-03    0.91       1.0  T
   4   -460.5149325  0.162144E-04  0.711E-03    0.91       1.0  T
   5   -460.5149562 -0.237800E-04  0.234E-03    0.91       2.7  T
   6   -460.5149596 -0.335071E-05  0.558E-04    0.91      11.2  T
   7   -460.5149598 -0.226488E-06  0.197E-04    0.91      31.8  T
   8   -460.5149599 -0.348692E-07  0.657E-05    0.91      95.5  T
     SCC iter.                  ...        0 min,  1.994 sec
     gradient                   ...        0 min,  0.547 sec
 * total energy  :  -452.5891245 Eh     change       -0.1154288E-01 Eh
   gradient norm :     0.0497859 Eh/α   predicted    -0.1260747E-01 (   9.22%)
   displ. norm   :     0.7714718 α      lambda       -0.1458586E-01
   maximum displ.:     0.4899589 α      in ANC's #59, #18, #63, ...

........................................................................
.............................. CYCLE   15 ..............................
........................................................................
   1   -460.5433786 -0.460543E+03  0.283E-02    0.92       0.0  T
   2   -460.5434409 -0.623515E-04  0.224E-02    0.92       1.0  T
   3   -460.5436043 -0.163375E-03  0.740E-03    0.92       1.0  T
   4   -460.5435879  0.163962E-04  0.813E-03    0.92       1.0  T
   5   -460.5436236 -0.356604E-04  0.235E-03    0.92       2.7  T
   6   -460.5436252 -0.159609E-05  0.758E-04    0.92       8.3  T
   7   -460.5436256 -0.471881E-06  0.252E-04    0.92      24.9  T
   8   -460.5436257 -0.553500E-07  0.772E-05    0.92      81.2  T
   9   -460.5436257 -0.206069E-08  0.319E-05    0.92     196.6  T
     SCC iter.                  ...        0 min,  2.240 sec
     gradient                   ...        0 min,  0.546 sec
 * total energy  :  -452.5992439 Eh     change       -0.1011942E-01 Eh
   gradient norm :     0.0595616 Eh/α   predicted    -0.1163347E-01 (  14.96%)
   displ. norm   :     0.7912109 α      lambda       -0.1171228E-01
   maximum displ.:     0.4630332 α      in ANC's #59, #18, #62, ...

........................................................................
.............................. CYCLE   16 ..............................
........................................................................
   1   -460.5723809 -0.460572E+03  0.105E-02    0.92       0.0  T
   2   -460.5723892 -0.831504E-05  0.666E-03    0.92       1.0  T
   3   -460.5723992 -0.100067E-04  0.363E-03    0.92       1.7  T
   4   -460.5724043 -0.506262E-05  0.297E-03    0.92       2.1  T
   5   -460.5724088 -0.455667E-05  0.797E-04    0.92       7.9  T
   6   -460.5724091 -0.266710E-06  0.286E-04    0.92      22.0  T
   7   -460.5724092 -0.673306E-07  0.856E-05    0.92      73.3  T
   8   -460.5724092 -0.593587E-08  0.327E-05    0.92     191.6  T
     SCC iter.                  ...        0 min,  1.993 sec
     gradient                   ...        0 min,  0.548 sec
 * total energy  :  -452.6080109 Eh     change       -0.8766987E-02 Eh
   gradient norm :     0.0370212 Eh/α   predicted    -0.9522167E-02 (   8.61%)
   displ. norm   :     0.8198567 α      lambda       -0.1209251E-01
   maximum displ.:     0.4486806 α      in ANC's #59, #18, #24, ...

........................................................................
.............................. CYCLE   17 ..............................
........................................................................
   1   -460.5987169 -0.460599E+03  0.151E-02    0.91       0.0  T
   2   -460.5987423 -0.254158E-04  0.124E-02    0.91       1.0  T
   3   -460.5987768 -0.345268E-04  0.508E-03    0.91       1.2  T
   4   -460.5987619  0.149178E-04  0.557E-03    0.91       1.1  T
   5   -460.5987810 -0.190830E-04  0.155E-03    0.91       4.1  T
   6   -460.5987818 -0.789188E-06  0.338E-04    0.91      18.6  T
   7   -460.5987819 -0.685487E-07  0.121E-04    0.91      51.9  T
   8   -460.5987819 -0.117156E-07  0.417E-05    0.91     150.6  T
     SCC iter.                  ...        0 min,  1.995 sec
     gradient                   ...        0 min,  0.549 sec
 * total energy  :  -452.6139061 Eh     change       -0.5895188E-02 Eh
   gradient norm :     0.0658246 Eh/α   predicted    -0.1011035E-01 (  71.50%)
   displ. norm   :     0.6676231 α      lambda       -0.9670717E-02
   maximum displ.:     0.3827452 α      in ANC's #59, #18, #24, ...

........................................................................
.............................. CYCLE   18 ..............................
........................................................................
   1   -460.6200898 -0.460620E+03  0.123E-02    0.91       0.0  T
   2   -460.6200978 -0.802452E-05  0.106E-02    0.91       1.0  T
   3   -460.6201271 -0.293324E-04  0.402E-03    0.91       1.6  T
   4   -460.6201191  0.801699E-05  0.414E-03    0.91       1.5  T
   5   -460.6201293 -0.102111E-04  0.879E-04    0.91       7.1  T
   6   -460.6201298 -0.477050E-06  0.247E-04    0.91      25.4  T
   7   -460.6201298 -0.455485E-07  0.908E-05    0.91      69.1  T
   8   -460.6201298 -0.696849E-08  0.278E-05    0.91     225.6  T
     SCC iter.                  ...        0 min,  1.997 sec
     gradient                   ...        0 min,  0.549 sec
 * total energy  :  -452.6210170 Eh     change       -0.7110942E-02 Eh
   gradient norm :     0.0230059 Eh/α   predicted    -0.6990590E-02 (  -1.69%)
   displ. norm   :     0.8017033 α      lambda       -0.7388288E-02
   maximum displ.:     0.3873217 α      in ANC's #18, #59, #57, ...

........................................................................
.............................. CYCLE   19 ..............................
........................................................................
   1   -460.6388217 -0.460639E+03  0.955E-03    0.92       0.0  T
   2   -460.6388296 -0.789328E-05  0.770E-03    0.92       1.0  T
   3   -460.6388481 -0.185101E-04  0.297E-03    0.92       2.1  T
   4   -460.6388447  0.345178E-05  0.310E-03    0.92       2.0  T
   5   -460.6388505 -0.580751E-05  0.749E-04    0.92       8.4  T
   6   -460.6388508 -0.283120E-06  0.321E-04    0.92      19.6  T
   7   -460.6388509 -0.987615E-07  0.941E-05    0.92      66.7  T
   8   -460.6388509 -0.704927E-08  0.289E-05    0.92     216.9  T
     SCC iter.                  ...        0 min,  1.996 sec
     gradient                   ...        0 min,  0.553 sec
 * total energy  :  -452.6239459 Eh     change       -0.2928851E-02 Eh
   gradient norm :     0.0423128 Eh/α   predicted    -0.6068487E-02 ( 107.20%)
   displ. norm   :     0.6355304 α      lambda       -0.8155731E-02
   maximum displ.:     0.2996635 α      in ANC's #59, #18, #32, ...

........................................................................
.............................. CYCLE   20 ..............................
........................................................................
   1   -460.6624959 -0.460662E+03  0.775E-03    0.91       0.0  T
   2   -460.6624975 -0.159776E-05  0.699E-03    0.91       1.0  T
   3   -460.6625122 -0.147244E-04  0.287E-03    0.91       2.2  T
   4   -460.6625085  0.372804E-05  0.259E-03    0.91       2.4  T
   5   -460.6625131 -0.456526E-05  0.537E-04    0.91      11.7  T
   6   -460.6625133 -0.268582E-06  0.182E-04    0.91      34.4  T
   7   -460.6625134 -0.305143E-07  0.633E-05    0.91      99.2  T
     SCC iter.                  ...        0 min,  1.749 sec
     gradient                   ...        0 min,  0.549 sec
 * total energy  :  -452.6294963 Eh     change       -0.5550380E-02 Eh
   gradient norm :     0.0187805 Eh/α   predicted    -0.5724914E-02 (   3.14%)
   displ. norm   :     0.7589134 α      lambda       -0.4434336E-02
   maximum displ.:     0.4048822 α      in ANC's #18, #59, #32, ...
 * RMSD in coord.:     0.6980509 α      energy gain  -0.1168040E+01 Eh

generating ANC from model Hessian ...
Using Lindh-Hessian (1995)
 Shifting diagonal of input Hessian by    1.0023715981280962E-002
 Lowest  eigenvalues of input Hessian
    0.010000    0.010006    0.010007    0.010009    0.010013    0.010014
    0.010015    0.010017    0.010017    0.000000    0.000000    0.000000
    0.000000    0.000000    0.000000    0.010024    0.010030    0.010032
 Highest eigenvalues
    2.732665    2.733926    2.740319    2.943777    2.951080    2.959899


........................................................................
.............................. CYCLE   21 ..............................
........................................................................
   1   -460.6786638 -0.460679E+03  0.672E-03    0.91       0.0  T
   2   -460.6786632  0.578191E-06  0.583E-03    0.91       1.1  T
   3   -460.6786759 -0.126833E-04  0.214E-03    0.91       2.9  T
   4   -460.6786742  0.171610E-05  0.240E-03    0.91       2.6  T
   5   -460.6786776 -0.339789E-05  0.549E-04    0.91      11.4  T
   6   -460.6786777 -0.130243E-06  0.127E-04    0.91      49.3  T
   7   -460.6786777 -0.124695E-07  0.571E-05    0.91     109.9  T
     SCC iter.                  ...        0 min,  1.753 sec
     gradient                   ...        0 min,  0.550 sec
 * total energy  :  -452.6330029 Eh     change       -0.3506593E-02 Eh
   gradient norm :     0.0151478 Eh/α   predicted     0.0000000E+00 (-100.00%)
   displ. norm   :     0.3564543 α      lambda       -0.1965714E-02
   maximum displ.:     0.1470572 α      in ANC's #20, #34, #61, ...

........................................................................
.............................. CYCLE   22 ..............................
........................................................................
   1   -460.6872432 -0.460687E+03  0.278E-03    0.91       0.0  T
   2   -460.6872444 -0.115926E-05  0.177E-03    0.91       3.6  T
   3   -460.6872449 -0.532164E-06  0.858E-04    0.91       7.3  T
   4   -460.6872448  0.795307E-07  0.508E-04    0.91      12.4  T
   5   -460.6872449 -0.877854E-07  0.224E-04    0.91      27.9  T
   6   -460.6872450 -0.413399E-07  0.669E-05    0.91      93.8  T
   7   -460.6872450 -0.391424E-08  0.185E-05    0.91     340.0  T
     SCC iter.                  ...        0 min,  1.752 sec
     gradient                   ...        0 min,  0.553 sec
 * total energy  :  -452.6347072 Eh     change       -0.1704340E-02 Eh
   gradient norm :     0.0081551 Eh/α   predicted    -0.1107792E-02 ( -35.00%)
   displ. norm   :     0.8090340 α      lambda       -0.3844693E-02
   maximum displ.:     0.3320906 α      in ANC's #34, #20, #40, ...

........................................................................
.............................. CYCLE   23 ..............................
........................................................................
   1   -460.7013097 -0.460701E+03  0.539E-03    0.92       0.0  T
   2   -460.7013142 -0.451294E-05  0.361E-03    0.92       1.7  T
   3   -460.7013170 -0.274356E-05  0.161E-03    0.92       3.9  T
   4   -460.7013163  0.699264E-06  0.123E-03    0.92       5.1  T
   5   -460.7013170 -0.774675E-06  0.507E-04    0.92      12.4  T
   6   -460.7013172 -0.199270E-06  0.136E-04    0.92      46.2  T
   7   -460.7013172 -0.138658E-07  0.363E-05    0.92     173.1  T
     SCC iter.                  ...        0 min,  1.751 sec
     gradient                   ...        0 min,  0.552 sec
 * total energy  :  -452.6378214 Eh     change       -0.3114227E-02 Eh
   gradient norm :     0.0155215 Eh/α   predicted    -0.3180594E-02 (   2.13%)
   displ. norm   :     0.8254075 α      lambda       -0.3443906E-02
   maximum displ.:     0.3394307 α      in ANC's #34, #20, #61, ...

........................................................................
.............................. CYCLE   24 ..............................
........................................................................
   1   -460.7041810 -0.460704E+03  0.359E-03    0.92       0.0  T
   2   -460.7041826 -0.155651E-05  0.236E-03    0.92       2.7  T
   3   -460.7041843 -0.167766E-05  0.108E-03    0.92       5.8  T
   4   -460.7041840  0.233176E-06  0.888E-04    0.92       7.1  T
   5   -460.7041845 -0.473178E-06  0.306E-04    0.92      20.5  T
   6   -460.7041846 -0.708995E-07  0.588E-05    0.92     106.7  T
   7   -460.7041846 -0.203636E-08  0.265E-05    0.92     237.0  T
     SCC iter.                  ...        0 min,  1.713 sec
     gradient                   ...        0 min,  0.545 sec
 * total energy  :  -452.6401467 Eh     change       -0.2325286E-02 Eh
   gradient norm :     0.0188786 Eh/α   predicted    -0.2895115E-02 (  24.51%)
   displ. norm   :     0.7349217 α      lambda       -0.3383502E-02
   maximum displ.:     0.3135500 α      in ANC's #20, #34, #40, ...

........................................................................
.............................. CYCLE   25 ..............................
........................................................................
   1   -460.7059043 -0.460706E+03  0.415E-03    0.92       0.0  T
   2   -460.7059055 -0.121665E-05  0.284E-03    0.92       2.2  T
   3   -460.7059067 -0.119920E-05  0.150E-03    0.92       4.2  T
   4   -460.7059064  0.349824E-06  0.105E-03    0.92       6.0  T
   5   -460.7059070 -0.629147E-06  0.327E-04    0.92      19.2  T
   6   -460.7059071 -0.106530E-06  0.660E-05    0.92      95.0  T
   7   -460.7059071 -0.259121E-08  0.214E-05    0.92     292.8  T
     SCC iter.                  ...        0 min,  1.750 sec
     gradient                   ...        0 min,  0.552 sec
 * total energy  :  -452.6423657 Eh     change       -0.2218957E-02 Eh
   gradient norm :     0.0171402 Eh/α   predicted    -0.2605482E-02 (  17.42%)
   displ. norm   :     0.7055140 α      lambda       -0.2816520E-02
   maximum displ.:     0.3205965 α      in ANC's #20, #34, #40, ...

........................................................................
.............................. CYCLE   26 ..............................
........................................................................
   1   -460.7135105 -0.460714E+03  0.336E-03    0.92       0.0  T
   2   -460.7135120 -0.156528E-05  0.217E-03    0.92       2.9  T
   3   -460.7135130 -0.100414E-05  0.102E-03    0.92       6.2  T
   4   -460.7135129  0.161480E-06  0.738E-04    0.92       8.5  T
   5   -460.7135131 -0.217071E-06  0.270E-04    0.92      23.2  T
   6   -460.7135132 -0.838425E-07  0.693E-05    0.92      90.5  T
   7   -460.7135132 -0.315509E-08  0.236E-05    0.92     266.2  T
     SCC iter.                  ...        0 min,  1.750 sec
     gradient                   ...        0 min,  0.551 sec
 * total energy  :  -452.6438619 Eh     change       -0.1496267E-02 Eh
   gradient norm :     0.0145566 Eh/α   predicted    -0.2109226E-02 (  40.97%)
   displ. norm   :     0.6369909 α      lambda       -0.2620479E-02
   maximum displ.:     0.2887996 α      in ANC's #20, #34, #40, ...

........................................................................
.............................. CYCLE   27 ..............................
........................................................................
   1   -460.7269055 -0.460727E+03  0.325E-03    0.91       0.0  T
   2   -460.7269064 -0.989139E-06  0.192E-03    0.91       3.3  T
   3   -460.7269070 -0.585426E-06  0.110E-03    0.91       5.7  T
   4   -460.7269068  0.229761E-06  0.815E-04    0.91       7.7  T
   5   -460.7269073 -0.480555E-06  0.228E-04    0.91      27.5  T
   6   -460.7269073 -0.417776E-07  0.594E-05    0.91     105.6  T
   7   -460.7269073 -0.217079E-08  0.227E-05    0.91     276.2  T
     SCC iter.                  ...        0 min,  1.750 sec
     gradient                   ...        0 min,  0.551 sec
 * total energy  :  -452.6456832 Eh     change       -0.1821283E-02 Eh
   gradient norm :     0.0100584 Eh/α   predicted    -0.1841885E-02 (   1.13%)
   displ. norm   :     0.7069009 α      lambda       -0.2132413E-02
   maximum displ.:     0.3384203 α      in ANC's #20, #34, #40, ...

........................................................................
.............................. CYCLE   28 ..............................
........................................................................
   1   -460.7387617 -0.460739E+03  0.313E-03    0.91       0.0  T
   2   -460.7387626 -0.977454E-06  0.193E-03    0.91       3.3  T
   3   -460.7387636 -0.937711E-06  0.984E-04    0.91       6.4  T
   4   -460.7387637 -0.993265E-07  0.755E-04    0.91       8.3  T
   5   -460.7387639 -0.267950E-06  0.220E-04    0.91      28.5  T
   6   -460.7387640 -0.366293E-07  0.486E-05    0.91     129.0  T
   7   -460.7387640 -0.790294E-09  0.261E-05    0.91     240.3  T
     SCC iter.                  ...        0 min,  1.753 sec
     gradient                   ...        0 min,  0.553 sec
 * total energy  :  -452.6470567 Eh     change       -0.1373451E-02 Eh
   gradient norm :     0.0107810 Eh/α   predicted    -0.1599003E-02 (  16.42%)
   displ. norm   :     0.6992738 α      lambda       -0.1895060E-02
   maximum displ.:     0.3546349 α      in ANC's #20, #34, #40, ...

........................................................................
.............................. CYCLE   29 ..............................
........................................................................
   1   -460.7483170 -0.460748E+03  0.330E-03    0.91       0.0  T
   2   -460.7483179 -0.901012E-06  0.203E-03    0.91       3.1  T
   3   -460.7483188 -0.952035E-06  0.106E-03    0.91       5.9  T
   4   -460.7483189 -0.108296E-06  0.779E-04    0.91       8.1  T
   5   -460.7483192 -0.230904E-06  0.287E-04    0.91      21.8  T
   6   -460.7483192 -0.641879E-07  0.624E-05    0.91     100.5  T
   7   -460.7483192 -0.221598E-08  0.290E-05    0.91     216.5  T
     SCC iter.                  ...        0 min,  1.752 sec
     gradient                   ...        0 min,  0.552 sec
 * total energy  :  -452.6484790 Eh     change       -0.1422287E-02 Eh
   gradient norm :     0.0097584 Eh/α   predicted    -0.1410863E-02 (  -0.80%)
   displ. norm   :     0.7105055 α      lambda       -0.1849603E-02
   maximum displ.:     0.3697648 α      in ANC's #20, #34, #40, ...

........................................................................
.............................. CYCLE   30 ..............................
........................................................................
   1   -460.7601878 -0.460760E+03  0.317E-03    0.90       0.0  T
   2   -460.7601890 -0.119494E-05  0.186E-03    0.90       3.4  T
   3   -460.7601898 -0.863889E-06  0.992E-04    0.90       6.3  T
   4   -460.7601900 -0.169199E-06  0.726E-04    0.90       8.6  T
   5   -460.7601902 -0.216053E-06  0.306E-04    0.90      20.5  T
   6   -460.7601903 -0.561922E-07  0.707E-05    0.90      88.7  T
   7   -460.7601903 -0.299906E-08  0.306E-05    0.90     204.9  T
     SCC iter.                  ...        0 min,  1.753 sec
     gradient                   ...        0 min,  0.553 sec
 * total energy  :  -452.6497903 Eh     change       -0.1311317E-02 Eh
   gradient norm :     0.0106675 Eh/α   predicted    -0.1391664E-02 (   6.13%)
   displ. norm   :     0.7215132 α      lambda       -0.1411317E-02
   maximum displ.:     0.3859032 α      in ANC's #20, #34, #40, ...

........................................................................
.............................. CYCLE   31 ..............................
........................................................................
   1   -460.7724838 -0.460772E+03  0.288E-03    0.90       0.0  T
   2   -460.7724846 -0.774512E-06  0.172E-03    0.90       3.6  T
   3   -460.7724853 -0.726528E-06  0.934E-04    0.90       6.7  T
   4   -460.7724854 -0.427707E-07  0.675E-04    0.90       9.3  T
   5   -460.7724856 -0.218820E-06  0.203E-04    0.90      30.9  T
   6   -460.7724856 -0.292108E-07  0.563E-05    0.90     111.5  T
   7   -460.7724856 -0.213231E-08  0.232E-05    0.90     270.5  T
     SCC iter.                  ...        0 min,  1.749 sec
     gradient                   ...        0 min,  0.553 sec
 * total energy  :  -452.6509982 Eh     change       -0.1207945E-02 Eh
   gradient norm :     0.0089222 Eh/α   predicted    -0.1073014E-02 ( -11.17%)
   displ. norm   :     0.7620967 α      lambda       -0.1408487E-02
   maximum displ.:     0.4186157 α      in ANC's #20, #34, #40, ...

........................................................................
.............................. CYCLE   32 ..............................
........................................................................
   1   -460.7817061 -0.460782E+03  0.276E-03    0.90       0.0  T
   2   -460.7817072 -0.105013E-05  0.182E-03    0.90       3.5  T
   3   -460.7817080 -0.795784E-06  0.824E-04    0.90       7.6  T
   4   -460.7817079  0.103198E-06  0.648E-04    0.90       9.7  T
   5   -460.7817080 -0.183059E-06  0.224E-04    0.90      28.0  T
   6   -460.7817081 -0.502827E-07  0.572E-05    0.90     109.8  T
   7   -460.7817081 -0.204534E-08  0.223E-05    0.90     281.0  T
     SCC iter.                  ...        0 min,  1.750 sec
     gradient                   ...        0 min,  0.552 sec
 * total energy  :  -452.6519899 Eh     change       -0.9916475E-03 Eh
   gradient norm :     0.0096125 Eh/α   predicted    -0.1113270E-02 (  12.26%)
   displ. norm   :     0.6984620 α      lambda       -0.1278928E-02
   maximum displ.:     0.3920346 α      in ANC's #20, #34, #40, ...

........................................................................
.............................. CYCLE   33 ..............................
........................................................................
   1   -460.7878703 -0.460788E+03  0.285E-03    0.90       0.0  T
   2   -460.7878711 -0.798945E-06  0.167E-03    0.90       3.8  T
   3   -460.7878717 -0.527915E-06  0.934E-04    0.90       6.7  T
   4   -460.7878716  0.398652E-07  0.681E-04    0.90       9.2  T
   5   -460.7878719 -0.241858E-06  0.221E-04    0.90      28.4  T
   6   -460.7878719 -0.449031E-07  0.525E-05    0.90     119.5  T
   7   -460.7878719 -0.176760E-08  0.208E-05    0.90     301.9  T
     SCC iter.                  ...        0 min,  1.728 sec
     gradient                   ...        0 min,  0.545 sec
 * total energy  :  -452.6528868 Eh     change       -0.8969426E-03 Eh
   gradient norm :     0.0104808 Eh/α   predicted    -0.9514272E-03 (   6.07%)
   displ. norm   :     0.6724049 α      lambda       -0.9473545E-03
   maximum displ.:     0.3894854 α      in ANC's #20, #34, #25, ...

........................................................................
.............................. CYCLE   34 ..............................
........................................................................
   1   -460.7966307 -0.460797E+03  0.355E-03    0.90       0.0  T
   2   -460.7966323 -0.162380E-05  0.168E-03    0.90       3.7  T
   3   -460.7966328 -0.418772E-06  0.108E-03    0.90       5.8  T
   4   -460.7966327  0.465752E-07  0.610E-04    0.90      10.3  T
   5   -460.7966329 -0.135248E-06  0.299E-04    0.90      21.0  T
   6   -460.7966329 -0.857850E-07  0.567E-05    0.90     110.6  T
   7   -460.7966329 -0.120127E-08  0.318E-05    0.90     197.4  T
     SCC iter.                  ...        0 min,  1.738 sec
     gradient                   ...        0 min,  0.554 sec
 * total energy  :  -452.6535824 Eh     change       -0.6955748E-03 Eh
   gradient norm :     0.0085388 Eh/α   predicted    -0.6878428E-03 (  -1.11%)
   displ. norm   :     0.6336526 α      lambda       -0.7002205E-03
   maximum displ.:     0.3759007 α      in ANC's #20, #34, #25, ...

........................................................................
.............................. CYCLE   35 ..............................
........................................................................
   1   -460.8023060 -0.460802E+03  0.241E-03    0.90       0.0  T
   2   -460.8023067 -0.742644E-06  0.123E-03    0.90       5.1  T
   3   -460.8023071 -0.344788E-06  0.697E-04    0.90       9.0  T
   4   -460.8023071 -0.107065E-07  0.342E-04    0.90      18.3  T
   5   -460.8023071 -0.205791E-07  0.196E-04    0.90      32.1  T
   6   -460.8023071 -0.337528E-07  0.382E-05    0.90     164.2  T
     SCC iter.                  ...        0 min,  1.503 sec
     gradient                   ...        0 min,  0.553 sec
 * total energy  :  -452.6541589 Eh     change       -0.5765141E-03 Eh
   gradient norm :     0.0051365 Eh/α   predicted    -0.4906865E-03 ( -14.89%)
   displ. norm   :     0.5950016 α      lambda       -0.5576366E-03
   maximum displ.:     0.3682589 α      in ANC's #20, #25, #40, ...

........................................................................
.............................. CYCLE   36 ..............................
........................................................................
   1   -460.8078090 -0.460808E+03  0.227E-03    0.90       0.0  T
   2   -460.8078096 -0.637215E-06  0.119E-03    0.90       5.3  T
   3   -460.8078099 -0.317586E-06  0.678E-04    0.90       9.3  T
   4   -460.8078099  0.111787E-07  0.423E-04    0.90      14.8  T
   5   -460.8078100 -0.989044E-07  0.194E-04    0.90      32.3  T
   6   -460.8078100 -0.318940E-07  0.366E-05    0.90     171.5  T
     SCC iter.                  ...        0 min,  1.502 sec
     gradient                   ...        0 min,  0.556 sec
 * total energy  :  -452.6546037 Eh     change       -0.4448413E-03 Eh
   gradient norm :     0.0059134 Eh/α   predicted    -0.3775310E-03 ( -15.13%)
   displ. norm   :     0.5620187 α      lambda       -0.4947807E-03
   maximum displ.:     0.3582120 α      in ANC's #20, #25, #40, ...

........................................................................
.............................. CYCLE   37 ..............................
........................................................................
   1   -460.8162137 -0.460816E+03  0.305E-03    0.89       0.0  T
   2   -460.8162145 -0.836994E-06  0.155E-03    0.89       4.0  T
   3   -460.8162148 -0.333483E-06  0.101E-03    0.89       6.2  T
   4   -460.8162148  0.661215E-07  0.601E-04    0.89      10.4  T
   5   -460.8162150 -0.259897E-06  0.194E-04    0.89      32.4  T
   6   -460.8162151 -0.308966E-07  0.440E-05    0.89     142.7  T
     SCC iter.                  ...        0 min,  1.503 sec
     gradient                   ...        0 min,  0.554 sec
 * total energy  :  -452.6549685 Eh     change       -0.3647665E-03 Eh
   gradient norm :     0.0090566 Eh/α   predicted    -0.3255370E-03 ( -10.75%)
   displ. norm   :     0.5231369 α      lambda       -0.4215975E-03
   maximum displ.:     0.3357210 α      in ANC's #20, #25, #37, ...

........................................................................
.............................. CYCLE   38 ..............................
........................................................................
   1   -460.8181109 -0.460818E+03  0.357E-03    0.89       0.0  T
   2   -460.8181118 -0.905594E-06  0.183E-03    0.89       3.4  T
   3   -460.8181120 -0.268325E-06  0.132E-03    0.89       4.8  T
   4   -460.8181121 -0.627218E-07  0.783E-04    0.89       8.0  T
   5   -460.8181126 -0.444402E-06  0.228E-04    0.89      27.6  T
   6   -460.8181126 -0.456374E-07  0.615E-05    0.89     102.1  T
   7   -460.8181126 -0.196462E-08  0.359E-05    0.89     174.8  T
     SCC iter.                  ...        0 min,  1.748 sec
     gradient                   ...        0 min,  0.554 sec
 * total energy  :  -452.6552506 Eh     change       -0.2821396E-03 Eh
   gradient norm :     0.0106710 Eh/α   predicted    -0.2684948E-03 (  -4.84%)
   displ. norm   :     0.4772663 α      lambda       -0.4093273E-03
   maximum displ.:     0.3104049 α      in ANC's #20, #25, #37, ...

........................................................................
.............................. CYCLE   39 ..............................
........................................................................
   1   -460.8236979 -0.460824E+03  0.298E-03    0.89       0.0  T
   2   -460.8236988 -0.956195E-06  0.145E-03    0.89       4.3  T
   3   -460.8236990 -0.211956E-06  0.997E-04    0.89       6.3  T
   4   -460.8236990 -0.104414E-07  0.614E-04    0.89      10.2  T
   5   -460.8236993 -0.214489E-06  0.210E-04    0.89      29.8  T
   6   -460.8236993 -0.371820E-07  0.579E-05    0.89     108.4  T
   7   -460.8236993 -0.138880E-08  0.352E-05    0.89     178.1  T
     SCC iter.                  ...        0 min,  1.753 sec
     gradient                   ...        0 min,  0.554 sec
 * total energy  :  -452.6555249 Eh     change       -0.2742846E-03 Eh
   gradient norm :     0.0070576 Eh/α   predicted    -0.2512875E-03 (  -8.38%)
   displ. norm   :     0.4194315 α      lambda       -0.2894460E-03
   maximum displ.:     0.2789087 α      in ANC's #20, #25, #37, ...

........................................................................
.............................. CYCLE   40 ..............................
........................................................................
   1   -460.8288399 -0.460829E+03  0.253E-03    0.89       0.0  T
   2   -460.8288406 -0.702837E-06  0.118E-03    0.89       5.3  T
   3   -460.8288407 -0.117169E-06  0.819E-04    0.89       7.7  T
   4   -460.8288407 -0.289240E-07  0.497E-04    0.89      12.6  T
   5   -460.8288409 -0.114504E-06  0.193E-04    0.89      32.5  T
   6   -460.8288409 -0.337851E-07  0.442E-05    0.89     141.8  T
     SCC iter.                  ...        0 min,  1.501 sec
     gradient                   ...        0 min,  0.553 sec
 * total energy  :  -452.6557291 Eh     change       -0.2041698E-03 Eh
   gradient norm :     0.0074080 Eh/α   predicted    -0.1701905E-03 ( -16.64%)
   displ. norm   :     0.4141784 α      lambda       -0.2619088E-03
   maximum displ.:     0.2752238 α      in ANC's #20, #25, #54, ...

........................................................................
.............................. CYCLE   41 ..............................
........................................................................
   1   -460.8338623 -0.460834E+03  0.228E-03    0.89       0.0  T
   2   -460.8338628 -0.523962E-06  0.109E-03    0.89       5.7  T
   3   -460.8338629 -0.764575E-07  0.739E-04    0.89       8.5  T
   4   -460.8338629 -0.324426E-07  0.477E-04    0.89      13.2  T
   5   -460.8338630 -0.117079E-06  0.158E-04    0.89      39.7  T
   6   -460.8338630 -0.220700E-07  0.374E-05    0.89     167.8  T
     SCC iter.                  ...        0 min,  1.500 sec
     gradient                   ...        0 min,  0.556 sec
 * total energy  :  -452.6559277 Eh     change       -0.1986362E-03 Eh
   gradient norm :     0.0050448 Eh/α   predicted    -0.1534237E-03 ( -22.76%)
   displ. norm   :     0.4063356 α      lambda       -0.2066766E-03
   maximum displ.:     0.2707207 α      in ANC's #20, #25, #34, ...

........................................................................
.............................. CYCLE   42 ..............................
........................................................................
   1   -460.8372079 -0.460837E+03  0.137E-03    0.89       0.0  T
   2   -460.8372082 -0.221607E-06  0.732E-04    0.89       8.6  T
   3   -460.8372082 -0.591871E-07  0.432E-04    0.89      14.5  T
   4   -460.8372082 -0.788140E-08  0.315E-04    0.89      19.9  T
   5   -460.8372083 -0.545319E-07  0.869E-05    0.89      72.2  T
   6   -460.8372083 -0.519731E-08  0.213E-05    0.89     295.0  T
     SCC iter.                  ...        0 min,  1.494 sec
     gradient                   ...        0 min,  0.546 sec
 * total energy  :  -452.6560927 Eh     change       -0.1649674E-03 Eh
   gradient norm :     0.0042706 Eh/α   predicted    -0.1204044E-03 ( -27.01%)
   displ. norm   :     0.3914408 α      lambda       -0.1850273E-03
   maximum displ.:     0.2610968 α      in ANC's #20, #34, #25, ...
 * RMSD in coord.:     0.7563565 α      energy gain  -0.2659644E-01 Eh

generating ANC from model Hessian ...
Using Lindh-Hessian (1995)
 Shifting diagonal of input Hessian by    1.0023203099221218E-002
 Lowest  eigenvalues of input Hessian
    0.010000    0.010003    0.010006    0.010007    0.010012    0.010014
    0.010016    0.010016    0.010017    0.010023    0.000000    0.000000
    0.000000    0.000000    0.000000    0.000000    0.010031    0.010033
 Highest eigenvalues
    2.804517    2.806884    2.808809    3.028819    3.031176    3.033236


........................................................................
.............................. CYCLE   43 ..............................
........................................................................
   1   -460.8393818 -0.460839E+03  0.135E-03    0.89       0.0  T
   2   -460.8393821 -0.260839E-06  0.667E-04    0.89       9.4  T
   3   -460.8393821 -0.705269E-07  0.413E-04    0.89      15.2  T
   4   -460.8393821 -0.104870E-07  0.283E-04    0.89      22.1  T
   5   -460.8393822 -0.415799E-07  0.832E-05    0.89      75.4  T
   6   -460.8393822 -0.401286E-08  0.195E-05    0.89     322.0  T
     SCC iter.                  ...        0 min,  1.473 sec
     gradient                   ...        0 min,  0.550 sec
 * total energy  :  -452.6562397 Eh     change       -0.1470123E-03 Eh
   gradient norm :     0.0042195 Eh/α   predicted     0.0000000E+00 (-100.00%)
   displ. norm   :     0.0649657 α      lambda       -0.2147635E-04
   maximum displ.:     0.0267967 α      in ANC's #39, #20, #54, ...

........................................................................
.............................. CYCLE   44 ..............................
........................................................................
   1   -460.8384314 -0.460838E+03  0.941E-04    0.89       0.0  T
   2   -460.8384316 -0.121935E-06  0.419E-04    0.89      15.0  T
   3   -460.8384316 -0.185619E-07  0.267E-04    0.89      23.5  T
   4   -460.8384316 -0.640398E-09  0.175E-04    0.89      35.8  T
   5   -460.8384316 -0.126568E-07  0.757E-05    0.89      82.9  T
     SCC iter.                  ...        0 min,  1.252 sec
     gradient                   ...        0 min,  0.553 sec
 * total energy  :  -452.6562726 Eh     change       -0.3289752E-04 Eh
   gradient norm :     0.0027181 Eh/α   predicted    -0.3440171E-04 (   4.57%)
   displ. norm   :     0.1483685 α      lambda       -0.1299134E-03
   maximum displ.:     0.0722896 α      in ANC's #20, #39, #34, ...

........................................................................
.............................. CYCLE   45 ..............................
........................................................................
   1   -460.8361391 -0.460836E+03  0.192E-03    0.89       0.0  T
   2   -460.8361396 -0.481620E-06  0.833E-04    0.89       7.5  T
   3   -460.8361397 -0.781766E-07  0.536E-04    0.89      11.7  T
   4   -460.8361398 -0.568851E-07  0.347E-04    0.89      18.1  T
   5   -460.8361398 -0.402177E-07  0.153E-04    0.89      41.1  T
   6   -460.8361398 -0.170323E-07  0.339E-05    0.89     185.0  T
     SCC iter.                  ...        0 min,  1.497 sec
     gradient                   ...        0 min,  0.553 sec
 * total energy  :  -452.6563340 Eh     change       -0.6139865E-04 Eh
   gradient norm :     0.0062397 Eh/α   predicted    -0.6638802E-04 (   8.13%)
   displ. norm   :     0.1600952 α      lambda       -0.1246200E-03
   maximum displ.:     0.0792689 α      in ANC's #20, #39, #34, ...

........................................................................
.............................. CYCLE   46 ..............................
........................................................................
   1   -460.8338140 -0.460834E+03  0.141E-03    0.89       0.0  T
   2   -460.8338143 -0.303173E-06  0.567E-04    0.89      11.1  T
   3   -460.8338144 -0.472629E-07  0.365E-04    0.89      17.2  T
   4   -460.8338144 -0.726205E-07  0.214E-04    0.89      29.3  T
   5   -460.8338145 -0.168174E-07  0.915E-05    0.89      68.6  T
   6   -460.8338145 -0.347262E-08  0.290E-05    0.89     216.6  T
     SCC iter.                  ...        0 min,  1.500 sec
     gradient                   ...        0 min,  0.554 sec
 * total energy  :  -452.6563797 Eh     change       -0.4569218E-04 Eh
   gradient norm :     0.0058808 Eh/α   predicted    -0.6390883E-04 (  39.87%)
   displ. norm   :     0.1248970 α      lambda       -0.1113984E-03
   maximum displ.:     0.0628910 α      in ANC's #20, #39, #45, ...

........................................................................
.............................. CYCLE   47 ..............................
........................................................................
   1   -460.8327823 -0.460833E+03  0.149E-03    0.89       0.0  T
   2   -460.8327825 -0.199793E-06  0.723E-04    0.89       8.7  T
   3   -460.8327825 -0.403311E-07  0.500E-04    0.89      12.6  T
   4   -460.8327825  0.255999E-07  0.290E-04    0.89      21.6  T
   5   -460.8327826 -0.545957E-07  0.113E-04    0.89      55.4  T
   6   -460.8327826 -0.114790E-07  0.233E-05    0.89     269.1  T
     SCC iter.                  ...        0 min,  1.499 sec
     gradient                   ...        0 min,  0.555 sec
 * total energy  :  -452.6564363 Eh     change       -0.5658107E-04 Eh
   gradient norm :     0.0042179 Eh/α   predicted    -0.5656825E-04 (  -0.02%)
   displ. norm   :     0.1734182 α      lambda       -0.1261043E-03
   maximum displ.:     0.0941423 α      in ANC's #20, #39, #33, ...

........................................................................
.............................. CYCLE   48 ..............................
........................................................................
   1   -460.8317367 -0.460832E+03  0.121E-03    0.89       0.0  T
   2   -460.8317368 -0.185573E-06  0.648E-04    0.89       9.7  T
   3   -460.8317369 -0.392205E-07  0.376E-04    0.89      16.7  T
   4   -460.8317369  0.229267E-07  0.244E-04    0.89      25.7  T
   5   -460.8317369 -0.330922E-07  0.102E-04    0.89      61.8  T
   6   -460.8317369 -0.813105E-08  0.191E-05    0.89     328.5  T
     SCC iter.                  ...        0 min,  1.505 sec
     gradient                   ...        0 min,  0.557 sec
 * total energy  :  -452.6564688 Eh     change       -0.3251075E-04 Eh
   gradient norm :     0.0074027 Eh/α   predicted    -0.6494864E-04 (  99.78%)
   displ. norm   :     0.1482930 α      lambda       -0.1333656E-03
   maximum displ.:     0.0787117 α      in ANC's #20, #39, #34, ...

........................................................................
.............................. CYCLE   49 ..............................
........................................................................
   1   -460.8312558 -0.460831E+03  0.113E-03    0.89       0.0  T
   2   -460.8312560 -0.175813E-06  0.550E-04    0.89      11.4  T
   3   -460.8312560 -0.393653E-07  0.319E-04    0.89      19.6  T
   4   -460.8312560  0.918379E-08  0.161E-04    0.89      38.9  T
   5   -460.8312560 -0.953986E-08  0.862E-05    0.89      72.8  T
     SCC iter.                  ...        0 min,  1.255 sec
     gradient                   ...        0 min,  0.556 sec
 * total energy  :  -452.6565246 Eh     change       -0.5577274E-04 Eh
   gradient norm :     0.0043256 Eh/α   predicted    -0.6814938E-04 (  22.19%)
   displ. norm   :     0.1899323 α      lambda       -0.1519131E-03
   maximum displ.:     0.1004966 α      in ANC's #20, #39, #37, ...

........................................................................
.............................. CYCLE   50 ..............................
........................................................................
   1   -460.8308594 -0.460831E+03  0.167E-03    0.89       0.0  T
   2   -460.8308596 -0.229725E-06  0.809E-04    0.89       7.8  T
   3   -460.8308597 -0.597705E-07  0.551E-04    0.89      11.4  T
   4   -460.8308596  0.185291E-07  0.254E-04    0.89      24.7  T
   5   -460.8308597 -0.315282E-07  0.130E-04    0.89      48.3  T
   6   -460.8308597 -0.164879E-07  0.207E-05    0.89     303.0  T
     SCC iter.                  ...        0 min,  1.502 sec
     gradient                   ...        0 min,  0.557 sec
 * total energy  :  -452.6565376 Eh     change       -0.1303944E-04 Eh
   gradient norm :     0.0059266 Eh/α   predicted    -0.7869830E-04 ( 503.54%)
   displ. norm   :     0.1145455 α      lambda       -0.1486867E-03
   maximum displ.:     0.0635251 α      in ANC's #20, #39, #32, ...

........................................................................
.............................. CYCLE   51 ..............................
........................................................................
   1   -460.8311013 -0.460831E+03  0.781E-04    0.89       0.0  T
   2   -460.8311015 -0.163249E-06  0.381E-04    0.89      16.5  T
   3   -460.8311015 -0.354996E-07  0.181E-04    0.89      34.7  T
   4   -460.8311015 -0.394539E-08  0.141E-04    0.89      44.5  T
     SCC iter.                  ...        0 min,  1.005 sec
     gradient                   ...        0 min,  0.555 sec
 * total energy  :  -452.6566012 Eh     change       -0.6358062E-04 Eh
   gradient norm :     0.0044170 Eh/α   predicted    -0.7532016E-04 (  18.46%)
   displ. norm   :     0.1152158 α      lambda       -0.9586729E-04
   maximum displ.:     0.0624392 α      in ANC's #20, #39, #33, ...

........................................................................
.............................. CYCLE   52 ..............................
........................................................................
   1   -460.8319318 -0.460832E+03  0.133E-03    0.89       0.0  T
   2   -460.8319320 -0.212291E-06  0.633E-04    0.89       9.9  T
   3   -460.8319320 -0.455054E-07  0.406E-04    0.89      15.5  T
   4   -460.8319320  0.129378E-07  0.196E-04    0.89      32.0  T
   5   -460.8319320 -0.158907E-07  0.104E-04    0.89      60.1  T
     SCC iter.                  ...        0 min,  1.239 sec
     gradient                   ...        0 min,  0.546 sec
 * total energy  :  -452.6566131 Eh     change       -0.1196273E-04 Eh
   gradient norm :     0.0029757 Eh/α   predicted    -0.4857016E-04 ( 306.01%)
   displ. norm   :     0.0901778 α      lambda       -0.7343051E-04
   maximum displ.:     0.0511957 α      in ANC's #20, #39, #32, ...

........................................................................
.............................. CYCLE   53 ..............................
........................................................................
   1   -460.8328167 -0.460833E+03  0.604E-04    0.89       0.0  T
   2   -460.8328168 -0.839678E-07  0.257E-04    0.89      24.4  T
   3   -460.8328168 -0.118634E-07  0.139E-04    0.89      45.1  T
   4   -460.8328168 -0.429281E-09  0.106E-04    0.89      58.9  T
     SCC iter.                  ...        0 min,  0.986 sec
     gradient                   ...        0 min,  0.554 sec
 * total energy  :  -452.6566479 Eh     change       -0.3473687E-04 Eh
   gradient norm :     0.0029070 Eh/α   predicted    -0.3701508E-04 (   6.56%)
   displ. norm   :     0.1151418 α      lambda       -0.5908036E-04
   maximum displ.:     0.0681121 α      in ANC's #20, #39, #32, ...

........................................................................
.............................. CYCLE   54 ..............................
........................................................................
   1   -460.8330334 -0.460833E+03  0.884E-04    0.89       0.0  T
   2   -460.8330335 -0.970638E-07  0.440E-04    0.89      14.3  T
   3   -460.8330335 -0.247929E-07  0.279E-04    0.89      22.4  T
   4   -460.8330335  0.355669E-09  0.195E-04    0.89      32.2  T
   5   -460.8330336 -0.212154E-07  0.645E-05    0.89      97.3  T
     SCC iter.                  ...        0 min,  1.249 sec
     gradient                   ...        0 min,  0.555 sec
 * total energy  :  -452.6566358 Eh     change        0.1209169E-04 Eh
   gradient norm :     0.0030160 Eh/α   predicted    -0.2993633E-04 (-347.58%)
   displ. norm   :     0.0576772 α      lambda       -0.7923245E-04
   maximum displ.:     0.0300622 α      in ANC's #20, #39, #59, ...

........................................................................
.............................. CYCLE   55 ..............................
........................................................................
   1   -460.8331470 -0.460833E+03  0.477E-04    0.89       0.0  T
   2   -460.8331471 -0.562575E-07  0.211E-04    0.89      29.8  T
   3   -460.8331471 -0.774963E-08  0.114E-04    0.89      55.0  T
   4   -460.8331471  0.252976E-08  0.844E-05    0.89      74.4  T
     SCC iter.                  ...        0 min,  1.003 sec
     gradient                   ...        0 min,  0.554 sec
 * total energy  :  -452.6566749 Eh     change       -0.3908014E-04 Eh
   gradient norm :     0.0025674 Eh/α   predicted    -0.3974409E-04 (   1.70%)
   displ. norm   :     0.0674357 α      lambda       -0.3383738E-04
   maximum displ.:     0.0418735 α      in ANC's #20, #39, #32, ...

........................................................................
.............................. CYCLE   56 ..............................
........................................................................
   1   -460.8336105 -0.460834E+03  0.766E-04    0.89       0.0  T
   2   -460.8336105 -0.892254E-07  0.362E-04    0.89      17.3  T
   3   -460.8336106 -0.177861E-07  0.222E-04    0.89      28.3  T
   4   -460.8336106  0.561039E-08  0.132E-04    0.89      47.4  T
   5   -460.8336106 -0.890179E-08  0.574E-05    0.89     109.3  T
     SCC iter.                  ...        0 min,  1.251 sec
     gradient                   ...        0 min,  0.556 sec
 * total energy  :  -452.6566772 Eh     change       -0.2296250E-05 Eh
   gradient norm :     0.0018974 Eh/α   predicted    -0.1699933E-04 ( 640.31%)
   displ. norm   :     0.0867296 α      lambda       -0.3835886E-04
   maximum displ.:     0.0553754 α      in ANC's #20, #39, #35, ...

........................................................................
.............................. CYCLE   57 ..............................
........................................................................
   1   -460.8344248 -0.460834E+03  0.570E-04    0.89       0.0  T
   2   -460.8344248 -0.311547E-07  0.290E-04    0.89      21.6  T
   3   -460.8344248 -0.872711E-08  0.197E-04    0.89      31.8  T
   4   -460.8344248  0.234309E-09  0.131E-04    0.89      48.1  T
     SCC iter.                  ...        0 min,  1.005 sec
     gradient                   ...        0 min,  0.554 sec
 * total energy  :  -452.6566793 Eh     change       -0.2164909E-05 Eh
   gradient norm :     0.0036536 Eh/α   predicted    -0.1924719E-04 ( 789.05%)
   displ. norm   :     0.0556543 α      lambda       -0.5006043E-04
   maximum displ.:     0.0327260 α      in ANC's #20, #39, #22, ...

........................................................................
.............................. CYCLE   58 ..............................
........................................................................
[...]
     2   6 C        3   6 C                                       1.3895628
     3   6 C        4   6 C                                       1.4362078
     4   6 C        5   6 C                                       1.3562977
     5   6 C        6   6 C                                       1.4393393
     3   6 C        7   7 N                                       1.3655577
     6   6 C        7   7 N                                       1.3637664
     6   6 C        8   6 C                                       1.4006105
     9   6 C       10   6 C                                       1.3969171
    10   6 C       11   6 C                                       1.3833081
    11   6 C       12   6 C                                       1.3981006
    13   6 C       14   7 N                                       1.1508612
    12   6 C       15   6 C                                       1.3981140
     9   6 C       16   6 C                                       1.3969212
    15   6 C       16   6 C                                       1.3832903
     8   6 C       17   6 C                                       1.3992686
    17   6 C       18   6 C                                       1.4370405
    18   6 C       19   6 C                                       1.3573511
    17   6 C       20   7 N                                       1.3693210
    19   6 C       21   6 C                                       1.4334860
    20   7 N       21   6 C                                       1.3598283
    21   6 C       22   6 C                                       1.4099011
    22   6 C       23   6 C                                       1.4097842
    23   6 C       24   6 C                                       1.4334426
    24   6 C       25   6 C                                       1.3574067
    25   6 C       26   6 C                                       1.4370937
    23   6 C       27   7 N                                       1.3598509
    26   6 C       27   7 N                                       1.3693437
    26   6 C       28   6 C                                       1.3993332
    29   6 C       30   6 C                                       1.3969967
    30   6 C       31   6 C                                       1.3832744
    31   6 C       32   6 C                                       1.3981080
    33   6 C       34   7 N                                       1.1509959
    32   6 C       35   6 C                                       1.3981020
    29   6 C       36   6 C                                       1.3969085
    35   6 C       36   6 C                                       1.3833135
    28   6 C       37   6 C                                       1.4007362
    37   6 C       38   6 C                                       1.4393732
    38   6 C       39   6 C                                       1.3562930
     2   6 C       40   6 C                                       1.3895615
    39   6 C       40   6 C                                       1.4361781
    37   6 C       41   7 N                                       1.3637479
    40   6 C       41   7 N                                       1.3656013
     2   6 C       42   1 H                                       1.0856036
     4   6 C       43   1 H                                       1.0787143
     5   6 C       44   1 H                                       1.0782447
    10   6 C       45   1 H                                       1.0842149
    11   6 C       46   1 H                                       1.0837537
    15   6 C       47   1 H                                       1.0837467
    16   6 C       48   1 H                                       1.0842149
    18   6 C       49   1 H                                       1.0780875
    19   6 C       50   1 H                                       1.0783364
    24   6 C       51   1 H                                       1.0783613
    25   6 C       52   1 H                                       1.0780948
    30   6 C       53   1 H                                       1.0842197
    31   6 C       54   1 H                                       1.0837566
    35   6 C       55   1 H                                       1.0837454
    36   6 C       56   1 H                                       1.0842076
    38   6 C       57   1 H                                       1.0782407
    39   6 C       58   1 H                                       1.0787138
    60   6 C       61   6 C                                       1.3895382
    61   6 C       62   6 C                                       1.4362135
    62   6 C       63   6 C                                       1.3562729
    63   6 C       64   6 C                                       1.4393780
    61   6 C       65   7 N                                       1.3655647
    64   6 C       65   7 N                                       1.3637522
    64   6 C       66   6 C                                       1.4006023
    67   6 C       68   6 C                                       1.3969445
    68   6 C       69   6 C                                       1.3833003
    69   6 C       70   6 C                                       1.3981234
    71   6 C       72   7 N                                       1.1508233
    70   6 C       73   6 C                                       1.3980973
    67   6 C       74   6 C                                       1.3968866
    73   6 C       74   6 C                                       1.3833051
    66   6 C       75   6 C                                       1.3992776
    75   6 C       76   6 C                                       1.4370872
    76   6 C       77   6 C                                       1.3573254
    75   6 C       78   7 N                                       1.3692534
    77   6 C       79   6 C                                       1.4335427
    78   7 N       79   6 C                                       1.3599419
    79   6 C       80   6 C                                       1.4096756
    80   6 C       81   6 C                                       1.4096170
    81   6 C       82   6 C                                       1.4335072
    82   6 C       83   6 C                                       1.3573618
    83   6 C       84   6 C                                       1.4371207
    81   6 C       85   7 N                                       1.3599471
    84   6 C       85   7 N                                       1.3692910
    84   6 C       86   6 C                                       1.3993384
    87   6 C       88   6 C                                       1.3970128
    88   6 C       89   6 C                                       1.3832645
    89   6 C       90   6 C                                       1.3981158
    91   6 C       92   7 N                                       1.1508437
    90   6 C       93   6 C                                       1.3981048
    87   6 C       94   6 C                                       1.3968848
    93   6 C       94   6 C                                       1.3833272
    86   6 C       95   6 C                                       1.4007049
    95   6 C       96   6 C                                       1.4394013 (max)
    96   6 C       97   6 C                                       1.3562741
    60   6 C       98   6 C                                       1.3895406
    97   6 C       98   6 C                                       1.4361895
    95   6 C       99   7 N                                       1.3637339
    98   6 C       99   7 N                                       1.3655926
    60   6 C      100   1 H                                       1.0856016
    62   6 C      101   1 H                                       1.0787135
    63   6 C      102   1 H                                       1.0782425
    68   6 C      103   1 H                                       1.0842206
    69   6 C      104   1 H                                       1.0837561
    73   6 C      105   1 H                                       1.0837457
    74   6 C      106   1 H                                       1.0842087
    76   6 C      107   1 H                                       1.0780946
    77   6 C      108   1 H                                       1.0783454
    82   6 C      109   1 H                                       1.0783603
    83   6 C      110   1 H                                       1.0780955
    88   6 C      111   1 H                                       1.0842243
    89   6 C      112   1 H                                       1.0837585
    93   6 C      113   1 H                                       1.0837436
    94   6 C      114   1 H                                       1.0842038
    96   6 C      115   1 H                                       1.0782398
    97   6 C      116   1 H                                       1.0787133
   117   6 C      118   6 C                                       1.2249353
   119   6 C      120   6 C                                       1.2310057
   121   6 C      122   6 C                                       1.2311412
   123   6 C      124   6 C                                       1.2251289
   125   6 C      126   6 C                                       1.2252721
   127   6 C      128   6 C                                       1.2312601
   129   6 C      130   6 C                                       1.2312544
   131   6 C      132   6 C                                       1.2252568
   133   6 C      134   6 C                                       1.2249807
   135   6 C      136   6 C                                       1.2309089
   137   6 C      138   6 C                                       1.2308990
   139   6 C      140   6 C                                       1.2248202
   142   6 C      143   6 C                                       1.4100124
   143   6 C      144   6 C                                       1.4328404
   144   6 C      145   6 C                                       1.3577072
   145   6 C      146   6 C                                       1.4362546
   143   6 C      147   7 N                                       1.3598560
   146   6 C      147   7 N                                       1.3690027
   146   6 C      148   6 C                                       1.3994690
   149   6 C      150   6 C                                       1.3968286
   150   6 C      151   6 C                                       1.3833017
   151   6 C      152   6 C                                       1.3980736
   153   6 C      154   7 N                                       1.1508196
   152   6 C      155   6 C                                       1.3980687
   149   6 C      156   6 C                                       1.3967596
   155   6 C      156   6 C                                       1.3833553
   148   6 C      157   6 C                                       1.3992614
   157   6 C      158   6 C                                       1.4362763
   158   6 C      159   6 C                                       1.3576859
   157   6 C      160   7 N                                       1.3692352
   159   6 C      161   6 C                                       1.4329134
   160   7 N      161   6 C                                       1.3597693
   161   6 C      162   6 C                                       1.4101825
   162   6 C      163   6 C                                       1.4101435
   163   6 C      164   6 C                                       1.4328741
   164   6 C      165   6 C                                       1.3577112
   165   6 C      166   6 C                                       1.4362987
   163   6 C      167   7 N                                       1.3597996
   166   6 C      167   7 N                                       1.3692185
   166   6 C      168   6 C                                       1.3993583
   169   6 C      170   6 C                                       1.3968205
   170   6 C      171   6 C                                       1.3833489
   171   6 C      172   6 C                                       1.3980761
   173   6 C      174   7 N                                       1.1508089
   172   6 C      175   6 C                                       1.3980696
   169   6 C      176   6 C                                       1.3968355
   175   6 C      176   6 C                                       1.3833014
   168   6 C      177   6 C                                       1.3995354
   177   6 C      178   6 C                                       1.4362809
   178   6 C      179   6 C                                       1.3577252
   142   6 C      180   6 C                                       1.4100016
   179   6 C      180   6 C                                       1.4328081
   177   6 C      181   7 N                                       1.3690485
   180   6 C      181   7 N                                       1.3598859
   144   6 C      182   1 H                                       1.0783144
   145   6 C      183   1 H                                       1.0780464
   150   6 C      184   1 H                                       1.0842027
   151   6 C      185   1 H                                       1.0837336
   155   6 C      186   1 H                                       1.0837302
   156   6 C      187   1 H                                       1.0841947
   158   6 C      188   1 H                                       1.0780500
   159   6 C      189   1 H                                       1.0783151
   164   6 C      190   1 H                                       1.0783235
   165   6 C      191   1 H                                       1.0780540
   170   6 C      192   1 H                                       1.0842003
   171   6 C      193   1 H                                       1.0837354
   175   6 C      194   1 H                                       1.0837310
   176   6 C      195   1 H                                       1.0841978
   178   6 C      196   1 H                                       1.0780433 (min)
   179   6 C      197   1 H                                       1.0783232
   199   6 C      200   6 C                                       1.4101077
   200   6 C      201   6 C                                       1.4329196
   201   6 C      202   6 C                                       1.3576831
   202   6 C      203   6 C                                       1.4363166
   200   6 C      204   7 N                                       1.3598075
   203   6 C      204   7 N                                       1.3691911
   203   6 C      205   6 C                                       1.3992853
   206   6 C      207   6 C                                       1.3967968
   207   6 C      208   6 C                                       1.3833162
   208   6 C      209   6 C                                       1.3980611
   210   6 C      211   7 N                                       1.1508010
   209   6 C      212   6 C                                       1.3980821
   206   6 C      213   6 C                                       1.3967918
   212   6 C      213   6 C                                       1.3833524
   205   6 C      214   6 C                                       1.3994936
   214   6 C      215   6 C                                       1.4363263
   215   6 C      216   6 C                                       1.3576621
   214   6 C      217   7 N                                       1.3689736
   216   6 C      218   6 C                                       1.4328936
   217   7 N      218   6 C                                       1.3599692
   218   6 C      219   6 C                                       1.4098070
   219   6 C      220   6 C                                       1.4098010
   220   6 C      221   6 C                                       1.4328728
   221   6 C      222   6 C                                       1.3576740
   222   6 C      223   6 C                                       1.4363178
   220   6 C      224   7 N                                       1.3599735
   223   6 C      224   7 N                                       1.3689517
   223   6 C      225   6 C                                       1.3995270
   226   6 C      227   6 C                                       1.3968061
   227   6 C      228   6 C                                       1.3833335
   228   6 C      229   6 C                                       1.3980787
   230   6 C      231   7 N                                       1.1507242
   229   6 C      232   6 C                                       1.3980750
   226   6 C      233   6 C                                       1.3968267
   232   6 C      233   6 C                                       1.3833184
   225   6 C      234   6 C                                       1.3992965
   234   6 C      235   6 C                                       1.4363118
   235   6 C      236   6 C                                       1.3576715
   199   6 C      237   6 C                                       1.4101600
   236   6 C      237   6 C                                       1.4329115
   234   6 C      238   7 N                                       1.3692196
   237   6 C      238   7 N                                       1.3597873
   201   6 C      239   1 H                                       1.0783228
   202   6 C      240   1 H                                       1.0780574
   207   6 C      241   1 H                                       1.0841994
   208   6 C      242   1 H                                       1.0837314
   212   6 C      243   1 H                                       1.0837349
   213   6 C      244   1 H                                       1.0841975
   215   6 C      245   1 H                                       1.0780440
   216   6 C      246   1 H                                       1.0783198
   221   6 C      247   1 H                                       1.0783198
   222   6 C      248   1 H                                       1.0780447
   227   6 C      249   1 H                                       1.0841982
   228   6 C      250   1 H                                       1.0837330
   232   6 C      251   1 H                                       1.0837302
   233   6 C      252   1 H                                       1.0841995
   235   6 C      253   1 H                                       1.0780481
   236   6 C      254   1 H                                       1.0783158

 * 3 distinct bonds (by element types)

   Z      Z             #   av. dist./Å        max./Å        min./Å
   1 H    6 C          66     1.0812563     1.0856036     1.0780433
   6 C    6 C         140     1.3865420     1.4394013     1.2248202
   6 C    7 N          40     1.3218115     1.3693437     1.1507242


optimized geometry written to: xtbopt.xyz


           -------------------------------------------------
          | TOTAL ENERGY             -452.656804108853 Eh   |
          | GRADIENT NORM               0.000932649627 Eh/α |
          | HOMO-LUMO GAP               0.890588571372 eV   |
           -------------------------------------------------

------------------------------------------------------------------------
 * finished run on 2022/07/30 at 16:41:22.859     
------------------------------------------------------------------------
 total:
 * wall-time:     0 d,  0 h,  3 min, 39.528 sec
 *  cpu-time:     0 d,  0 h,  3 min, 38.553 sec
 * ratio c/w:     0.996 speedup
 SCF:
 * wall-time:     0 d,  0 h,  0 min,  9.933 sec
 *  cpu-time:     0 d,  0 h,  0 min,  9.888 sec
 * ratio c/w:     0.995 speedup
 ANC optimizer:
 * wall-time:     0 d,  0 h,  3 min, 29.345 sec
 *  cpu-time:     0 d,  0 h,  3 min, 28.420 sec
 * ratio c/w:     0.996 speedup

