      -----------------------------------------------------------      
     |                   =====================                   |     
     |                           x T B                           |     
     |                   =====================                   |     
     |                         S. Grimme                         |     
     |          Mulliken Center for Theoretical Chemistry        |     
     |                    University of Bonn                     |     
      -----------------------------------------------------------      

   * xtb version 6.5.1 (b24c23e) compiled by 'conda@728c89f4b128' on 2022-07-12

   xtb is free software: you can redistribute it and/or modify it under
   the terms of the GNU Lesser General Public License as published by
   the Free Software Foundation, either version 3 of the License, or
   (at your option) any later version.
   
   xtb is distributed in the hope that it will be useful,
   but WITHOUT ANY WARRANTY; without even the implied warranty of
   MERCHANTABILITY or FITNESS FOR A PARTICULAR PURPOSE.  See the
   GNU Lesser General Public License for more details.
   
   Cite this work as:
   * C. Bannwarth, E. Caldeweyher, S. Ehlert, A. Hansen, P. Pracht,
     J. Seibert, S. Spicher, S. Grimme, WIREs Comput. Mol. Sci., 2020, 11,
     e01493. DOI: 10.1002/wcms.1493
   
   for GFN2-xTB:
   * C. Bannwarth, S. Ehlert and S. Grimme., J. Chem. Theory Comput., 2019,
     15, 1652-1671. DOI: 10.1021/acs.jctc.8b01176
   for GFN1-xTB:
   * S. Grimme, C. Bannwarth, P. Shushkov, J. Chem. Theory Comput., 2017,
     13, 1989-2009. DOI: 10.1021/acs.jctc.7b00118
   for GFN0-xTB:
   * P. Pracht, E. Caldeweyher, S. Ehlert, S. Grimme, ChemRxiv, 2019, preprint.
     DOI: 10.26434/chemrxiv.8326202.v1
   for GFN-FF:
   * S. Spicher and S. Grimme, Angew. Chem. Int. Ed., 2020, 59, 15665-15673.
     DOI: 10.1002/anie.202004239
   
   for ALPB and GBSA implicit solvation:
   * S. Ehlert, M. Stahn, S. Spicher, S. Grimme, J. Chem. Theory Comput.,
     2021, 17, 4250-4261. DOI: 10.1021/acs.jctc.1c00471
   
   for DFT-D4:
   * E. Caldeweyher, C. Bannwarth and S. Grimme, J. Chem. Phys., 2017,
     147, 034112. DOI: 10.1063/1.4993215
   * E. Caldeweyher, S. Ehlert, A. Hansen, H. Neugebauer, S. Spicher,
     C. Bannwarth and S. Grimme, J. Chem. Phys., 2019, 150, 154122.
     DOI: 10.1063/1.5090222
   * E. Caldeweyher, J.-M. Mewes, S. Ehlert and S. Grimme, Phys. Chem. Chem. Phys.
     2020, 22, 8499-8512. DOI: 10.1039/D0CP00502A
   
   for sTDA-xTB:
   * S. Grimme and C. Bannwarth, J. Chem. Phys., 2016, 145, 054103.
     DOI: 10.1063/1.4959605
   
   in the mass-spec context:
   * V. Asgeirsson, C. Bauer and S. Grimme, Chem. Sci., 2017, 8, 4879.
     DOI: 10.1039/c7sc00601b
   * J. Koopman and S. Grimme, ACS Omega 2019, 4, 12, 15120-15133.
     DOI: 10.1021/acsomega.9b02011
   
   for metadynamics refer to:
   * S. Grimme, J. Chem. Theory Comput., 2019, 155, 2847-2862
     DOI: 10.1021/acs.jctc.9b00143
   
   for SPH calculations refer to:
   * S. Spicher and S. Grimme, J. Chem. Theory Comput., 2021, 17, 1701-1714
     DOI: 10.1021/acs.jctc.0c01306
   
   with help from (in alphabetical order)
   P. Atkinson, C. Bannwarth, F. Bohle, G. Brandenburg, E. Caldeweyher
   M. Checinski, S. Dohm, S. Ehlert, S. Ehrlich, I. Gerasimov, C. Hölzer
   A. Katbashev, J. Koopman, C. Lavigne, S. Lehtola, F. März, M. Müller,
   F. Musil, H. Neugebauer, J. Pisarek, C. Plett, P. Pracht, F. Pultar,
   J. Seibert, P. Shushkov, S. Spicher, M. Stahn, M. Steiner, T. Strunk,
   J. Stückrath, T. Rose, and J. Unsleber
   
 * started run on 2022/07/28 at 20:32:53.383     

           -------------------------------------------------
          |                Calculation Setup                |
           -------------------------------------------------

          program call               : xtb xtbopt.xyz --gfn 1 --vipea
          hostname                   : cx3-14-14.cx3.hpc.ic.ac.uk
          coordinate file            : xtbopt.xyz
          omp threads                :                     1

   ID    Z sym.   atoms
    1    6 C      1-5, 7-12, 14-18, 20-25, 27-32, 34-39, 60-64, 66-71, 73-77,
                  79-84, 86-91, 93-98, 119-141, 143-148, 150-154, 156-161,
                  163-168, 170-175, 195-199, 201-206, 208-212, 214-219,
                  221-226, 228-233, 253-257, 259-264, 266-270, 272-277,
                  279-284, 286-291, 311-315, 317-322, 324-328, 330-335,
                  337-342, 344-349, 369-373, 375-380, 382-386, 388-393,
                  395-400, 402-407, 427-431, 433-438, 440-444, 446-451,
                  453-458, 460-465, 485-489, 491-496, 498-502, 504-509,
                  511-516, 518-523, 543-547, 549-554, 556-560, 562-567,
                  569-574, 576-581
    2    7 N      6, 13, 19, 26, 33, 40, 65, 72, 78, 85, 92, 99, 142, 149,
                  155, 162, 169, 176, 200, 207, 213, 220, 227, 234, 258, 265,
                  271, 278, 285, 292, 316, 323, 329, 336, 343, 350, 374, 381,
                  387, 394, 401, 408, 432, 439, 445, 452, 459, 466, 490, 497,
                  503, 510, 517, 524, 548, 555, 561, 568, 575, 582
    3    1 H      41-59, 100-118, 177-194, 235-252, 293-310, 351-368,
                  409-426, 467-484, 525-542, 583-600

           -------------------------------------------------
          |                 I P E A - x T B                 |
           -------------------------------------------------

        Reference                      10.1039/c7sc00601b
      * Hamiltonian:
        H0-scaling (s, p, d)           2.150000    2.300000    2.000000
        zeta-weighting                 0.000000
      * Dispersion:
        s8                             2.400000
        a1                             0.630000
        a2                             5.000000
        s9                             0.000000
      * Repulsion:
        kExp                           1.500000
        rExp                           1.000000
      * Coulomb:
        alpha                          1.000000
        third order                    atomic
        anisotropic                    false
      * Halogen bond correction:
        rad-scale                      1.300000
        damping                        0.440000


          ...................................................
          :                      SETUP                      :
          :.................................................:
          :  # basis functions                2454          :
          :  # atomic orbitals                2454          :
          :  # shells                         1618          :
          :  # electrons                      1914          :
          :  # halogen bonds                     0          :
          :  max. iterations                   250          :
          :  Hamiltonian                  GFN1-xTB          :
          :  restarted?                      false          :
          :  GBSA solvation                  false          :
          :  PC potential                    false          :
          :  electronic temp.          300.0000000     K    :
          :  accuracy                    1.0000000          :
          :  -> integral cutoff          0.2500000E+02      :
          :  -> integral neglect         0.1000000E-07      :
          :  -> SCF convergence          0.1000000E-05 Eh   :
          :  -> wf. convergence          0.2000000E-04 e    :
          :  Broyden damping             0.4000000          :
          ...................................................

 iter      E             dE          RMSdq      gap      omega  full diag
   1  -1212.2257394 -0.121223E+04  0.103E+01    0.41       0.0  T
   2  -1212.5782273 -0.352488E+00  0.643E+00    1.02       1.0  T
   3  -1190.1040008  0.224742E+02  0.517E+00    0.07       1.0  T
   4  -1216.0042859 -0.259003E+02  0.120E+00    0.71       1.0  T
   5  -1217.6211560 -0.161687E+01  0.450E-01    0.76       1.0  T
   6  -1217.8767828 -0.255627E+00  0.114E-01    0.79       1.0  T
   7  -1217.8904390 -0.136562E-01  0.469E-02    0.78       1.0  T
   8  -1217.8920938 -0.165473E-02  0.300E-02    0.78       1.0  T
   9  -1217.8924729 -0.379171E-03  0.168E-02    0.78       1.0  T
  10  -1217.8927300 -0.257102E-03  0.328E-03    0.78       1.2  T
  11  -1217.8927392 -0.916571E-05  0.177E-03    0.78       2.3  T
  12  -1217.8927420 -0.279304E-05  0.887E-04    0.78       4.6  T
  13  -1217.8927429 -0.851524E-06  0.423E-04    0.78       9.6  T
  14  -1217.8927430 -0.157667E-06  0.164E-04    0.78      24.9  T
  15  -1217.8927430 -0.268692E-07  0.794E-05    0.78      51.4  T

   *** convergence criteria satisfied after 15 iterations ***

         #    Occupation            Energy/Eh            Energy/eV
      -------------------------------------------------------------
         1        2.0000           -1.0538412             -28.6765
       ...           ...                  ...                  ...
       951        2.0000           -0.3885888             -10.5740
       952        2.0000           -0.3852709             -10.4838
       953        2.0000           -0.3815737             -10.3831
       954        2.0000           -0.3777818             -10.2800
       955        2.0000           -0.3742872             -10.1849
       956        2.0000           -0.3712671             -10.1027
       957        2.0000           -0.3691050             -10.0439 (HOMO)
       958        0.0000           -0.3402912              -9.2598 (LUMO)
       959                         -0.3368861              -9.1671
       960                         -0.3331426              -9.0653
       961                         -0.3296380              -8.9699
       962                         -0.3273568              -8.9078
       ...                                ...                  ...
      2454                        578.2549242           15735.1174
      -------------------------------------------------------------
                  HL-Gap            0.0288138 Eh            0.7841 eV
             Fermi-level           -0.3546631 Eh           -9.6509 eV

 SCC (total)                   0 d,  0 h,  2 min, 23.559 sec
 SCC setup                      ...        0 min,  0.077 sec (  0.053%)
 Dispersion                     ...        0 min,  0.071 sec (  0.049%)
 classical contributions        ...        0 min,  0.016 sec (  0.011%)
 integral evaluation            ...        0 min,  4.586 sec (  3.195%)
 iterations                     ...        2 min,  8.535 sec ( 89.535%)
 molecular gradient             ...        0 min,  8.850 sec (  6.164%)
 printout                       ...        0 min,  1.425 sec (  0.992%)

         :::::::::::::::::::::::::::::::::::::::::::::::::::::
         ::                     SUMMARY                     ::
         :::::::::::::::::::::::::::::::::::::::::::::::::::::
         :: total energy           -1192.432295576265 Eh    ::
         :: gradient norm              0.143458471512 Eh/a0 ::
         :: HOMO-LUMO gap              0.784063024428 eV    ::
         ::.................................................::
         :: SCC energy             -1217.892743041743 Eh    ::
         :: -> electrostatic           0.921812155610 Eh    ::
         :: repulsion energy          25.970283604799 Eh    ::
         :: dispersion energy         -0.509836139321 Eh    ::
         :: halogen bond corr.         0.000000000000 Eh    ::
         :: add. restraining           0.000000000000 Eh    ::
         :: total charge               0.000000000028 e     ::
         :::::::::::::::::::::::::::::::::::::::::::::::::::::

           ------------------------------------------------- 
          |        vertical delta SCC IP calculation        |
           ------------------------------------------------- 
   1  -1217.5071554 -0.121751E+04  0.338E-02    0.78       0.0  T
   2  -1217.5056296  0.152574E-02  0.380E-02    0.73       1.0  T
   3  -1217.5092755 -0.364587E-02  0.206E-02    0.78       1.0  T
   4  -1217.5090709  0.204536E-03  0.188E-02    0.76       1.0  T
   5  -1217.5095553 -0.484388E-03  0.147E-02    0.76       1.0  T
   6  -1217.5103643 -0.809003E-03  0.725E-03    0.77       1.0  T
   7  -1217.5105341 -0.169807E-03  0.357E-03    0.77       1.1  T
   8  -1217.5105598 -0.256246E-04  0.122E-03    0.77       3.3  T
   9  -1217.5105619 -0.212594E-05  0.606E-04    0.77       6.7  T
  10  -1217.5105624 -0.475816E-06  0.243E-04    0.77      16.8  T
  11  -1217.5105625 -0.116562E-06  0.107E-04    0.77      38.3  T
  12  -1217.5105625 -0.156936E-07  0.457E-05    0.77      89.4  T
     SCC iter.                  ...        1 min, 42.091 sec
     gradient                   ...        0 min,  8.812 sec
------------------------------------------------------------------------
empirical IP shift (eV):    4.8455
delta SCC IP (eV):    5.5542
------------------------------------------------------------------------
           ------------------------------------------------- 
          |        vertical delta SCC EA calculation        |
           ------------------------------------------------- 
   1  -1218.2049850 -0.121820E+04  0.608E-02    0.10       0.0  T
   2  -1218.2066758 -0.169073E-02  0.666E-02    0.02       1.0  T
   3  -1218.2165123 -0.983652E-02  0.320E-02    0.07       1.0  T
   4  -1218.2149518  0.156043E-02  0.315E-02    0.06       1.0  T
   5  -1218.2125026  0.244922E-02  0.317E-02    0.08       1.0  T
   6  -1218.2171098 -0.460722E-02  0.166E-02    0.06       1.0  T
   7  -1218.2182604 -0.115056E-02  0.622E-03    0.05       1.0  T
   8  -1218.2183113 -0.509020E-04  0.321E-03    0.05       1.3  T
   9  -1218.2183223 -0.110053E-04  0.146E-03    0.05       2.8  T
  10  -1218.2183249 -0.258614E-05  0.614E-04    0.05       6.6  T
  11  -1218.2183253 -0.450211E-06  0.253E-04    0.05      16.2  T
  12  -1218.2183254 -0.695295E-07  0.110E-04    0.05      37.1  T
  13  -1218.2183254 -0.124951E-07  0.542E-05    0.05      75.3  T
     SCC iter.                  ...        1 min, 55.267 sec
     gradient                   ...        0 min,  8.768 sec
------------------------------------------------------------------------
empirical EA shift (eV):    4.8455
delta SCC EA (eV):    4.0140
------------------------------------------------------------------------
           -------------------------------------------------
          |                Property Printout                |
           -------------------------------------------------

    * Orbital Energies and Occupations

         #    Occupation            Energy/Eh            Energy/eV
      -------------------------------------------------------------
         1        2.0000           -1.0294490             -28.0127
       ...           ...                  ...                  ...
       946        2.0000           -0.3712461             -10.1021
       947        2.0000           -0.3710715             -10.0974
       948        2.0000           -0.3677634             -10.0074
       949        2.0000           -0.3672992              -9.9947
       950        2.0000           -0.3652103              -9.9379
       951        2.0000           -0.3623603              -9.8603
       952        2.0000           -0.3588904              -9.7659
       953        2.0000           -0.3551228              -9.6634
       954        2.0000           -0.3513056              -9.5595
       955        2.0000           -0.3475036              -9.4561
       956        2.0000           -0.3436091              -9.3501
       957        2.0000           -0.3400120              -9.2522
       958        0.7064           -0.3107595              -8.4562 (HOMO)
       959        0.2718           -0.3089892              -8.4080 (LUMO)
       960        0.0190           -0.3061770              -8.3315
       961        0.0019           -0.3039803              -8.2717
       962        0.0007           -0.3030348              -8.2460
       963        0.0001           -0.3015295              -8.2050
       964        0.0000           -0.2998368              -8.1590
       965        0.0000           -0.2990272              -8.1369
       966        0.0000           -0.2984277              -8.1206
       967        0.0000           -0.2981100              -8.1120
       968        0.0000           -0.2977021              -8.1009
       969        0.0000           -0.2972626              -8.0889
       ...           ...                  ...                  ...
      2454                        578.2842123           15735.9144
      -------------------------------------------------------------
                  HL-Gap            0.0017703 Eh            0.0482 eV
             Fermi-level           -0.3176863 Eh           -8.6447 eV

  Mulliken/CM5 charges         n(s)   n(p)   n(d)
     1C    -0.01561 -0.05639   1.092  2.923  0.000
     2C     0.06341  0.12363   1.104  2.833  0.000
     3C    -0.03220 -0.07744   1.082  2.951  0.000
     4C    -0.03157 -0.07599   1.079  2.953  0.000
     5C     0.06732  0.13240   1.110  2.823  0.000
     6N    -0.15530 -0.50857   1.314  3.841  0.000
     7C     0.01990  0.02726   1.088  2.893  0.000
     8C    -0.01883 -0.02053   1.080  2.939  0.000
     9C    -0.02547 -0.02792   1.073  2.953  0.000
    10C     0.02947  0.02435   1.089  2.881  0.000
    11C    -0.01700 -0.06369   1.090  2.927  0.000
    12C     0.05423  0.07881   1.129  2.817  0.000
    13N    -0.25639 -0.45150   1.381  3.875  0.000
    14C     0.05484  0.07941   1.129  2.816  0.000
    15C    -0.01574 -0.06244   1.090  2.926  0.000
    16C     0.06370  0.13330   1.129  2.807  0.000
    17C    -0.03626 -0.08172   1.087  2.949  0.000
    18C    -0.03539 -0.08103   1.086  2.950  0.000
    19N    -0.28263 -0.46917   1.295  3.987  0.000
    20C     0.06509  0.13514   1.129  2.806  0.000
    21C     0.02216  0.02936   1.087  2.891  0.000
    22C     0.06695  0.13153   1.108  2.825  0.000
    23C    -0.02973 -0.07435   1.076  2.954  0.000
    24C    -0.03114 -0.07558   1.077  2.955  0.000
    25C     0.06620  0.13071   1.109  2.825  0.000
    26N    -0.15416 -0.50666   1.316  3.838  0.000
    27C     0.01938  0.02680   1.088  2.893  0.000
    28C    -0.01900 -0.02068   1.079  2.940  0.000
    29C    -0.02565 -0.02810   1.073  2.953  0.000
    30C     0.02936  0.02425   1.089  2.881  0.000
    31C    -0.01650 -0.06319   1.090  2.927  0.000
    32C     0.05453  0.07910   1.129  2.817  0.000
    33N    -0.25680 -0.45189   1.381  3.875  0.000
    34C     0.05427  0.07884   1.129  2.817  0.000
    35C    -0.01647 -0.06317   1.090  2.926  0.000
    36C     0.06581  0.13675   1.132  2.802  0.000
    37C    -0.03650 -0.08193   1.090  2.946  0.000
    38C    -0.03721 -0.08355   1.092  2.945  0.000
    39C     0.06073  0.12575   1.125  2.814  0.000
    40N    -0.28424 -0.47118   1.296  3.988  0.000
    41H     0.03421  0.09315   0.966  0.000  0.000
    42H     0.04417  0.10084   0.956  0.000  0.000
    43H     0.03844  0.09638   0.962  0.000  0.000
    44H     0.16775  0.37577   0.832  0.000  0.000
    45H     0.03632  0.09356   0.964  0.000  0.000
    46H     0.03456  0.10047   0.965  0.000  0.000
    47H     0.03586  0.10178   0.964  0.000  0.000
    48H     0.03812  0.09538   0.962  0.000  0.000
    49H     0.02808  0.08605   0.972  0.000  0.000
    50H     0.02416  0.08245   0.976  0.000  0.000
    51H     0.03412  0.09245   0.966  0.000  0.000
    52H     0.03831  0.09632   0.962  0.000  0.000
    53H     0.16549  0.37351   0.835  0.000  0.000
    54H     0.03751  0.09476   0.962  0.000  0.000
    55H     0.03538  0.10129   0.965  0.000  0.000
    56H     0.03451  0.10042   0.965  0.000  0.000
    57H     0.03676  0.09401   0.963  0.000  0.000
    58H     0.02848  0.08635   0.972  0.000  0.000
    59H     0.03415  0.09058   0.966  0.000  0.000
    60C    -0.01568 -0.05646   1.092  2.924  0.000
    61C     0.06337  0.12359   1.104  2.833  0.000
    62C    -0.03227 -0.07752   1.082  2.951  0.000
    63C    -0.03163 -0.07604   1.079  2.953  0.000
    64C     0.06726  0.13235   1.110  2.823  0.000
    65N    -0.15532 -0.50860   1.314  3.841  0.000
    66C     0.01993  0.02729   1.088  2.892  0.000
    67C    -0.01876 -0.02046   1.080  2.939  0.000
    68C    -0.02553 -0.02798   1.073  2.953  0.000
    69C     0.02947  0.02436   1.089  2.881  0.000
    70C    -0.01702 -0.06371   1.090  2.927  0.000
    71C     0.05422  0.07880   1.129  2.817  0.000
    72N    -0.25641 -0.45152   1.381  3.875  0.000
    73C     0.05483  0.07941   1.129  2.816  0.000
    74C    -0.01574 -0.06244   1.090  2.926  0.000
    75C     0.06357  0.13313   1.129  2.808  0.000
    76C    -0.03632 -0.08180   1.087  2.949  0.000
    77C    -0.03543 -0.08112   1.085  2.950  0.000
    78N    -0.28264 -0.46916   1.295  3.987  0.000
    79C     0.06512  0.13518   1.129  2.806  0.000
    80C     0.02206  0.02925   1.087  2.891  0.000
    81C     0.06699  0.13155   1.108  2.825  0.000
    82C    -0.02973 -0.07442   1.075  2.954  0.000
    83C    -0.03115 -0.07559   1.076  2.955  0.000
    84C     0.06609  0.13058   1.109  2.825  0.000
    85N    -0.15418 -0.50663   1.316  3.838  0.000
    86C     0.01942  0.02683   1.088  2.893  0.000
    87C    -0.01896 -0.02065   1.079  2.940  0.000
    88C    -0.02566 -0.02811   1.073  2.953  0.000
    89C     0.02937  0.02426   1.089  2.881  0.000
    90C    -0.01649 -0.06318   1.090  2.927  0.000
    91C     0.05453  0.07911   1.129  2.817  0.000
    92N    -0.25681 -0.45190   1.381  3.875  0.000
    93C     0.05426  0.07883   1.129  2.817  0.000
    94C    -0.01648 -0.06318   1.090  2.926  0.000
    95C     0.06578  0.13674   1.132  2.802  0.000
    96C    -0.03652 -0.08196   1.090  2.946  0.000
    97C    -0.03726 -0.08361   1.092  2.945  0.000
    98C     0.06069  0.12569   1.125  2.814  0.000
    99N    -0.28425 -0.47116   1.296  3.988  0.000
   100H     0.03414  0.09308   0.966  0.000  0.000
   101H     0.04408  0.10074   0.956  0.000  0.000
   102H     0.03835  0.09629   0.962  0.000  0.000
   103H     0.16771  0.37572   0.832  0.000  0.000
   104H     0.03630  0.09354   0.964  0.000  0.000
   105H     0.03454  0.10045   0.965  0.000  0.000
   106H     0.03587  0.10178   0.964  0.000  0.000
   107H     0.03804  0.09529   0.962  0.000  0.000
   108H     0.02799  0.08597   0.972  0.000  0.000
   109H     0.02397  0.08231   0.976  0.000  0.000
   110H     0.03383  0.09223   0.966  0.000  0.000
   111H     0.03820  0.09621   0.962  0.000  0.000
   112H     0.16540  0.37341   0.835  0.000  0.000
   113H     0.03746  0.09470   0.963  0.000  0.000
   114H     0.03541  0.10132   0.965  0.000  0.000
   115H     0.03447  0.10037   0.966  0.000  0.000
   116H     0.03670  0.09396   0.963  0.000  0.000
   117H     0.02841  0.08628   0.972  0.000  0.000
   118H     0.03407  0.09049   0.966  0.000  0.000
   119C    -0.02171 -0.02395   1.070  2.952  0.000
   120C    -0.01996 -0.02216   1.071  2.949  0.000
   121C    -0.02175 -0.02389   1.070  2.952  0.000
   122C    -0.02058 -0.02271   1.071  2.950  0.000
   123C    -0.02165 -0.02372   1.070  2.951  0.000
   124C    -0.02126 -0.02331   1.070  2.951  0.000
   125C    -0.02145 -0.02347   1.070  2.951  0.000
   126C    -0.02139 -0.02340   1.070  2.951  0.000
   127C    -0.02138 -0.02339   1.071  2.951  0.000
   128C    -0.02137 -0.02337   1.071  2.951  0.000
   129C    -0.02142 -0.02342   1.070  2.951  0.000
   130C    -0.02142 -0.02343   1.071  2.951  0.000
   131C    -0.02136 -0.02339   1.070  2.951  0.000
   132C    -0.02165 -0.02369   1.070  2.951  0.000
   133C    -0.02084 -0.02294   1.071  2.950  0.000
   134C    -0.02193 -0.02404   1.070  2.952  0.000
   135C    -0.02023 -0.02241   1.071  2.949  0.000
   136C    -0.02198 -0.02419   1.069  2.953  0.000
   137C     0.01994  0.02719   1.085  2.895  0.000
   138C     0.06642  0.13099   1.108  2.826  0.000
   139C    -0.03161 -0.07626   1.074  2.957  0.000
   140C    -0.03183 -0.07626   1.077  2.955  0.000
   141C     0.06487  0.12945   1.107  2.828  0.000
   142N    -0.15377 -0.50643   1.316  3.838  0.000
   143C     0.02192  0.02918   1.089  2.889  0.000
   144C    -0.01799 -0.01977   1.080  2.938  0.000
   145C    -0.02473 -0.02723   1.073  2.952  0.000
   146C     0.02964  0.02453   1.089  2.881  0.000
   147C    -0.01570 -0.06241   1.090  2.926  0.000
   148C     0.05476  0.07933   1.129  2.816  0.000
   149N    -0.25638 -0.45151   1.381  3.875  0.000
   150C     0.05439  0.07899   1.129  2.817  0.000
   151C    -0.01655 -0.06324   1.090  2.927  0.000
   152C     0.06307  0.13260   1.128  2.809  0.000
   153C    -0.03639 -0.08187   1.087  2.949  0.000
   154C    -0.03591 -0.08163   1.085  2.951  0.000
   155N    -0.28217 -0.46847   1.295  3.987  0.000
   156C     0.06508  0.13513   1.129  2.806  0.000
   157C     0.02149  0.02873   1.087  2.892  0.000
   158C     0.06666  0.13123   1.108  2.826  0.000
   159C    -0.03078 -0.07549   1.075  2.956  0.000
   160C    -0.03170 -0.07613   1.076  2.955  0.000
   161C     0.06504  0.12955   1.107  2.828  0.000
   162N    -0.15353 -0.50612   1.316  3.838  0.000
   163C     0.02155  0.02881   1.089  2.889  0.000
   164C    -0.01817 -0.01995   1.080  2.938  0.000
   165C    -0.02491 -0.02741   1.073  2.952  0.000
   166C     0.02958  0.02447   1.089  2.881  0.000
   167C    -0.01610 -0.06280   1.090  2.926  0.000
   168C     0.05445  0.07902   1.129  2.817  0.000
   169N    -0.25649 -0.45162   1.381  3.875  0.000
   170C     0.05462  0.07922   1.129  2.817  0.000
   171C    -0.01629 -0.06299   1.090  2.927  0.000
   172C     0.06330  0.13299   1.128  2.808  0.000
   173C    -0.03641 -0.08188   1.088  2.948  0.000
   174C    -0.03655 -0.08219   1.085  2.951  0.000
   175C     0.06459  0.13454   1.129  2.807  0.000
   176N    -0.28268 -0.46898   1.295  3.988  0.000
   177H     0.03247  0.09077   0.968  0.000  0.000
   178H     0.03704  0.09513   0.963  0.000  0.000
   179H     0.16554  0.37337   0.834  0.000  0.000
   180H     0.03778  0.09503   0.962  0.000  0.000
   181H     0.03561  0.10154   0.964  0.000  0.000
   182H     0.03482  0.10073   0.965  0.000  0.000
   183H     0.03683  0.09407   0.963  0.000  0.000
   184H     0.02753  0.08555   0.972  0.000  0.000
   185H     0.02348  0.08180   0.977  0.000  0.000
   186H     0.03324  0.09161   0.967  0.000  0.000
   187H     0.03738  0.09548   0.963  0.000  0.000
   188H     0.16533  0.37317   0.835  0.000  0.000
   189H     0.03707  0.09432   0.963  0.000  0.000
   190H     0.03485  0.10078   0.965  0.000  0.000
   191H     0.03543  0.10134   0.965  0.000  0.000
   192H     0.03739  0.09464   0.963  0.000  0.000
   193H     0.02728  0.08529   0.973  0.000  0.000
   194H     0.02287  0.08108   0.977  0.000  0.000
   195C     0.02013  0.02738   1.086  2.894  0.000
   196C     0.06646  0.13102   1.108  2.826  0.000
   197C    -0.03161 -0.07633   1.074  2.958  0.000
   198C    -0.03192 -0.07636   1.076  2.955  0.000
   199C     0.06462  0.12918   1.106  2.829  0.000
   200N    -0.15370 -0.50635   1.316  3.838  0.000
   201C     0.02213  0.02935   1.090  2.888  0.000
   202C    -0.01781 -0.01962   1.080  2.938  0.000
   203C    -0.02473 -0.02725   1.072  2.952  0.000
   204C     0.02970  0.02458   1.089  2.881  0.000
   205C    -0.01576 -0.06246   1.090  2.926  0.000
   206C     0.05468  0.07926   1.129  2.817  0.000
   207N    -0.25643 -0.45156   1.381  3.875  0.000
   208C     0.05444  0.07903   1.129  2.817  0.000
   209C    -0.01646 -0.06315   1.090  2.927  0.000
   210C     0.06282  0.13230   1.128  2.809  0.000
   211C    -0.03653 -0.08203   1.087  2.950  0.000
   212C    -0.03625 -0.08209   1.084  2.952  0.000
   213N    -0.28229 -0.46859   1.295  3.987  0.000
   214C     0.06499  0.13502   1.129  2.806  0.000
   215C     0.02091  0.02814   1.087  2.892  0.000
   216C     0.06665  0.13119   1.108  2.825  0.000
   217C    -0.03117 -0.07602   1.074  2.957  0.000
   218C    -0.03180 -0.07625   1.076  2.956  0.000
   219C     0.06469  0.12918   1.106  2.829  0.000
   220N    -0.15362 -0.50611   1.316  3.837  0.000
   221C     0.02205  0.02927   1.090  2.888  0.000
   222C    -0.01786 -0.01967   1.080  2.938  0.000
   223C    -0.02476 -0.02728   1.072  2.952  0.000
   224C     0.02968  0.02456   1.089  2.881  0.000
   225C    -0.01595 -0.06266   1.090  2.926  0.000
   226C     0.05453  0.07911   1.129  2.817  0.000
   227N    -0.25646 -0.45160   1.381  3.875  0.000
   228C     0.05458  0.07917   1.129  2.817  0.000
   229C    -0.01629 -0.06298   1.090  2.927  0.000
   230C     0.06293  0.13253   1.128  2.809  0.000
   231C    -0.03652 -0.08200   1.087  2.949  0.000
   232C    -0.03657 -0.08228   1.084  2.952  0.000
   233C     0.06477  0.13478   1.129  2.806  0.000
   234N    -0.28246 -0.46877   1.295  3.987  0.000
   235H     0.03241  0.09076   0.968  0.000  0.000
   236H     0.03688  0.09499   0.963  0.000  0.000
   237H     0.16540  0.37326   0.835  0.000  0.000
   238H     0.03737  0.09462   0.963  0.000  0.000
   239H     0.03542  0.10134   0.965  0.000  0.000
   240H     0.03492  0.10084   0.965  0.000  0.000
   241H     0.03688  0.09412   0.963  0.000  0.000
   242H     0.02729  0.08535   0.973  0.000  0.000
   243H     0.02293  0.08139   0.977  0.000  0.000
   244H     0.03267  0.09118   0.967  0.000  0.000
   245H     0.03715  0.09528   0.963  0.000  0.000
   246H     0.16526  0.37314   0.835  0.000  0.000
   247H     0.03708  0.09434   0.963  0.000  0.000
   248H     0.03498  0.10090   0.965  0.000  0.000
   249H     0.03534  0.10125   0.965  0.000  0.000
   250H     0.03717  0.09441   0.963  0.000  0.000
   251H     0.02708  0.08512   0.973  0.000  0.000
   252H     0.02269  0.08099   0.977  0.000  0.000
   253C     0.02049  0.02776   1.086  2.893  0.000
   254C     0.06654  0.13109   1.108  2.825  0.000
   255C    -0.03143 -0.07627   1.073  2.958  0.000
   256C    -0.03184 -0.07629   1.076  2.956  0.000
   257C     0.06462  0.12916   1.106  2.829  0.000
   258N    -0.15366 -0.50626   1.316  3.838  0.000
   259C     0.02231  0.02951   1.090  2.888  0.000
   260C    -0.01771 -0.01954   1.080  2.938  0.000
   261C    -0.02465 -0.02717   1.072  2.952  0.000
   262C     0.02973  0.02461   1.089  2.881  0.000
   263C    -0.01580 -0.06250   1.090  2.926  0.000
   264C     0.05464  0.07921   1.129  2.817  0.000
   265N    -0.25638 -0.45150   1.381  3.875  0.000
   266C     0.05451  0.07912   1.129  2.817  0.000
   267C    -0.01637 -0.06306   1.090  2.927  0.000
   268C     0.06279  0.13225   1.128  2.810  0.000
   269C    -0.03651 -0.08202   1.087  2.950  0.000
   270C    -0.03634 -0.08224   1.084  2.953  0.000
   271N    -0.28228 -0.46872   1.296  3.987  0.000
   272C     0.06496  0.13498   1.129  2.806  0.000
   273C     0.02078  0.02803   1.087  2.893  0.000
   274C     0.06665  0.13116   1.108  2.825  0.000
   275C    -0.03128 -0.07617   1.073  2.958  0.000
   276C    -0.03179 -0.07624   1.076  2.956  0.000
   277C     0.06466  0.12917   1.106  2.829  0.000
   278N    -0.15369 -0.50621   1.316  3.837  0.000
   279C     0.02229  0.02950   1.090  2.888  0.000
   280C    -0.01772 -0.01955   1.080  2.938  0.000
   281C    -0.02466 -0.02718   1.072  2.952  0.000
   282C     0.02972  0.02461   1.089  2.881  0.000
   283C    -0.01588 -0.06258   1.090  2.926  0.000
   284C     0.05457  0.07914   1.129  2.817  0.000
   285N    -0.25638 -0.45151   1.381  3.875  0.000
   286C     0.05459  0.07919   1.129  2.817  0.000
   287C    -0.01630 -0.06298   1.090  2.927  0.000
   288C     0.06280  0.13233   1.128  2.809  0.000
   289C    -0.03652 -0.08202   1.087  2.950  0.000
   290C    -0.03644 -0.08228   1.084  2.953  0.000
   291C     0.06486  0.13487   1.129  2.806  0.000
   292N    -0.28229 -0.46873   1.295  3.987  0.000
   293H     0.03240  0.09086   0.968  0.000  0.000
   294H     0.03697  0.09511   0.963  0.000  0.000
   295H     0.16539  0.37340   0.835  0.000  0.000
   296H     0.03721  0.09446   0.963  0.000  0.000
   297H     0.03534  0.10125   0.965  0.000  0.000
   298H     0.03511  0.10102   0.965  0.000  0.000
   299H     0.03689  0.09414   0.963  0.000  0.000
   300H     0.02730  0.08537   0.973  0.000  0.000
   301H     0.02280  0.08130   0.977  0.000  0.000
   302H     0.03262  0.09115   0.967  0.000  0.000
   303H     0.03715  0.09530   0.963  0.000  0.000
   304H     0.16534  0.37337   0.835  0.000  0.000
   305H     0.03707  0.09434   0.963  0.000  0.000
   306H     0.03517  0.10108   0.965  0.000  0.000
   307H     0.03529  0.10120   0.965  0.000  0.000
   308H     0.03707  0.09430   0.963  0.000  0.000
   309H     0.02719  0.08525   0.973  0.000  0.000
   310H     0.02267  0.08109   0.977  0.000  0.000
   311C     0.02077  0.02803   1.087  2.893  0.000
   312C     0.06662  0.13113   1.108  2.825  0.000
   313C    -0.03131 -0.07620   1.073  2.958  0.000
   314C    -0.03177 -0.07621   1.076  2.956  0.000
   315C     0.06470  0.12921   1.106  2.829  0.000
   316N    -0.15369 -0.50621   1.316  3.837  0.000
   317C     0.02239  0.02958   1.090  2.888  0.000
   318C    -0.01769 -0.01953   1.080  2.938  0.000
   319C    -0.02458 -0.02711   1.072  2.952  0.000
   320C     0.02974  0.02463   1.089  2.881  0.000
   321C    -0.01581 -0.06251   1.090  2.926  0.000
   322C     0.05465  0.07924   1.129  2.817  0.000
   323N    -0.25632 -0.45145   1.381  3.875  0.000
   324C     0.05454  0.07912   1.129  2.817  0.000
   325C    -0.01631 -0.06300   1.090  2.927  0.000
   326C     0.06283  0.13230   1.128  2.810  0.000
   327C    -0.03649 -0.08200   1.087  2.950  0.000
   328C    -0.03635 -0.08225   1.084  2.953  0.000
   329N    -0.28224 -0.46871   1.296  3.987  0.000
   330C     0.06493  0.13493   1.129  2.806  0.000
   331C     0.02083  0.02809   1.087  2.892  0.000
   332C     0.06666  0.13117   1.108  2.825  0.000
   333C    -0.03127 -0.07616   1.073  2.958  0.000
   334C    -0.03174 -0.07619   1.076  2.956  0.000
   335C     0.06472  0.12923   1.106  2.829  0.000
   336N    -0.15368 -0.50620   1.316  3.837  0.000
   337C     0.02240  0.02959   1.090  2.888  0.000
   338C    -0.01768 -0.01952   1.080  2.938  0.000
   339C    -0.02458 -0.02711   1.072  2.952  0.000
   340C     0.02975  0.02463   1.089  2.881  0.000
   341C    -0.01583 -0.06253   1.090  2.926  0.000
   342C     0.05463  0.07921   1.129  2.817  0.000
   343N    -0.25632 -0.45145   1.381  3.875  0.000
   344C     0.05457  0.07917   1.129  2.817  0.000
   345C    -0.01628 -0.06298   1.090  2.927  0.000
   346C     0.06283  0.13232   1.128  2.810  0.000
   347C    -0.03651 -0.08201   1.087  2.950  0.000
   348C    -0.03638 -0.08228   1.084  2.953  0.000
   349C     0.06490  0.13490   1.129  2.806  0.000
   350N    -0.28222 -0.46870   1.296  3.987  0.000
   351H     0.03256  0.09108   0.967  0.000  0.000
   352H     0.03712  0.09528   0.963  0.000  0.000
   353H     0.16542  0.37349   0.835  0.000  0.000
   354H     0.03716  0.09442   0.963  0.000  0.000
   355H     0.03530  0.10121   0.965  0.000  0.000
   356H     0.03521  0.10113   0.965  0.000  0.000
   357H     0.03694  0.09418   0.963  0.000  0.000
   358H     0.02732  0.08539   0.973  0.000  0.000
   359H     0.02281  0.08129   0.977  0.000  0.000
   360H     0.03265  0.09117   0.967  0.000  0.000
   361H     0.03718  0.09534   0.963  0.000  0.000
   362H     0.16542  0.37349   0.835  0.000  0.000
   363H     0.03711  0.09436   0.963  0.000  0.000
   364H     0.03525  0.10117   0.965  0.000  0.000
   365H     0.03527  0.10118   0.965  0.000  0.000
   366H     0.03701  0.09426   0.963  0.000  0.000
   367H     0.02729  0.08537   0.973  0.000  0.000
   368H     0.02276  0.08124   0.977  0.000  0.000
   369C     0.02080  0.02806   1.087  2.893  0.000
   370C     0.06667  0.13118   1.108  2.825  0.000
   371C    -0.03127 -0.07617   1.073  2.958  0.000
   372C    -0.03174 -0.07619   1.076  2.956  0.000
   373C     0.06470  0.12922   1.106  2.829  0.000
   374N    -0.15368 -0.50620   1.316  3.837  0.000
   375C     0.02241  0.02960   1.090  2.888  0.000
   376C    -0.01770 -0.01954   1.080  2.938  0.000
   377C    -0.02455 -0.02708   1.072  2.952  0.000
   378C     0.02975  0.02463   1.089  2.881  0.000
   379C    -0.01581 -0.06250   1.090  2.926  0.000
   380C     0.05462  0.07917   1.129  2.817  0.000
   381N    -0.25632 -0.45144   1.381  3.875  0.000
   382C     0.05458  0.07919   1.129  2.817  0.000
   383C    -0.01629 -0.06299   1.090  2.927  0.000
   384C     0.06282  0.13230   1.128  2.810  0.000
   385C    -0.03651 -0.08201   1.087  2.950  0.000
   386C    -0.03638 -0.08228   1.084  2.953  0.000
   387N    -0.28223 -0.46871   1.296  3.987  0.000
   388C     0.06489  0.13489   1.129  2.806  0.000
   389C     0.02080  0.02807   1.087  2.893  0.000
   390C     0.06662  0.13114   1.108  2.825  0.000
   391C    -0.03130 -0.07620   1.073  2.958  0.000
   392C    -0.03177 -0.07622   1.076  2.956  0.000
   393C     0.06469  0.12922   1.106  2.829  0.000
   394N    -0.15367 -0.50620   1.316  3.837  0.000
   395C     0.02239  0.02958   1.090  2.888  0.000
   396C    -0.01770 -0.01954   1.080  2.938  0.000
   397C    -0.02458 -0.02711   1.072  2.952  0.000
   398C     0.02974  0.02462   1.089  2.881  0.000
   399C    -0.01580 -0.06250   1.090  2.926  0.000
   400C     0.05465  0.07924   1.129  2.817  0.000
   401N    -0.25633 -0.45146   1.381  3.875  0.000
   402C     0.05454  0.07912   1.129  2.817  0.000
   403C    -0.01631 -0.06300   1.090  2.927  0.000
   404C     0.06283  0.13231   1.128  2.810  0.000
   405C    -0.03649 -0.08199   1.087  2.950  0.000
   406C    -0.03636 -0.08226   1.084  2.953  0.000
   407C     0.06492  0.13492   1.129  2.806  0.000
   408N    -0.28225 -0.46872   1.296  3.987  0.000
   409H     0.03262  0.09115   0.967  0.000  0.000
   410H     0.03716  0.09531   0.963  0.000  0.000
   411H     0.16543  0.37350   0.835  0.000  0.000
   412H     0.03711  0.09435   0.963  0.000  0.000
   413H     0.03526  0.10118   0.965  0.000  0.000
   414H     0.03526  0.10116   0.965  0.000  0.000
   415H     0.03699  0.09424   0.963  0.000  0.000
   416H     0.02728  0.08537   0.973  0.000  0.000
   417H     0.02276  0.08125   0.977  0.000  0.000
   418H     0.03259  0.09111   0.967  0.000  0.000
   419H     0.03713  0.09529   0.963  0.000  0.000
   420H     0.16543  0.37349   0.835  0.000  0.000
   421H     0.03713  0.09439   0.963  0.000  0.000
   422H     0.03529  0.10120   0.965  0.000  0.000
   423H     0.03522  0.10113   0.965  0.000  0.000
   424H     0.03697  0.09421   0.963  0.000  0.000
   425H     0.02732  0.08540   0.973  0.000  0.000
   426H     0.02280  0.08128   0.977  0.000  0.000
   427C     0.02073  0.02798   1.087  2.893  0.000
   428C     0.06665  0.13117   1.108  2.825  0.000
   429C    -0.03131 -0.07621   1.073  2.958  0.000
   430C    -0.03179 -0.07624   1.076  2.956  0.000
   431C     0.06462  0.12912   1.106  2.829  0.000
   432N    -0.15371 -0.50623   1.316  3.837  0.000
   433C     0.02234  0.02954   1.090  2.888  0.000
   434C    -0.01772 -0.01956   1.080  2.938  0.000
   435C    -0.02461 -0.02713   1.072  2.952  0.000
   436C     0.02974  0.02462   1.089  2.881  0.000
   437C    -0.01586 -0.06255   1.090  2.926  0.000
   438C     0.05458  0.07914   1.129  2.817  0.000
   439N    -0.25637 -0.45150   1.381  3.875  0.000
   440C     0.05458  0.07918   1.129  2.817  0.000
   441C    -0.01628 -0.06298   1.090  2.927  0.000
   442C     0.06277  0.13229   1.128  2.810  0.000
   443C    -0.03655 -0.08205   1.087  2.950  0.000
   444C    -0.03645 -0.08233   1.084  2.953  0.000
   445N    -0.28228 -0.46876   1.296  3.987  0.000
   446C     0.06485  0.13485   1.129  2.806  0.000
   447C     0.02053  0.02779   1.086  2.893  0.000
   448C     0.06654  0.13107   1.108  2.825  0.000
   449C    -0.03144 -0.07631   1.073  2.958  0.000
   450C    -0.03187 -0.07631   1.076  2.956  0.000
   451C     0.06458  0.12911   1.106  2.829  0.000
   452N    -0.15369 -0.50626   1.316  3.837  0.000
   453C     0.02233  0.02953   1.090  2.888  0.000
   454C    -0.01773 -0.01956   1.080  2.938  0.000
   455C    -0.02462 -0.02715   1.072  2.952  0.000
   456C     0.02973  0.02461   1.089  2.881  0.000
   457C    -0.01580 -0.06251   1.090  2.926  0.000
   458C     0.05465  0.07923   1.129  2.817  0.000
   459N    -0.25639 -0.45152   1.381  3.875  0.000
   460C     0.05449  0.07907   1.129  2.817  0.000
   461C    -0.01635 -0.06304   1.090  2.927  0.000
   462C     0.06277  0.13224   1.128  2.810  0.000
   463C    -0.03653 -0.08203   1.087  2.950  0.000
   464C    -0.03637 -0.08227   1.084  2.953  0.000
   465C     0.06493  0.13494   1.129  2.806  0.000
   466N    -0.28230 -0.46876   1.296  3.987  0.000
   467H     0.03259  0.09112   0.967  0.000  0.000
   468H     0.03712  0.09526   0.963  0.000  0.000
   469H     0.16536  0.37342   0.835  0.000  0.000
   470H     0.03704  0.09429   0.963  0.000  0.000
   471H     0.03516  0.10108   0.965  0.000  0.000
   472H     0.03528  0.10119   0.965  0.000  0.000
   473H     0.03703  0.09428   0.963  0.000  0.000
   474H     0.02717  0.08524   0.973  0.000  0.000
   475H     0.02265  0.08111   0.977  0.000  0.000
   476H     0.03238  0.09086   0.968  0.000  0.000
   477H     0.03697  0.09511   0.963  0.000  0.000
   478H     0.16538  0.37343   0.835  0.000  0.000
   479H     0.03719  0.09444   0.963  0.000  0.000
   480H     0.03531  0.10122   0.965  0.000  0.000
   481H     0.03511  0.10102   0.965  0.000  0.000
   482H     0.03688  0.09412   0.963  0.000  0.000
   483H     0.02729  0.08536   0.973  0.000  0.000
   484H     0.02279  0.08127   0.977  0.000  0.000
   485C     0.02082  0.02806   1.087  2.892  0.000
   486C     0.06660  0.13112   1.108  2.825  0.000
   487C    -0.03126 -0.07613   1.074  2.958  0.000
   488C    -0.03186 -0.07630   1.076  2.956  0.000
   489C     0.06461  0.12910   1.106  2.829  0.000
   490N    -0.15367 -0.50618   1.316  3.837  0.000
   491C     0.02210  0.02933   1.090  2.888  0.000
   492C    -0.01781 -0.01963   1.080  2.938  0.000
   493C    -0.02475 -0.02727   1.072  2.952  0.000
   494C     0.02969  0.02457   1.089  2.881  0.000
   495C    -0.01596 -0.06266   1.090  2.926  0.000
   496C     0.05452  0.07910   1.129  2.817  0.000
   497N    -0.25646 -0.45159   1.381  3.875  0.000
   498C     0.05457  0.07916   1.129  2.817  0.000
   499C    -0.01629 -0.06298   1.090  2.927  0.000
   500C     0.06282  0.13239   1.128  2.809  0.000
   501C    -0.03653 -0.08202   1.087  2.949  0.000
   502C    -0.03656 -0.08233   1.084  2.952  0.000
   503N    -0.28242 -0.46881   1.295  3.987  0.000
   504C     0.06480  0.13484   1.129  2.806  0.000
   505C     0.02003  0.02730   1.086  2.894  0.000
   506C     0.06646  0.13103   1.108  2.826  0.000
   507C    -0.03164 -0.07640   1.074  2.958  0.000
   508C    -0.03195 -0.07638   1.076  2.956  0.000
   509C     0.06452  0.12908   1.106  2.829  0.000
   510N    -0.15369 -0.50636   1.316  3.838  0.000
   511C     0.02220  0.02942   1.090  2.888  0.000
   512C    -0.01778 -0.01959   1.080  2.938  0.000
   513C    -0.02470 -0.02721   1.072  2.952  0.000
   514C     0.02970  0.02459   1.089  2.881  0.000
   515C    -0.01577 -0.06247   1.090  2.926  0.000
   516C     0.05466  0.07922   1.129  2.817  0.000
   517N    -0.25645 -0.45157   1.381  3.875  0.000
   518C     0.05444  0.07904   1.129  2.817  0.000
   519C    -0.01645 -0.06314   1.090  2.927  0.000
   520C     0.06274  0.13220   1.128  2.810  0.000
   521C    -0.03655 -0.08205   1.087  2.950  0.000
   522C    -0.03629 -0.08216   1.084  2.953  0.000
   523C     0.06497  0.13500   1.129  2.806  0.000
   524N    -0.28231 -0.46869   1.296  3.987  0.000
   525H     0.03258  0.09110   0.967  0.000  0.000
   526H     0.03708  0.09521   0.963  0.000  0.000
   527H     0.16525  0.37322   0.835  0.000  0.000
   528H     0.03701  0.09427   0.963  0.000  0.000
   529H     0.03501  0.10093   0.965  0.000  0.000
   530H     0.03532  0.10123   0.965  0.000  0.000
   531H     0.03712  0.09437   0.963  0.000  0.000
   532H     0.02706  0.08510   0.973  0.000  0.000
   533H     0.02261  0.08094   0.977  0.000  0.000
   534H     0.03221  0.09059   0.968  0.000  0.000
   535H     0.03681  0.09492   0.963  0.000  0.000
   536H     0.16537  0.37331   0.835  0.000  0.000
   537H     0.03732  0.09457   0.963  0.000  0.000
   538H     0.03540  0.10131   0.965  0.000  0.000
   539H     0.03496  0.10087   0.965  0.000  0.000
   540H     0.03684  0.09409   0.963  0.000  0.000
   541H     0.02727  0.08533   0.973  0.000  0.000
   542H     0.02287  0.08134   0.977  0.000  0.000
   543C     0.02135  0.02859   1.087  2.892  0.000
   544C     0.06667  0.13125   1.108  2.825  0.000
   545C    -0.03089 -0.07565   1.074  2.957  0.000
   546C    -0.03176 -0.07621   1.076  2.956  0.000
   547C     0.06490  0.12939   1.107  2.828  0.000
   548N    -0.15353 -0.50611   1.316  3.837  0.000
   549C     0.02167  0.02892   1.089  2.889  0.000
   550C    -0.01806 -0.01985   1.080  2.938  0.000
   551C    -0.02493 -0.02743   1.072  2.952  0.000
   552C     0.02961  0.02449   1.089  2.881  0.000
   553C    -0.01610 -0.06280   1.090  2.926  0.000
   554C     0.05444  0.07902   1.129  2.817  0.000
   555N    -0.25649 -0.45162   1.381  3.875  0.000
   556C     0.05462  0.07922   1.129  2.817  0.000
   557C    -0.01629 -0.06298   1.090  2.927  0.000
   558C     0.06315  0.13280   1.128  2.809  0.000
   559C    -0.03644 -0.08192   1.088  2.949  0.000
   560C    -0.03657 -0.08227   1.085  2.952  0.000
   561N    -0.28268 -0.46898   1.295  3.988  0.000
   562C     0.06462  0.13459   1.129  2.807  0.000
   563C     0.01982  0.02706   1.085  2.895  0.000
   564C     0.06641  0.13096   1.108  2.826  0.000
   565C    -0.03166 -0.07636   1.074  2.958  0.000
   566C    -0.03188 -0.07631   1.077  2.955  0.000
   567C     0.06475  0.12933   1.107  2.829  0.000
   568N    -0.15377 -0.50642   1.316  3.838  0.000
   569C     0.02201  0.02925   1.090  2.888  0.000
   570C    -0.01790 -0.01968   1.080  2.938  0.000
   571C    -0.02474 -0.02725   1.073  2.952  0.000
   572C     0.02966  0.02455   1.089  2.881  0.000
   573C    -0.01570 -0.06240   1.090  2.926  0.000
   574C     0.05475  0.07932   1.129  2.816  0.000
   575N    -0.25638 -0.45150   1.381  3.875  0.000
   576C     0.05439  0.07899   1.129  2.817  0.000
   577C    -0.01656 -0.06325   1.090  2.927  0.000
   578C     0.06297  0.13249   1.128  2.809  0.000
   579C    -0.03643 -0.08191   1.087  2.949  0.000
   580C    -0.03600 -0.08175   1.085  2.951  0.000
   581C     0.06508  0.13516   1.129  2.806  0.000
   582N    -0.28212 -0.46845   1.295  3.987  0.000
   583H     0.03294  0.09137   0.967  0.000  0.000
   584H     0.03723  0.09533   0.963  0.000  0.000
   585H     0.16528  0.37314   0.835  0.000  0.000
   586H     0.03695  0.09420   0.963  0.000  0.000
   587H     0.03486  0.10078   0.965  0.000  0.000
   588H     0.03545  0.10136   0.965  0.000  0.000
   589H     0.03734  0.09458   0.963  0.000  0.000
   590H     0.02717  0.08520   0.973  0.000  0.000
   591H     0.02263  0.08091   0.977  0.000  0.000
   592H     0.03224  0.09058   0.968  0.000  0.000
   593H     0.03692  0.09501   0.963  0.000  0.000
   594H     0.16546  0.37331   0.835  0.000  0.000
   595H     0.03763  0.09489   0.962  0.000  0.000
   596H     0.03562  0.10153   0.964  0.000  0.000
   597H     0.03483  0.10075   0.965  0.000  0.000
   598H     0.03680  0.09404   0.963  0.000  0.000
   599H     0.02743  0.08547   0.973  0.000  0.000
   600H     0.02336  0.08171   0.977  0.000  0.000

Wiberg/Mayer (AO) data.
largest (>0.10) Wiberg bond orders for each atom

 ---------------------------------------------------------------------------
     #   Z sym  total        # sym  WBO       # sym  WBO       # sym  WBO
 ---------------------------------------------------------------------------
     1   6 C    3.824 --    39 C    1.398     2 C    1.368    41 H    0.995
     2   6 C    3.916 --     1 C    1.368     3 C    1.245     6 N    1.225
     3   6 C    3.843 --     4 C    1.592     2 C    1.245    42 H    0.992
     4   6 C    3.833 --     3 C    1.592     5 C    1.260    43 H    0.999
     5   6 C    3.914 --     7 C    1.296     4 C    1.260     6 N    1.248
     6   7 N    3.261 --     5 C    1.248     2 C    1.225    44 H    0.961
     7   6 C    3.859 --    16 C    1.317     5 C    1.296     8 C    1.184
     8   6 C    3.815 --     9 C    2.664     7 C    1.184
     9   6 C    3.788 --     8 C    2.664    10 C    1.152
    10   6 C    3.931 --    15 C    1.375    11 C    1.375     9 C    1.152
    11   6 C    3.879 --    12 C    1.462    10 C    1.375    45 H    0.988
    12   6 C    4.006 --    13 N    1.471    11 C    1.462    46 H    0.981
    13   7 N    2.925 --    12 C    1.471    14 C    1.471
    14   6 C    4.006 --    13 N    1.471    15 C    1.461    47 H    0.981
    15   6 C    3.878 --    14 C    1.461    10 C    1.375    48 H    0.988
    16   6 C    3.939 --    19 N    1.383     7 C    1.317    17 C    1.164
    17   6 C    3.846 --    18 C    1.693    16 C    1.164    49 H    0.999
    18   6 C    3.841 --    17 C    1.693    20 C    1.165    50 H    0.999
    19   7 N    2.576 --    20 C    1.396    16 C    1.383
    20   6 C    3.933 --    19 N    1.396    21 C    1.306    18 C    1.165
    21   6 C    3.852 --    20 C    1.306    22 C    1.292   119 C    1.199
    22   6 C    3.897 --    21 C    1.292    23 C    1.270    26 N    1.243
    23   6 C    3.822 --    24 C    1.579    22 C    1.270    51 H    0.998
    24   6 C    3.827 --    23 C    1.579    25 C    1.267    52 H    0.998
    25   6 C    3.907 --    27 C    1.299    24 C    1.267    26 N    1.241
    26   7 N    3.267 --    22 C    1.243    25 C    1.241    53 H    0.960
    27   6 C    3.847 --    36 C    1.305    25 C    1.299    28 C    1.188
    28   6 C    3.815 --    29 C    2.659    27 C    1.188
    29   6 C    3.783 --    28 C    2.659    30 C    1.154
    30   6 C    3.930 --    35 C    1.374    31 C    1.374    29 C    1.154
    31   6 C    3.877 --    32 C    1.462    30 C    1.374    54 H    0.988
    32   6 C    4.006 --    33 N    1.471    31 C    1.462    55 H    0.981
    33   7 N    2.924 --    32 C    1.471    34 C    1.471
    34   6 C    4.006 --    33 N    1.471    35 C    1.462    56 H    0.981
    35   6 C    3.878 --    34 C    1.462    30 C    1.374    57 H    0.988
    36   6 C    3.961 --    40 N    1.410    27 C    1.305    37 C    1.155
    37   6 C    3.852 --    38 C    1.708    36 C    1.155    58 H    1.000
    38   6 C    3.867 --    37 C    1.708    39 C    1.146    59 H    0.992
    39   6 C    3.957 --     1 C    1.398    40 N    1.357    38 C    1.146
    40   7 N    2.568 --    36 C    1.410    39 C    1.357
    41   1 H    1.030 --     1 C    0.995
    42   1 H    1.012 --     3 C    0.992
    43   1 H    1.015 --     4 C    0.999
    44   1 H    1.077 --     6 N    0.961
    45   1 H    1.032 --    11 C    0.988
    46   1 H    1.048 --    12 C    0.981
    47   1 H    1.047 --    14 C    0.981
    48   1 H    1.032 --    15 C    0.988
    49   1 H    1.021 --    17 C    0.999
    50   1 H    1.031 --    18 C    0.999
    51   1 H    1.028 --    23 C    0.998
    52   1 H    1.015 --    24 C    0.998
    53   1 H    1.079 --    26 N    0.960
    54   1 H    1.031 --    31 C    0.988
    55   1 H    1.048 --    32 C    0.981
    56   1 H    1.048 --    34 C    0.981
    57   1 H    1.033 --    35 C    0.988
    58   1 H    1.020 --    37 C    1.000
    59   1 H    1.015 --    38 C    0.992
    60   6 C    3.824 --    98 C    1.398    61 C    1.368   100 H    0.995
    61   6 C    3.916 --    60 C    1.368    62 C    1.245    65 N    1.225
    62   6 C    3.843 --    63 C    1.591    61 C    1.245   101 H    0.992
    63   6 C    3.834 --    62 C    1.591    64 C    1.261   102 H    0.999
    64   6 C    3.914 --    66 C    1.296    63 C    1.261    65 N    1.248
    65   7 N    3.261 --    64 C    1.248    61 C    1.225   103 H    0.961
    66   6 C    3.859 --    75 C    1.318    64 C    1.296    67 C    1.184
    67   6 C    3.815 --    68 C    2.664    66 C    1.184
    68   6 C    3.788 --    67 C    2.664    69 C    1.152
    69   6 C    3.931 --    74 C    1.375    70 C    1.375    68 C    1.152
    70   6 C    3.881 --    71 C    1.462    69 C    1.375   104 H    0.988
    71   6 C    4.006 --    72 N    1.471    70 C    1.462   105 H    0.981
    72   7 N    2.925 --    71 C    1.471    73 C    1.471
    73   6 C    4.006 --    72 N    1.471    74 C    1.461   106 H    0.981
    74   6 C    3.878 --    73 C    1.461    69 C    1.375   107 H    0.988
    75   6 C    3.939 --    78 N    1.382    66 C    1.318    76 C    1.165
    76   6 C    3.845 --    77 C    1.692    75 C    1.165   108 H    0.999
    77   6 C    3.838 --    76 C    1.692    79 C    1.165   109 H    0.999
    78   7 N    2.576 --    79 C    1.397    75 C    1.382
    79   6 C    3.932 --    78 N    1.397    80 C    1.304    77 C    1.165
    80   6 C    3.851 --    79 C    1.304    81 C    1.291   136 C    1.203
    81   6 C    3.896 --    80 C    1.291    82 C    1.271    85 N    1.244
    82   6 C    3.821 --    83 C    1.578    81 C    1.271   110 H    0.998
    83   6 C    3.824 --    82 C    1.578    84 C    1.268   111 H    0.998
    84   6 C    3.907 --    86 C    1.299    83 C    1.268    85 N    1.240
    85   7 N    3.267 --    81 C    1.244    84 C    1.240   112 H    0.961
    86   6 C    3.847 --    95 C    1.305    84 C    1.299    87 C    1.188
    87   6 C    3.815 --    88 C    2.659    86 C    1.188
    88   6 C    3.783 --    87 C    2.659    89 C    1.154
    89   6 C    3.930 --    94 C    1.374    90 C    1.374    88 C    1.154
    90   6 C    3.877 --    91 C    1.462    89 C    1.374   113 H    0.988
    91   6 C    4.006 --    92 N    1.471    90 C    1.462   114 H    0.981
    92   7 N    2.924 --    91 C    1.471    93 C    1.471
    93   6 C    4.006 --    92 N    1.471    94 C    1.462   115 H    0.981
    94   6 C    3.878 --    93 C    1.462    89 C    1.374   116 H    0.988
    95   6 C    3.961 --    99 N    1.410    86 C    1.305    96 C    1.155
    96   6 C    3.852 --    97 C    1.708    95 C    1.155   117 H    1.000
    97   6 C    3.867 --    96 C    1.708    98 C    1.146   118 H    0.992
    98   6 C    3.957 --    60 C    1.398    99 N    1.357    97 C    1.146
    99   7 N    2.568 --    95 C    1.410    98 C    1.357
   100   1 H    1.030 --    60 C    0.995
   101   1 H    1.012 --    62 C    0.992
   102   1 H    1.015 --    63 C    0.999
   103   1 H    1.077 --    65 N    0.961
   104   1 H    1.032 --    70 C    0.988
   105   1 H    1.048 --    71 C    0.981
   106   1 H    1.047 --    73 C    0.981
   107   1 H    1.032 --    74 C    0.988
   108   1 H    1.023 --    76 C    0.999
   109   1 H    1.031 --    77 C    0.999
   110   1 H    1.028 --    82 C    0.998
   111   1 H    1.015 --    83 C    0.998
   112   1 H    1.079 --    85 N    0.961
   113   1 H    1.032 --    90 C    0.988
   114   1 H    1.048 --    91 C    0.981
   115   1 H    1.048 --    93 C    0.981
   116   1 H    1.033 --    94 C    0.988
   117   1 H    1.020 --    96 C    1.000
   118   1 H    1.015 --    97 C    0.992
   119   6 C    3.762 --   120 C    2.626    21 C    1.199
   120   6 C    3.765 --   119 C    2.626   137 C    1.201
   121   6 C    3.762 --   122 C    2.616   157 C    1.210
   122   6 C    3.763 --   121 C    2.616   195 C    1.210
   123   6 C    3.764 --   124 C    2.611   215 C    1.217
   124   6 C    3.764 --   123 C    2.611   253 C    1.217
   125   6 C    3.765 --   126 C    2.609   273 C    1.219
   126   6 C    3.765 --   125 C    2.609   311 C    1.219
   127   6 C    3.765 --   128 C    2.609   331 C    1.219
   128   6 C    3.765 --   127 C    2.609   369 C    1.219
   129   6 C    3.765 --   130 C    2.609   389 C    1.219
   130   6 C    3.765 --   129 C    2.609   427 C    1.219
   131   6 C    3.764 --   132 C    2.610   447 C    1.219
   132   6 C    3.764 --   131 C    2.610   485 C    1.218
   133   6 C    3.763 --   134 C    2.613   505 C    1.214
   134   6 C    3.763 --   133 C    2.613   543 C    1.213
   135   6 C    3.766 --   136 C    2.624   563 C    1.205
   136   6 C    3.762 --   135 C    2.624    80 C    1.203
   137   6 C    3.836 --   175 C    1.305   138 C    1.287   120 C    1.201
   138   6 C    3.899 --   137 C    1.287   139 C    1.274   142 N    1.245
   139   6 C    3.816 --   140 C    1.573   138 C    1.274   177 H    0.998
   140   6 C    3.827 --   139 C    1.573   141 C    1.272   178 H    0.999
   141   6 C    3.901 --   143 C    1.293   140 C    1.272   142 N    1.241
   142   7 N    3.260 --   138 C    1.245   141 C    1.241   179 H    0.962
   143   6 C    3.851 --   152 C    1.321   141 C    1.293   144 C    1.185
   144   6 C    3.814 --   145 C    2.664   143 C    1.185
   145   6 C    3.786 --   144 C    2.664   146 C    1.152
   146   6 C    3.930 --   147 C    1.375   151 C    1.375   145 C    1.152
   147   6 C    3.878 --   148 C    1.461   146 C    1.375   180 H    0.988
   148   6 C    4.006 --   149 N    1.471   147 C    1.461   181 H    0.981
   149   7 N    2.924 --   150 C    1.471   148 C    1.471
   150   6 C    4.006 --   149 N    1.471   151 C    1.461   182 H    0.981
   151   6 C    3.880 --   150 C    1.461   146 C    1.375   183 H    0.988
   152   6 C    3.938 --   155 N    1.380   143 C    1.321   153 C    1.165
   153   6 C    3.847 --   154 C    1.692   152 C    1.165   184 H    1.000
   154   6 C    3.835 --   153 C    1.692   156 C    1.167   185 H    0.999
   155   7 N    2.565 --   156 C    1.399   152 C    1.380
   156   6 C    3.932 --   155 N    1.399   157 C    1.301   154 C    1.167
   157   6 C    3.838 --   156 C    1.301   158 C    1.284   121 C    1.210
   158   6 C    3.897 --   157 C    1.284   159 C    1.276   162 N    1.245
   159   6 C    3.816 --   160 C    1.572   158 C    1.276   186 H    0.998
   160   6 C    3.824 --   159 C    1.572   161 C    1.273   187 H    0.999
   161   6 C    3.900 --   163 C    1.291   160 C    1.273   162 N    1.241
   162   7 N    3.261 --   158 C    1.245   161 C    1.241   188 H    0.962
   163   6 C    3.849 --   172 C    1.322   161 C    1.291   164 C    1.185
   164   6 C    3.814 --   165 C    2.663   163 C    1.185
   165   6 C    3.785 --   164 C    2.663   166 C    1.153
   166   6 C    3.930 --   167 C    1.375   171 C    1.375   165 C    1.153
   167   6 C    3.878 --   168 C    1.462   166 C    1.375   189 H    0.988
   168   6 C    4.006 --   169 N    1.471   167 C    1.462   190 H    0.981
   169   7 N    2.924 --   170 C    1.471   168 C    1.471
   170   6 C    4.006 --   169 N    1.471   171 C    1.461   191 H    0.981
   171   6 C    3.880 --   170 C    1.461   166 C    1.375   192 H    0.988
   172   6 C    3.940 --   176 N    1.382   163 C    1.322   173 C    1.163
   173   6 C    3.848 --   174 C    1.693   172 C    1.163   193 H    1.000
   174   6 C    3.838 --   173 C    1.693   175 C    1.165   194 H    0.999
   175   6 C    3.935 --   176 N    1.396   137 C    1.305   174 C    1.165
   176   7 N    2.563 --   175 C    1.396   172 C    1.382
   177   1 H    1.026 --   139 C    0.998
   178   1 H    1.019 --   140 C    0.999
   179   1 H    1.077 --   142 N    0.962
   180   1 H    1.033 --   147 C    0.988
   181   1 H    1.048 --   148 C    0.981
   182   1 H    1.048 --   150 C    0.981
   183   1 H    1.032 --   151 C    0.988
   184   1 H    1.025 --   153 C    1.000
   185   1 H    1.031 --   154 C    0.999
   186   1 H    1.027 --   159 C    0.998
   187   1 H    1.019 --   160 C    0.999
   188   1 H    1.078 --   162 N    0.962
   189   1 H    1.033 --   167 C    0.988
   190   1 H    1.048 --   168 C    0.981
   191   1 H    1.047 --   170 C    0.981
   192   1 H    1.032 --   171 C    0.988
   193   1 H    1.025 --   173 C    1.000
   194   1 H    1.030 --   174 C    0.999
   195   6 C    3.835 --   233 C    1.300   196 C    1.283   122 C    1.210
   196   6 C    3.897 --   195 C    1.283   197 C    1.276   200 N    1.246
   197   6 C    3.815 --   198 C    1.571   196 C    1.276   235 H    0.998
   198   6 C    3.824 --   197 C    1.571   199 C    1.273   236 H    0.999
   199   6 C    3.900 --   201 C    1.292   198 C    1.273   200 N    1.241
   200   7 N    3.260 --   196 C    1.246   199 C    1.241   237 H    0.962
   201   6 C    3.850 --   210 C    1.323   199 C    1.292   202 C    1.185
   202   6 C    3.814 --   203 C    2.664   201 C    1.185
   203   6 C    3.785 --   202 C    2.664   204 C    1.152
   204   6 C    3.930 --   205 C    1.375   209 C    1.375   203 C    1.152
   205   6 C    3.878 --   206 C    1.461   204 C    1.375   238 H    0.988
   206   6 C    4.006 --   207 N    1.471   205 C    1.461   239 H    0.981
   207   7 N    2.924 --   208 C    1.471   206 C    1.471
   208   6 C    4.006 --   207 N    1.471   209 C    1.461   240 H    0.981
   209   6 C    3.880 --   208 C    1.461   204 C    1.375   241 H    0.988
   210   6 C    3.938 --   213 N    1.379   201 C    1.323   211 C    1.165
   211   6 C    3.845 --   212 C    1.691   210 C    1.165   242 H    1.000
   212   6 C    3.832 --   211 C    1.691   214 C    1.168   243 H    0.998
   213   7 N    2.563 --   214 C    1.401   210 C    1.379
   214   6 C    3.929 --   213 N    1.401   215 C    1.297   212 C    1.168
   215   6 C    3.836 --   214 C    1.297   216 C    1.281   123 C    1.217
   216   6 C    3.894 --   215 C    1.281   217 C    1.278   220 N    1.246
   217   6 C    3.814 --   218 C    1.571   216 C    1.278   244 H    0.997
   218   6 C    3.823 --   217 C    1.571   219 C    1.274   245 H    0.999
   219   6 C    3.901 --   221 C    1.292   218 C    1.274   220 N    1.241
   220   7 N    3.260 --   216 C    1.246   219 C    1.241   246 H    0.962
   221   6 C    3.849 --   230 C    1.323   219 C    1.292   222 C    1.185
   222   6 C    3.814 --   223 C    2.664   221 C    1.185
   223   6 C    3.785 --   222 C    2.664   224 C    1.152
   224   6 C    3.930 --   225 C    1.375   229 C    1.375   223 C    1.152
   225   6 C    3.878 --   226 C    1.461   224 C    1.375   247 H    0.988
   226   6 C    4.006 --   227 N    1.471   225 C    1.461   248 H    0.981
   227   7 N    2.924 --   228 C    1.471   226 C    1.471
   228   6 C    4.006 --   227 N    1.471   229 C    1.461   249 H    0.981
   229   6 C    3.880 --   228 C    1.461   224 C    1.375   250 H    0.988
   230   6 C    3.938 --   234 N    1.380   221 C    1.323   231 C    1.164
   231   6 C    3.847 --   232 C    1.692   230 C    1.164   251 H    1.000
   232   6 C    3.834 --   231 C    1.692   233 C    1.167   252 H    0.999
   233   6 C    3.933 --   234 N    1.399   195 C    1.300   232 C    1.167
   234   7 N    2.562 --   233 C    1.399   230 C    1.380
   235   1 H    1.026 --   197 C    0.998
   236   1 H    1.019 --   198 C    0.999
   237   1 H    1.078 --   200 N    0.962
   238   1 H    1.033 --   205 C    0.988
   239   1 H    1.048 --   206 C    0.981
   240   1 H    1.048 --   208 C    0.981
   241   1 H    1.032 --   209 C    0.988
   242   1 H    1.025 --   211 C    1.000
   243   1 H    1.032 --   212 C    0.998
   244   1 H    1.026 --   217 C    0.997
   245   1 H    1.019 --   218 C    0.999
   246   1 H    1.078 --   220 N    0.962
   247   1 H    1.033 --   225 C    0.988
   248   1 H    1.048 --   226 C    0.981
   249   1 H    1.048 --   228 C    0.981
   250   1 H    1.032 --   229 C    0.988
   251   1 H    1.025 --   231 C    1.000
   252   1 H    1.031 --   232 C    0.999
   253   6 C    3.836 --   291 C    1.297   254 C    1.281   124 C    1.217
   254   6 C    3.894 --   253 C    1.281   255 C    1.278   258 N    1.246
   255   6 C    3.813 --   256 C    1.571   254 C    1.278   293 H    0.997
   256   6 C    3.823 --   255 C    1.571   257 C    1.274   294 H    0.999
   257   6 C    3.901 --   259 C    1.292   256 C    1.274   258 N    1.241
   258   7 N    3.260 --   254 C    1.246   257 C    1.241   295 H    0.961
   259   6 C    3.850 --   268 C    1.323   257 C    1.292   260 C    1.185
   260   6 C    3.814 --   261 C    2.664   259 C    1.185
   261   6 C    3.785 --   260 C    2.664   262 C    1.152
   262   6 C    3.930 --   263 C    1.375   267 C    1.375   261 C    1.152
   263   6 C    3.878 --   264 C    1.461   262 C    1.375   296 H    0.988
   264   6 C    4.006 --   265 N    1.471   263 C    1.461   297 H    0.981
   265   7 N    2.924 --   266 C    1.472   264 C    1.471
   266   6 C    4.006 --   265 N    1.472   267 C    1.461   298 H    0.981
   267   6 C    3.880 --   266 C    1.461   262 C    1.375   299 H    0.988
   268   6 C    3.938 --   271 N    1.379   259 C    1.323   269 C    1.165
   269   6 C    3.844 --   270 C    1.691   268 C    1.165   300 H    1.000
   270   6 C    3.832 --   269 C    1.691   272 C    1.169   301 H    0.997
   271   7 N    2.562 --   272 C    1.401   268 C    1.379
   272   6 C    3.928 --   271 N    1.401   273 C    1.296   270 C    1.169
   273   6 C    3.836 --   272 C    1.296   274 C    1.280   125 C    1.219
   274   6 C    3.894 --   273 C    1.280   275 C    1.278   278 N    1.246
   275   6 C    3.813 --   276 C    1.571   274 C    1.278   302 H    0.996
   276   6 C    3.822 --   275 C    1.571   277 C    1.274   303 H    0.999
   277   6 C    3.901 --   279 C    1.292   276 C    1.274   278 N    1.241
   278   7 N    3.260 --   274 C    1.246   277 C    1.241   304 H    0.961
   279   6 C    3.850 --   288 C    1.323   277 C    1.292   280 C    1.185
   280   6 C    3.814 --   281 C    2.664   279 C    1.185
   281   6 C    3.785 --   280 C    2.664   282 C    1.152
   282   6 C    3.930 --   287 C    1.375   283 C    1.375   281 C    1.152
   283   6 C    3.878 --   284 C    1.462   282 C    1.375   305 H    0.988
   284   6 C    4.006 --   285 N    1.471   283 C    1.462   306 H    0.981
   285   7 N    2.924 --   286 C    1.472   284 C    1.471
   286   6 C    4.006 --   285 N    1.472   287 C    1.461   307 H    0.981
   287   6 C    3.880 --   286 C    1.461   282 C    1.375   308 H    0.988
   288   6 C    3.939 --   292 N    1.379   279 C    1.323   289 C    1.165
   289   6 C    3.845 --   290 C    1.691   288 C    1.165   309 H    1.000
   290   6 C    3.832 --   289 C    1.691   291 C    1.169   310 H    0.998
   291   6 C    3.930 --   292 N    1.400   253 C    1.297   290 C    1.169
   292   7 N    2.562 --   291 C    1.400   288 C    1.379
   293   1 H    1.026 --   255 C    0.997
   294   1 H    1.019 --   256 C    0.999
   295   1 H    1.078 --   258 N    0.961
   296   1 H    1.033 --   263 C    0.988
   297   1 H    1.048 --   264 C    0.981
   298   1 H    1.048 --   266 C    0.981
   299   1 H    1.032 --   267 C    0.988
   300   1 H    1.025 --   269 C    1.000
   301   1 H    1.030 --   270 C    0.997
   302   1 H    1.027 --   275 C    0.996
   303   1 H    1.019 --   276 C    0.999
   304   1 H    1.078 --   278 N    0.961
   305   1 H    1.033 --   283 C    0.988
   306   1 H    1.048 --   284 C    0.981
   307   1 H    1.048 --   286 C    0.981
   308   1 H    1.032 --   287 C    0.988
   309   1 H    1.025 --   289 C    1.000
   310   1 H    1.030 --   290 C    0.998
   311   6 C    3.836 --   349 C    1.296   312 C    1.280   126 C    1.219
   312   6 C    3.894 --   311 C    1.280   313 C    1.279   316 N    1.246
   313   6 C    3.813 --   314 C    1.571   312 C    1.279   351 H    0.996
   314   6 C    3.822 --   313 C    1.571   315 C    1.274   352 H    1.000
   315   6 C    3.901 --   317 C    1.292   314 C    1.274   316 N    1.241
   316   7 N    3.259 --   312 C    1.246   315 C    1.241   353 H    0.961
   317   6 C    3.850 --   326 C    1.323   315 C    1.292   318 C    1.184
   318   6 C    3.814 --   319 C    2.664   317 C    1.184
   319   6 C    3.785 --   318 C    2.664   320 C    1.152
   320   6 C    3.930 --   321 C    1.375   325 C    1.375   319 C    1.152
   321   6 C    3.878 --   322 C    1.461   320 C    1.375   354 H    0.988
   322   6 C    4.006 --   323 N    1.471   321 C    1.461   355 H    0.981
   323   7 N    2.924 --   322 C    1.471   324 C    1.471
   324   6 C    4.006 --   323 N    1.471   325 C    1.461   356 H    0.981
   325   6 C    3.880 --   324 C    1.461   320 C    1.375   357 H    0.988
   326   6 C    3.938 --   329 N    1.379   317 C    1.323   327 C    1.165
   327   6 C    3.844 --   328 C    1.691   326 C    1.165   358 H    1.000
   328   6 C    3.832 --   327 C    1.691   330 C    1.169   359 H    0.997
   329   7 N    2.563 --   330 C    1.400   326 C    1.379
   330   6 C    3.928 --   329 N    1.400   331 C    1.296   328 C    1.169
   331   6 C    3.836 --   330 C    1.296   332 C    1.280   127 C    1.219
   332   6 C    3.894 --   331 C    1.280   333 C    1.278   336 N    1.246
   333   6 C    3.813 --   334 C    1.571   332 C    1.278   360 H    0.996
   334   6 C    3.823 --   333 C    1.571   335 C    1.274   361 H    1.000
   335   6 C    3.901 --   337 C    1.292   334 C    1.274   336 N    1.241
   336   7 N    3.260 --   332 C    1.246   335 C    1.241   362 H    0.961
   337   6 C    3.850 --   346 C    1.323   335 C    1.292   338 C    1.184
   338   6 C    3.814 --   339 C    2.664   337 C    1.184
   339   6 C    3.785 --   338 C    2.664   340 C    1.152
   340   6 C    3.930 --   341 C    1.375   345 C    1.375   339 C    1.152
   341   6 C    3.878 --   342 C    1.461   340 C    1.375   363 H    0.988
   342   6 C    4.006 --   343 N    1.471   341 C    1.461   364 H    0.981
   343   7 N    2.924 --   344 C    1.471   342 C    1.471
   344   6 C    4.006 --   343 N    1.471   345 C    1.461   365 H    0.981
   345   6 C    3.880 --   344 C    1.461   340 C    1.375   366 H    0.988
   346   6 C    3.938 --   350 N    1.379   337 C    1.323   347 C    1.165
   347   6 C    3.844 --   348 C    1.691   346 C    1.165   367 H    1.000
   348   6 C    3.832 --   347 C    1.691   349 C    1.169   368 H    0.997
   349   6 C    3.928 --   350 N    1.400   311 C    1.296   348 C    1.169
   350   7 N    2.563 --   349 C    1.400   346 C    1.379
   351   1 H    1.027 --   313 C    0.996
   352   1 H    1.019 --   314 C    1.000
   353   1 H    1.078 --   316 N    0.961
   354   1 H    1.033 --   321 C    0.988
   355   1 H    1.048 --   322 C    0.981
   356   1 H    1.048 --   324 C    0.981
   357   1 H    1.032 --   325 C    0.988
   358   1 H    1.025 --   327 C    1.000
   359   1 H    1.030 --   328 C    0.997
   360   1 H    1.027 --   333 C    0.996
   361   1 H    1.019 --   334 C    1.000
   362   1 H    1.078 --   336 N    0.961
   363   1 H    1.033 --   341 C    0.988
   364   1 H    1.048 --   342 C    0.981
   365   1 H    1.048 --   344 C    0.981
   366   1 H    1.032 --   345 C    0.988
   367   1 H    1.025 --   347 C    1.000
   368   1 H    1.030 --   348 C    0.997
   369   6 C    3.836 --   407 C    1.296   370 C    1.280   128 C    1.219
   370   6 C    3.894 --   369 C    1.280   371 C    1.278   374 N    1.246
   371   6 C    3.813 --   372 C    1.571   370 C    1.278   409 H    0.996
   372   6 C    3.823 --   371 C    1.571   373 C    1.274   410 H    1.000
   373   6 C    3.901 --   375 C    1.292   372 C    1.274   374 N    1.241
   374   7 N    3.260 --   370 C    1.246   373 C    1.241   411 H    0.961
   375   6 C    3.850 --   384 C    1.323   373 C    1.292   376 C    1.184
   376   6 C    3.814 --   377 C    2.664   375 C    1.184
   377   6 C    3.785 --   376 C    2.664   378 C    1.152
   378   6 C    3.930 --   379 C    1.375   383 C    1.375   377 C    1.152
   379   6 C    3.878 --   380 C    1.461   378 C    1.375   412 H    0.988
   380   6 C    4.006 --   381 N    1.471   379 C    1.461   413 H    0.981
   381   7 N    2.924 --   382 C    1.472   380 C    1.471
   382   6 C    4.006 --   381 N    1.472   383 C    1.461   414 H    0.981
   383   6 C    3.880 --   382 C    1.461   378 C    1.375   415 H    0.988
   384   6 C    3.938 --   387 N    1.379   375 C    1.323   385 C    1.165
   385   6 C    3.844 --   386 C    1.691   384 C    1.165   416 H    1.000
   386   6 C    3.832 --   385 C    1.691   388 C    1.169   417 H    0.997
   387   7 N    2.563 --   388 C    1.400   384 C    1.379
   388   6 C    3.928 --   387 N    1.400   389 C    1.295   386 C    1.169
   389   6 C    3.836 --   388 C    1.295   390 C    1.280   129 C    1.219
   390   6 C    3.894 --   389 C    1.280   391 C    1.279   394 N    1.246
   391   6 C    3.813 --   392 C    1.571   390 C    1.279   418 H    0.996
   392   6 C    3.822 --   391 C    1.571   393 C    1.274   419 H    1.000
   393   6 C    3.901 --   395 C    1.292   392 C    1.274   394 N    1.241
   394   7 N    3.260 --   390 C    1.246   393 C    1.241   420 H    0.961
   395   6 C    3.850 --   404 C    1.323   393 C    1.292   396 C    1.184
   396   6 C    3.814 --   397 C    2.664   395 C    1.184
   397   6 C    3.785 --   396 C    2.664   398 C    1.152
   398   6 C    3.930 --   399 C    1.375   403 C    1.375   397 C    1.152
   399   6 C    3.878 --   400 C    1.461   398 C    1.375   421 H    0.988
   400   6 C    4.006 --   401 N    1.471   399 C    1.461   422 H    0.981
   401   7 N    2.924 --   402 C    1.471   400 C    1.471
   402   6 C    4.006 --   401 N    1.471   403 C    1.461   423 H    0.981
   403   6 C    3.880 --   402 C    1.461   398 C    1.375   424 H    0.988
   404   6 C    3.938 --   408 N    1.379   395 C    1.323   405 C    1.165
   405   6 C    3.844 --   406 C    1.691   404 C    1.165   425 H    1.000
   406   6 C    3.832 --   405 C    1.691   407 C    1.169   426 H    0.997
   407   6 C    3.928 --   408 N    1.400   369 C    1.296   406 C    1.169
   408   7 N    2.563 --   407 C    1.400   404 C    1.379
   409   1 H    1.027 --   371 C    0.996
   410   1 H    1.019 --   372 C    1.000
   411   1 H    1.078 --   374 N    0.961
   412   1 H    1.033 --   379 C    0.988
   413   1 H    1.048 --   380 C    0.981
   414   1 H    1.048 --   382 C    0.981
   415   1 H    1.032 --   383 C    0.988
   416   1 H    1.025 --   385 C    1.000
   417   1 H    1.030 --   386 C    0.997
   418   1 H    1.027 --   391 C    0.996
   419   1 H    1.019 --   392 C    1.000
   420   1 H    1.078 --   394 N    0.961
   421   1 H    1.033 --   399 C    0.988
   422   1 H    1.048 --   400 C    0.981
   423   1 H    1.048 --   402 C    0.981
   424   1 H    1.032 --   403 C    0.988
   425   1 H    1.025 --   405 C    1.000
   426   1 H    1.030 --   406 C    0.997
   427   6 C    3.836 --   465 C    1.295   428 C    1.280   130 C    1.219
   428   6 C    3.894 --   427 C    1.280   429 C    1.279   432 N    1.246
   429   6 C    3.812 --   430 C    1.571   428 C    1.279   467 H    0.996
   430   6 C    3.822 --   429 C    1.571   431 C    1.274   468 H    1.000
   431   6 C    3.901 --   433 C    1.292   430 C    1.274   432 N    1.241
   432   7 N    3.259 --   428 C    1.246   431 C    1.241   469 H    0.961
   433   6 C    3.850 --   442 C    1.323   431 C    1.292   434 C    1.184
   434   6 C    3.814 --   435 C    2.664   433 C    1.184
   435   6 C    3.785 --   434 C    2.664   436 C    1.152
   436   6 C    3.930 --   437 C    1.375   441 C    1.375   435 C    1.152
   437   6 C    3.878 --   438 C    1.461   436 C    1.375   470 H    0.988
   438   6 C    4.006 --   439 N    1.471   437 C    1.461   471 H    0.981
   439   7 N    2.924 --   440 C    1.472   438 C    1.471
   440   6 C    4.006 --   439 N    1.472   441 C    1.461   472 H    0.981
   441   6 C    3.880 --   440 C    1.461   436 C    1.375   473 H    0.988
   442   6 C    3.938 --   445 N    1.379   433 C    1.323   443 C    1.165
   443   6 C    3.844 --   444 C    1.691   442 C    1.165   474 H    1.000
   444   6 C    3.832 --   443 C    1.691   446 C    1.169   475 H    0.998
   445   7 N    2.562 --   446 C    1.400   442 C    1.379
   446   6 C    3.929 --   445 N    1.400   447 C    1.296   444 C    1.169
   447   6 C    3.836 --   446 C    1.296   448 C    1.280   131 C    1.219
   448   6 C    3.894 --   447 C    1.280   449 C    1.279   452 N    1.246
   449   6 C    3.813 --   450 C    1.570   448 C    1.279   476 H    0.997
   450   6 C    3.822 --   449 C    1.570   451 C    1.274   477 H    1.000
   451   6 C    3.901 --   453 C    1.291   450 C    1.274   452 N    1.241
   452   7 N    3.260 --   448 C    1.246   451 C    1.241   478 H    0.961
   453   6 C    3.849 --   462 C    1.323   451 C    1.291   454 C    1.184
   454   6 C    3.814 --   455 C    2.664   453 C    1.184
   455   6 C    3.785 --   454 C    2.664   456 C    1.152
   456   6 C    3.930 --   457 C    1.375   461 C    1.375   455 C    1.152
   457   6 C    3.878 --   458 C    1.461   456 C    1.375   479 H    0.988
   458   6 C    4.006 --   459 N    1.471   457 C    1.461   480 H    0.981
   459   7 N    2.924 --   458 C    1.471   460 C    1.471
   460   6 C    4.006 --   459 N    1.471   461 C    1.461   481 H    0.981
   461   6 C    3.880 --   460 C    1.461   456 C    1.375   482 H    0.988
   462   6 C    3.938 --   466 N    1.379   453 C    1.323   463 C    1.165
   463   6 C    3.844 --   464 C    1.691   462 C    1.165   483 H    1.000
   464   6 C    3.832 --   463 C    1.691   465 C    1.169   484 H    0.997
   465   6 C    3.928 --   466 N    1.401   427 C    1.295   464 C    1.169
   466   7 N    2.562 --   465 C    1.401   462 C    1.379
   467   1 H    1.027 --   429 C    0.996
   468   1 H    1.019 --   430 C    1.000
   469   1 H    1.078 --   432 N    0.961
   470   1 H    1.033 --   437 C    0.988
   471   1 H    1.048 --   438 C    0.981
   472   1 H    1.048 --   440 C    0.981
   473   1 H    1.032 --   441 C    0.988
   474   1 H    1.025 --   443 C    1.000
   475   1 H    1.030 --   444 C    0.998
   476   1 H    1.027 --   449 C    0.997
   477   1 H    1.019 --   450 C    1.000
   478   1 H    1.078 --   452 N    0.961
   479   1 H    1.033 --   457 C    0.988
   480   1 H    1.048 --   458 C    0.981
   481   1 H    1.048 --   460 C    0.981
   482   1 H    1.032 --   461 C    0.988
   483   1 H    1.025 --   463 C    1.000
   484   1 H    1.030 --   464 C    0.997
   485   6 C    3.836 --   523 C    1.296   486 C    1.280   132 C    1.218
   486   6 C    3.894 --   485 C    1.280   487 C    1.278   490 N    1.246
   487   6 C    3.813 --   488 C    1.570   486 C    1.278   525 H    0.997
   488   6 C    3.822 --   487 C    1.570   489 C    1.274   526 H    0.999
   489   6 C    3.900 --   491 C    1.291   488 C    1.274   490 N    1.241
   490   7 N    3.260 --   486 C    1.246   489 C    1.241   527 H    0.962
   491   6 C    3.849 --   500 C    1.323   489 C    1.291   492 C    1.185
   492   6 C    3.814 --   493 C    2.664   491 C    1.185
   493   6 C    3.785 --   492 C    2.664   494 C    1.152
   494   6 C    3.930 --   495 C    1.375   499 C    1.375   493 C    1.152
   495   6 C    3.878 --   496 C    1.461   494 C    1.375   528 H    0.988
   496   6 C    4.006 --   497 N    1.471   495 C    1.461   529 H    0.981
   497   7 N    2.924 --   498 C    1.471   496 C    1.471
   498   6 C    4.006 --   497 N    1.471   499 C    1.461   530 H    0.981
   499   6 C    3.880 --   498 C    1.461   494 C    1.375   531 H    0.988
   500   6 C    3.939 --   503 N    1.379   491 C    1.323   501 C    1.164
   501   6 C    3.846 --   502 C    1.691   500 C    1.164   532 H    1.000
   502   6 C    3.833 --   501 C    1.691   504 C    1.168   533 H    0.999
   503   7 N    2.562 --   504 C    1.400   500 C    1.379
   504   6 C    3.932 --   503 N    1.400   505 C    1.298   502 C    1.168
   505   6 C    3.835 --   504 C    1.298   506 C    1.282   133 C    1.214
   506   6 C    3.895 --   505 C    1.282   507 C    1.277   510 N    1.246
   507   6 C    3.814 --   508 C    1.571   506 C    1.277   534 H    0.998
   508   6 C    3.824 --   507 C    1.571   509 C    1.274   535 H    0.999
   509   6 C    3.901 --   511 C    1.292   508 C    1.274   510 N    1.241
   510   7 N    3.260 --   506 C    1.246   509 C    1.241   536 H    0.961
   511   6 C    3.850 --   520 C    1.323   509 C    1.292   512 C    1.185
   512   6 C    3.814 --   513 C    2.664   511 C    1.185
   513   6 C    3.785 --   512 C    2.664   514 C    1.152
   514   6 C    3.930 --   515 C    1.375   519 C    1.375   513 C    1.152
   515   6 C    3.878 --   516 C    1.461   514 C    1.375   537 H    0.988
   516   6 C    4.006 --   517 N    1.471   515 C    1.461   538 H    0.981
   517   7 N    2.924 --   518 C    1.471   516 C    1.471
   518   6 C    4.006 --   517 N    1.471   519 C    1.461   539 H    0.981
   519   6 C    3.880 --   518 C    1.461   514 C    1.375   540 H    0.988
   520   6 C    3.938 --   524 N    1.378   511 C    1.323   521 C    1.165
   521   6 C    3.844 --   522 C    1.691   520 C    1.165   541 H    1.000
   522   6 C    3.832 --   521 C    1.691   523 C    1.169   542 H    0.998
   523   6 C    3.929 --   524 N    1.401   485 C    1.296   522 C    1.169
   524   7 N    2.562 --   523 C    1.401   520 C    1.378
   525   1 H    1.027 --   487 C    0.997
   526   1 H    1.019 --   488 C    0.999
   527   1 H    1.078 --   490 N    0.962
   528   1 H    1.033 --   495 C    0.988
   529   1 H    1.048 --   496 C    0.981
   530   1 H    1.048 --   498 C    0.981
   531   1 H    1.032 --   499 C    0.988
   532   1 H    1.025 --   501 C    1.000
   533   1 H    1.032 --   502 C    0.999
   534   1 H    1.026 --   507 C    0.998
   535   1 H    1.019 --   508 C    0.999
   536   1 H    1.078 --   510 N    0.961
   537   1 H    1.033 --   515 C    0.988
   538   1 H    1.048 --   516 C    0.981
   539   1 H    1.048 --   518 C    0.981
   540   1 H    1.032 --   519 C    0.988
   541   1 H    1.025 --   521 C    1.000
   542   1 H    1.031 --   522 C    0.998
   543   6 C    3.837 --   581 C    1.299   544 C    1.283   134 C    1.213
   544   6 C    3.894 --   543 C    1.283   545 C    1.277   548 N    1.246
   545   6 C    3.815 --   546 C    1.571   544 C    1.277   583 H    0.998
   546   6 C    3.823 --   545 C    1.571   547 C    1.274   584 H    0.999
   547   6 C    3.901 --   549 C    1.291   546 C    1.274   548 N    1.241
   548   7 N    3.261 --   544 C    1.246   547 C    1.241   585 H    0.962
   549   6 C    3.849 --   558 C    1.322   547 C    1.291   550 C    1.185
   550   6 C    3.814 --   551 C    2.663   549 C    1.185
   551   6 C    3.785 --   550 C    2.663   552 C    1.153
   552   6 C    3.930 --   557 C    1.375   553 C    1.375   551 C    1.153
   553   6 C    3.878 --   554 C    1.462   552 C    1.375   586 H    0.988
   554   6 C    4.006 --   555 N    1.471   553 C    1.462   587 H    0.981
   555   7 N    2.924 --   556 C    1.471   554 C    1.471
   556   6 C    4.006 --   555 N    1.471   557 C    1.461   588 H    0.981
   557   6 C    3.880 --   556 C    1.461   552 C    1.375   589 H    0.988
   558   6 C    3.939 --   561 N    1.381   549 C    1.322   559 C    1.164
   559   6 C    3.847 --   560 C    1.693   558 C    1.164   590 H    1.000
   560   6 C    3.835 --   559 C    1.693   562 C    1.166   591 H    0.999
   561   7 N    2.562 --   562 C    1.397   558 C    1.381
   562   6 C    3.934 --   561 N    1.397   563 C    1.303   560 C    1.166
   563   6 C    3.835 --   562 C    1.303   564 C    1.285   135 C    1.205
   564   6 C    3.898 --   563 C    1.285   565 C    1.275   568 N    1.245
   565   6 C    3.815 --   566 C    1.572   564 C    1.275   592 H    0.998
   566   6 C    3.825 --   565 C    1.572   567 C    1.273   593 H    0.999
   567   6 C    3.901 --   569 C    1.293   566 C    1.273   568 N    1.241
   568   7 N    3.260 --   564 C    1.245   567 C    1.241   594 H    0.962
   569   6 C    3.851 --   578 C    1.322   567 C    1.293   570 C    1.185
   570   6 C    3.814 --   571 C    2.664   569 C    1.185
   571   6 C    3.785 --   570 C    2.664   572 C    1.152
   572   6 C    3.930 --   577 C    1.375   573 C    1.375   571 C    1.152
   573   6 C    3.878 --   574 C    1.461   572 C    1.375   595 H    0.988
   574   6 C    4.006 --   575 N    1.471   573 C    1.461   596 H    0.981
   575   7 N    2.924 --   576 C    1.472   574 C    1.471
   576   6 C    4.006 --   575 N    1.472   577 C    1.461   597 H    0.981
   577   6 C    3.880 --   576 C    1.461   572 C    1.375   598 H    0.988
   578   6 C    3.938 --   582 N    1.380   569 C    1.322   579 C    1.165
   579   6 C    3.846 --   580 C    1.692   578 C    1.165   599 H    1.000
   580   6 C    3.834 --   579 C    1.692   581 C    1.167   600 H    0.999
   581   6 C    3.931 --   582 N    1.400   543 C    1.299   580 C    1.167
   582   7 N    2.564 --   581 C    1.400   578 C    1.380
   583   1 H    1.026 --   545 C    0.998
   584   1 H    1.019 --   546 C    0.999
   585   1 H    1.078 --   548 N    0.962
   586   1 H    1.033 --   553 C    0.988
   587   1 H    1.048 --   554 C    0.981
   588   1 H    1.047 --   556 C    0.981
   589   1 H    1.032 --   557 C    0.988
   590   1 H    1.025 --   559 C    1.000
   591   1 H    1.031 --   560 C    0.999
   592   1 H    1.026 --   565 C    0.998
   593   1 H    1.019 --   566 C    0.999
   594   1 H    1.078 --   568 N    0.962
   595   1 H    1.033 --   573 C    0.988
   596   1 H    1.048 --   574 C    0.981
   597   1 H    1.048 --   576 C    0.981
   598   1 H    1.032 --   577 C    0.988
   599   1 H    1.025 --   579 C    1.000
   600   1 H    1.032 --   580 C    0.999
 ---------------------------------------------------------------------------

Topologies differ in total number of bonds
Writing topology from bond orders to xtbtopo.mol

 dipole moment from electron density (au)
     X       Y       Z   
-404.2155  -0.1814  -0.0050  total (Debye): 1027.414


           -------------------------------------------------
          | TOTAL ENERGY            -1192.757877962255 Eh   |
          | GRADIENT NORM               0.138893764748 Eh/α |
          | HOMO-LUMO GAP               0.048172213746 eV   |
           -------------------------------------------------
########################################################################
[WARNING] Runtime exception occurred
-1- restart_readRestart: Dimension missmatch in restart file.
########################################################################

------------------------------------------------------------------------
 * finished run on 2022/07/28 at 20:39:27.695     
------------------------------------------------------------------------
 total:
 * wall-time:     0 d,  0 h,  6 min, 34.312 sec
 *  cpu-time:     0 d,  0 h,  6 min, 31.221 sec
 * ratio c/w:     0.992 speedup
 SCF:
 * wall-time:     0 d,  0 h,  6 min, 30.815 sec
 *  cpu-time:     0 d,  0 h,  6 min, 27.792 sec
 * ratio c/w:     0.992 speedup

