600
 energy: -1044.287433981124 gnorm: 0.000854324809 xtb: 6.5.1 (b24c23e)
C          160.74487387006670       -0.06582057237099       -0.06177065986248
C          161.35256992518717        0.68007663073354       -1.06527813365990
C          160.70827780903136        1.43879995465777       -2.08094113027853
C          161.67871179796100        2.01397543828555       -2.85482554748577
C          162.94125226012142        1.62173354172603       -2.33431012752349
N          162.69904386221614        0.82095445788145       -1.25966596933625
C          164.21038684642053        1.98110852800196       -2.82205287603459
C          164.23519146414236        2.83237181666324       -3.94906434382327
C          164.25150758220593        3.56864842419358       -4.91354602730503
C          164.27827412643782        4.42926220557994       -6.03454935030500
C          163.09609333290749        4.90890063330706       -6.61088116258648
C          163.17768029506283        5.75139408948731       -7.70512584801218
N          164.33244684112393        6.13345686286736       -8.24464582259292
C          165.46069220896601        5.68141764571729       -7.70297826644516
C          165.48864025060226        4.83582343368271       -6.60840845333606
C          165.43845790443524        1.56899575151100       -2.27928775235430
C          166.72126625382802        1.97116824467843       -2.82129333428639
C          167.66009795270801        1.39308069557146       -2.04281124422522
N          165.61019469762334        0.76655723966652       -1.20070139993915
C          166.94594480314080        0.64023388616938       -1.02983444213546
C          167.59319644301681       -0.08748542011670       -0.01461210539046
C          166.96084953232830       -0.81977264038556        1.00799433460440
C          167.59711941780606       -1.57360223703658        2.02821809100183
C          166.62199228908355       -2.14694519851930        2.79904844052063
C          165.36443016101674       -1.75956453727475        2.26794442077623
N          165.61554799870225       -0.95858901196834        1.19078512290895
C          164.09647578685866       -2.13036461256954        2.74937544030253
C          164.07176803352746       -2.97877739669010        3.87728601904714
C          164.05574242160733       -3.71013995381377        4.84581301608217
C          164.03327746314397       -4.56687707153298        5.96949012557027
C          165.21872689586280       -5.03127991119614        6.55183974525709
C          165.14253869472884       -5.86903319821329        7.65011842884177
N          163.99007882536065       -6.26034395533272        8.18805925558720
C          162.85880968932085       -5.82311746358339        7.64050317483488
C          162.82535455031578       -4.98354821923564        6.54150828501439
C          162.86734509254674       -1.72909719554656        2.19600897496634
C          161.57744857045569       -2.13395304033029        2.72739560219423
C          160.64526294353882       -1.55650912296369        1.94234238926858
C          161.36898353025234       -0.80221335864455        0.93371883893192
N          162.70953247530409       -0.93175747363595        1.12089141703055
H          159.65964304666477       -0.06499829629535       -0.06587291115535
H          159.63956034663391        1.52624703939613       -2.19415407558803
H          161.54277444225175        2.65382562795241       -3.71198316575663
H          163.41620131647107        0.39116453360537       -0.68507417662663
H          162.13400365960186        4.62321228838029       -6.20298244428505
H          162.27645168537876        6.13881292192248       -8.17165184077806
H          166.38471240404698        6.01267741076696       -8.16799487913022
H          166.43068614544555        4.49185857712617       -6.19875600152353
H          166.85614904820918        2.61034162688253       -3.67919068016161
H          168.73329445558403        1.46027617059031       -2.12133156862453
H          168.66429261563505       -1.66590149531234        2.14813224722102
H          166.75434400383068       -2.78417256708477        3.65851690720268
H          164.90164859741222       -0.53458731905855        0.60758073590196
H          166.17905761105339       -4.73740895684905        6.14552344555887
H          166.04624727336122       -6.24456377472457        8.12146615326671
H          161.93685140306368       -6.16177620271746        8.10440350611304
H          161.88109369903489       -4.65147527711225        6.12723119909839
H          161.43766019974453       -2.77253969136630        3.58517044233828
H          159.57048064718316       -1.61583643050816        2.01183638611472
C          266.47578818831863       -0.12860804473227        0.02526613102037
C          265.87721863326385       -0.79828831810301        1.08635652804888
C          266.53034231476073       -1.47497339353426        2.15295046031388
C          265.56660786709728       -1.99697754012298        2.97168182047634
C          264.29960572118910       -1.65345798096587        2.42814999515457
N          264.53240082360725       -0.93225120925469        1.29669652773981
C          263.03478432491505       -1.99111973069381        2.94201319894647
C          263.02001772758643       -2.75677314896356        4.12906057933043
C          263.01252316856301       -3.41507592439989        5.14849585579325
C          262.99345404091571       -4.18116744383292        6.33626959982187
C          264.17920381425290       -4.55495957134113        6.97963970960834
C          264.10443558733675       -5.30467032468239        8.13996228212842
N          262.95309335922570       -5.69353465695299        8.68199040058789
C          261.82147557952987       -5.34269291844592        8.07618573661389
C          261.78668373535305       -4.59444919661511        6.91310280611218
C          261.80154246486063       -1.63381528118888        2.37291874070477
C          260.52475492293632       -2.02258539710795        2.93816693535410
C          259.57786588899307       -1.50222841538476        2.12937170045505
N          261.61808505677078       -0.89744569521168        1.24976262960354
C          260.28069429355514       -0.79592690875008        1.07599913082817
C          259.62206080935181       -0.12144619183514        0.03098690331934
C          260.24612382715560        0.55931447968142       -1.03219939421632
C          259.60241824421576        1.26312877690441       -2.08279066653778
C          260.57130302433671        1.78249819480998       -2.89842485865839
C          261.83275980201790        1.41233336058261       -2.36462160121006
N          261.58993169786800        0.67672921155189       -1.23977970934061
C          263.09630362923861        1.73963686508632       -2.88747229830906
C          263.11085935230250        2.50656811705001       -4.07253801561443
C          263.12116169692558        3.16657902641586       -5.09111294247227
C          263.13600918483854        3.93415909892236       -6.27763336429505
C          261.94643889515652        4.32847909207401       -6.90165420883698
C          262.01494402855178        5.07899452636562       -8.06177446558612
N          263.16373175198004        5.45050452051725       -8.62115553208208
C          264.29891250785806        5.08015328175917       -8.03388143401305
C          264.34004576924747        4.32899978537638       -6.87287464359270
C          264.33089104909203        1.36911419172530       -2.32493833187033
C          265.61532426692781        1.72912026347439       -2.90012286141544
C          266.55542750691177        1.20711342292932       -2.08625976657892
C          265.84202219082135        0.53093422246944       -1.01680113696383
N          264.49955117825596        0.65017122982463       -1.19757728254800
H          267.56100441464537       -0.12737362621774        0.02081882595379
H          267.60005128283666       -1.54673932362148        2.26791019576308
H          265.71012615474200       -2.57060543351134        3.87331197141389
H          263.81039841347058       -0.55054426224177        0.69486004829732
H          265.13868360235949       -4.25958432740663        6.57245564568892
H          265.00848967701643       -5.60821606376464        8.66001623468770
H          260.90038092140099       -5.67691029114688        8.54502642237267
H          260.84224954269575       -4.33067693594517        6.45257239061996
H          260.39899330905638       -2.61527403957735        3.83014256386814
H          258.50597737565454       -1.58153081255225        2.21225837165499
H          258.53477506588223        1.36132552777684       -2.19178979220290
H          260.43213356173788        2.37258512742121       -3.78988413696484
H          262.30825328767571        0.27962805028396       -0.64323200172033
H          260.98883030319695        4.04745525213126       -6.48002554385192
H          261.10774403982731        5.39769042071863       -8.56702495464346
H          265.21771243035357        5.40063762919259       -8.51662754543857
H          265.28733230992100        4.04951421276036       -6.42788409583968
H          265.74654741318597        2.30307862464819       -3.80369932254546
H          267.62944217717330        1.25731782663227       -2.17263187070079
C          169.00328801132233       -0.09303156153648       -0.00784544182155
C          170.21980762187812       -0.10241505504631        0.00244144792204
C          179.96571783686647       -0.12782123500821        0.00693246823114
C          181.18313262361025       -0.12546688768827        0.01223949243440
C          190.95390188867404       -0.12726580214505        0.01846156778875
C          192.17236067237943       -0.12933626932675        0.02354571326395
C          201.96449835028952       -0.15230181505905        0.04162328362256
C          203.18343299113835       -0.15408376727395        0.04346293841747
C          212.98614866769245       -0.14935396757039        0.05278954199598
C          214.20514110637029       -0.14644002750657        0.05540399861998
C          224.00968133893215       -0.13333392817250        0.05580524327889
C          225.22867247065417       -0.13096373964863        0.05806023402137
C          235.02634235490120       -0.13718829874773        0.06021515432416
C          236.24508190709651       -0.13818471582339        0.06207133295758
C          246.02227059010107       -0.13161777361227        0.05824071677186
C          247.24008147259215       -0.12879523623064        0.06108023968020
C          256.99544898716925       -0.11538579768576        0.03549177471536
C          258.21238784265444       -0.11995389203121        0.03527356122564
C          171.62925839822577       -0.10946711556607        0.00338608727589
C          172.25935617491032       -0.00963879939051       -1.25206787925220
C          171.62575271845273        0.07401687658878       -2.51772289797583
C          172.60422935376866        0.13794302344541       -3.47389932174068
C          173.85924490684116        0.09306178321798       -2.81498192093190
N          173.60544440289326        0.00426772168521       -1.47682684102454
C          175.12810346030773        0.13597553652981       -3.42220255774434
C          175.14121483113729        0.22999307535993       -4.83195099794136
C          175.14625953521431        0.30147894219877       -6.04337938006143
C          175.15724371297492        0.38325518978374       -7.45446790345303
C          176.35938159428969        0.45008807407138       -8.16859353678780
C          176.31496728322043        0.52631046388674       -9.54922071851386
N          175.17832516180783        0.53911502874513      -10.24098540463978
C          174.03135217464126        0.47590913646598       -9.56955791173812
C          173.96615838196351        0.39778109750635       -8.18983763494618
C          176.36367791291843        0.09259767777743       -2.75819885004214
C          177.63613315664335        0.16565516547600       -3.44858601659380
C          178.58919839488132        0.09444108068379       -2.49568151262129
N          176.55565960695000       -0.02047991624186       -1.42107222558550
C          177.89453459856443       -0.02714195734589       -1.22958027525340
C          178.55724246092012       -0.12725190300833        0.00792222686871
C          177.92567558930898       -0.22741306011351        1.26331724160090
C          178.55745396314674       -0.35008167588004        2.52658262080734
C          177.57849630368091       -0.42038486102631        3.48164250925959
C          176.32410544524387       -0.34730692447481        2.82412787459856
N          176.57947609870712       -0.23364680803715        1.48774922953626
C          175.05573167601321       -0.38439609658322        3.43237348983679
C          175.04305491811263       -0.48260471275401        4.84176074666205
C          175.03799873816146       -0.55922527285693        6.05291200162987
C          175.02710110763147       -0.64508768746721        7.46375305160743
C          173.82484370535056       -0.69517271150637        8.17903065309302
C          173.86938438292322       -0.77546777455493        9.55943200097331
N          175.00637375575420       -0.80792467522963       10.24995158697464
C          176.15347711052436       -0.76101008797397        9.57742465351222
C          176.21854234098896       -0.68015523266525        8.19784190482809
C          173.81944558708514       -0.32981333406952        2.76961581440928
C          172.54631976106100       -0.36985361230305        3.46209422128979
C          171.59338874359369       -0.29677567117452        2.50911034537729
C          172.28942017220913       -0.21408294656128        1.24034488260333
N          173.62872958634375       -0.23530047214432        1.43177750879442
H          170.55906790323999        0.07866478239213       -2.67176615585682
H          172.47438874345747        0.20831729665193       -4.54176712837466
H          174.31353375014524       -0.04981738969298       -0.75223186481823
H          177.30755169673125        0.44197110489842       -7.64467130918974
H          177.23206074957645        0.57928963732226      -10.12872355987344
H          173.12304044624256        0.48831093897516      -10.16514854742620
H          173.01002064716363        0.34762043177430       -7.68297321205262
H          177.75505090467072        0.26257290268422       -4.51587452422468
H          179.66030511939829        0.12624608183863       -2.61260656016306
H          179.62350871897354       -0.38564451206048        2.67954507246747
H          177.70774099766140       -0.51756691056180        4.54748269793194
H          175.87195013847750       -0.16533378919825        0.76380891544042
H          172.87627773616902       -0.67082594335706        7.65635167462795
H          172.95214591795914       -0.81539811707520       10.13973455416205
H          177.06208348995386       -0.78927314446080       10.17199037757276
H          177.17488705932786       -0.64379784373363        7.69024979185088
H          172.42678085755148       -0.44219427767589        4.53127983609078
H          170.52176954839297       -0.29134704560768        2.62756254258596
C          182.59141216894213       -0.12510085816037        0.01145585774579
C          183.22506121688170       -0.55371017261835       -1.17166122391218
C          182.59774058118600       -1.00417715639081       -2.36019108010983
C          183.58052823029843       -1.33495826389397       -3.25495435725002
C          184.83240312197171       -1.09957719719768       -2.63182677370685
N          184.57226901006652       -0.62802571082485       -1.37769259347857
C          186.10276945836276       -1.32779852543252       -3.19299327838961
C          186.11758552977000       -1.81598300441538       -4.51909448476753
C          186.12718784192492       -2.22417790946564       -5.66191031275711
C          186.14428796707861       -2.69610526520003       -6.99419829673905
C          187.34980054577480       -2.95799863921060       -7.65594798982453
C          187.31199104827382       -3.41531663252940       -8.96103035822506
N          186.17862158451106       -3.62133191196413       -9.62709571915508
C          185.02850505184202       -3.37498600893218       -9.00503388692285
C          184.95672578350658       -2.91580664241502       -7.70193531429484
C          187.33890176317308       -1.12004047061581       -2.56217709287191
C          188.60732133449659       -1.41991555771225       -3.19621664068530
C          189.56402416302922       -1.09395502307986       -2.30207814463665
N          187.53770048430002       -0.62657267725864       -1.31507426168726
C          188.87718732595215       -0.58971185816510       -1.13051192556677
C          189.54584545596575       -0.12497926797170        0.01867389477363
C          188.90873903516001        0.34819566620520        1.18427576021484
C          189.53254936204056        0.84854766507207        2.35412309946212
C          188.54931767489802        1.17954550696534        3.24800857564576
C          187.29907780356422        0.89510807940173        2.64277108165650
N          187.56149981255550        0.39998575540987        1.39763777199173
C          186.02979538330936        1.08848057505676        3.21912972674427
C          186.01719296823882        1.58317835406801        4.54276831071662
C          186.01036592676994        1.99768198270452        5.68333871654201
C          185.99502526297653        2.47662957577542        7.01315549407145
C          184.79040628388654        2.68660226874957        7.69465101270343
C          184.82965308657833        3.15332742260711        8.99639879039612
N          185.96365066899094        3.41591365979026        9.64107006469078
C          187.11299726690117        3.21931189755203        9.00012883367750
C          187.18333931768029        2.75558054041250        7.69855832484751
C          184.79234720415610        0.84044469017236        2.60533497259978
C          183.52201666506815        1.08945193343128        3.25789082805754
C          182.56556365659193        0.75540321795830        2.36621712972153
C          183.25610018426246        0.29992075349580        1.17655159044200
N          184.59588494773712        0.36413182582283        1.35197069932462
H          181.53213434830053       -1.07134207889649       -2.50533480560465
H          183.45514172633818       -1.71352630015894       -4.25648930318878
H          185.27588583963890       -0.37206729234930       -0.69298174742528
H          188.29552771419591       -2.80329092830814       -7.15074963199317
H          188.23182205625665       -3.62639750646788       -9.49881759554524
H          184.12308467312110       -3.55366564604661       -9.57776625370017
H          183.99824137052599       -2.72747348889946       -7.23342348215901
H          188.72181854163648       -1.82839903437789       -4.18748309479382
H          190.63308780522806       -1.18446879932750       -2.40033850914051
H          190.59648029987596        0.94774198658835        2.48867450467595
H          188.67336655739123        1.58808855011980        4.23785763218874
H          186.85912990066797        0.11009037685579        0.72524213899874
H          183.84430437325977        2.48501949544705        7.20705121995407
H          183.91049943173741        3.32480541061503        9.54916825917037
H          188.01899428706335        3.44362535543346        9.55575079470518
H          188.14129214965914        2.60902747761150        7.21431515695372
H          183.40635882481740        1.47263134698715        4.25908760521956
H          181.49472226932517        0.81109435525695        2.47621506990979
C          193.58011189889061       -0.13411958119932        0.02460671400213
C          194.22130244101319       -0.32914702219347       -1.21606051502395
C          193.60527671742929       -0.49205272895773       -2.48146789005916
C          194.59302599612647       -0.69609201403973       -3.40808514577256
C          195.83801009541244       -0.65716106908695       -2.73085035169962
N          195.56874096245949       -0.42363983383781       -1.41318524710891
C          197.10764677683736       -0.85465310653036       -3.30563226269640
C          197.12289611658849       -1.14480478690545       -4.68874897598608
C          197.13021657830677       -1.39209085218312       -5.87684761644338
C          197.14462238846207       -1.68008626114241       -7.26063985268202
C          198.34650258892614       -1.89940929067307       -7.94408000270894
C          198.30570880298308       -2.17877724556902       -9.29838644059365
N          197.17272325739259       -2.25064463409231       -9.99258673245127
C          196.02607152412062       -2.04331876180267       -9.35031143855895
C          195.95746889478539       -1.75747490330516       -7.99840035947857
C          198.34200272401688       -0.79073041868186       -2.64154811720011
C          199.60623425062906       -1.04470416864290       -3.30315668011346
C          200.56510132993620       -0.85424986188639       -2.37296658304102
N          198.54524630875488       -0.46534482003569       -1.34106278901192
C          199.88445893024331       -0.47948056625336       -1.15087032507187
C          200.55653609302777       -0.15095964501268        0.04305584065677
C          199.91456043740612        0.18329237234976        1.25378448420990
C          200.52964689775621        0.54566841314803        2.47738698146828
C          199.54151734089726        0.74230237383641        3.40500128222166
C          198.29638471065982        0.50944693870716        2.76826821957492
N          198.56652529674045        0.18525460665674        1.46988463933857
C          197.02690558433881        0.56918540187072        3.37335517415543
C          197.01271574502337        0.86335432801864        4.75561349630962
C          197.00636185173798        1.11387862197341        5.94301921021620
C          196.98939101090457        1.40688034659985        7.32575196484985
C          195.78732943591623        1.45579336622073        8.04171928428767
C          195.82406129823767        1.74638549117411        9.39371628161616
N          196.95335456924028        1.98466383334964       10.05601257222084
C          198.10006510214018        1.94044106435548        9.38267239984506
C          198.17261037195189        1.65856837877967        8.03004169722563
C          195.79141124566527        0.36582794276781        2.73993851495738
C          194.52610262646999        0.41074126126125        3.44557319867464
C          193.56724627995720        0.21175904462567        2.51693751084491
C          194.24974342820761        0.05265518766645        1.24939669887897
N          195.58920188739870        0.13537194235588        1.41956226349349
H          192.54356326492137       -0.45234339009835       -2.65795038945855
H          194.47505114590356       -0.85846353197566       -4.46724026482637
H          196.26524870595728       -0.33491449745319       -0.68070773897430
H          199.29177522919261       -1.85047064196644       -7.41711377712064
H          199.22274538992920       -2.35318529296308       -9.85372021978053
H          195.12083833834458       -2.10957687927385       -9.94704671840335
H          195.00165542665428       -1.59552066299719       -7.51484525750540
H          199.71686029915935       -1.33114425543674       -4.33672592527605
H          201.63199988152581       -0.95794119475809       -2.47852330253896
H          201.59139318774970        0.64623140350057        2.62549047753765
H          199.65946189011765        1.02423193799413        4.43876608665473
H          197.86996374074488       -0.02882980791445        0.76384224179589
H          194.84522752556043        1.26793046455855        7.54107239077418
H          194.90690300289083        1.79056830836378        9.97399197298790
H          199.00220253713320        2.13991611249910        9.95381555732551
H          199.12845519568597        1.63263838041802        7.52069473920082
H          194.41482831706085        0.57047943954685        4.50607955873337
H          192.49961704819165        0.16508369854303        2.65400221892313
C          204.59129977916777       -0.15569017521319        0.04209280822206
C          205.23399598017693       -0.33144739926834       -1.20116528128954
C          204.62069805382424       -0.48324075351608       -2.46900842333421
C          205.61001542143711       -0.67512674328675       -3.39642158421476
C          206.85397493267584       -0.64024176080639       -2.71719932135506
N          206.58212658023524       -0.42040938320803       -1.39758573422324
C          208.12390673243425       -0.83084965330510       -3.29381288110528
C          208.13826014773599       -1.10879423464454       -4.67955639091486
C          208.14361686402174       -1.34590370493703       -5.86972249775204
C          208.15676198044559       -1.62289794540500       -7.25579225636614
C          209.35807155607540       -1.83350081194237       -7.94291647910906
C          209.31584716458929       -2.10095458889271       -9.29963492868129
N          208.18204119394960       -2.16933157704765       -9.99267544389684
C          207.03580635994484       -1.97033472507431       -9.34684646721556
C          206.96862584743212       -1.69659860658770       -7.99240165992836
C          209.35935272763510       -0.77154951752252       -2.63131122296765
C          210.62253303695996       -1.01736440681860       -3.29813483893058
C          211.58333111382535       -0.83360553167739       -2.36852899693973
N          209.56520888303262       -0.45789086324365       -1.32846076854667
C          210.90498470411225       -0.47140808433164       -1.14153907158896
C          211.57827210288036       -0.15234270200342        0.05432028356755
C          210.93526275762642        0.16859802836044        1.26812805289885
C          211.54847822632948        0.52105400234093        2.49544654965169
C          210.55904434323185        0.70615914239992        3.42406655625404
C          209.31504448811791        0.47537161512514        2.78430916846429
N          209.58707518774440        0.16408889832775        1.48327304187632
C          208.04525269649039        0.52490137802556        3.38972308514602
C          208.03066761642864        0.81000225217585        4.77395668922677
C          208.02271079319706        1.05701800510342        5.96208710254413
C          208.00812788680196        1.34290010302336        7.34631947052973
C          206.80759615956367        1.39228198036437        8.06460099580591
C          206.84791527576601        1.67597142665343        9.41809511629945
N          207.97915434240107        1.90707362011444       10.07946715381632
C          209.12456574986317        1.86209582417162        9.40383134519568
C          209.19354367820137        1.58691457922541        8.04976291516935
C          206.80974206464700        0.32048260969366        2.75681442950741
C          205.54664219153901        0.35186847785932        3.46689380120575
C          204.58597781987456        0.15815777099493        2.53918092462376
C          205.26445667722260        0.01567467725163        1.26784080175563
N          206.60414216078647        0.10232317927234        1.43467119486841
H          203.55942359129804       -0.44579759114716       -2.64696041999071
H          205.49354889998355       -0.82716135043156       -4.45727541267753
H          207.27697013593567       -0.33787083157113       -0.66276014314772
H          210.30411172930968       -1.78693681390087       -7.41720327193553
H          210.23246693658797       -2.26829010083491       -9.85796494228570
H          206.12984145611821       -2.03336475005748       -9.94269946689652
H          206.01324379741874       -1.54094899035568       -7.50582193496099
H          210.73125600934671       -1.29411717617470       -4.33453703009182
H          212.65015329687290       -0.93420288556220       -2.47767903502324
H          212.60985595050144        0.62288249427179        2.64529442802963
H          210.67550393687563        0.97846997442745        4.46057768419403
H          208.89230696335119       -0.04529121912545        0.77400060156622
H          205.86378850449466        1.21035102802581        7.56483583526831
H          205.93191379475115        1.72068250030982       10.00006702452596
H          210.02840171225117        2.05572611239199        9.97438234213920
H          210.14826812258076        1.56023733806433        7.53848863984495
H          205.43782127496149        0.49977822545026        4.52935178489455
H          203.51923568098886        0.10625386327075        2.67905860352899
C          215.61301094096092       -0.14407819012383        0.05320827900978
C          216.25507343729342       -0.31919235482111       -1.19054291372748
C          215.64093497278836       -0.47281292642423       -2.45775065368639
C          216.62982313009115       -0.66177701886369       -3.38615546312165
C          217.87439715335751       -0.62365602571410       -2.70814506863419
N          217.60321755932736       -0.40458150506915       -1.38826298352212
C          219.14390132320210       -0.81158276457990       -3.28634640044420
C          219.15752596642855       -1.08813878895414       -4.67232726875665
C          219.16553020083117       -1.32502479546014       -5.86251425499368
C          219.18103868415807       -1.60028235023923       -7.24886261000487
C          220.38417552899557       -1.80679218257758       -7.93406449061318
C          220.34506559689947       -2.07275472164316       -9.29116266916260
N          219.21255673665905       -2.14335781304396       -9.98633353073125
C          218.06473432295357       -1.94828484949979       -9.34234154345181
C          217.99441639133869       -1.67630601294547       -7.98763690438954