183
 energy: -304.034298146124 gnorm: 1.378727813519 xtb: 6.5.1 (b24c23e)
Zn          33.99988200000000       -0.03404000000000        0.03330800000000
C           30.65828900000000        0.10924800000000        0.02380600000000
C           31.32055700000000        1.14832200000000       -0.49298400000000
C           30.67000900000000        2.29617800000000       -1.11316900000000
C           31.61022400000000        3.14466300000000       -1.48561300000000
C           32.91514700000000        2.58379900000000       -1.10874700000000
N           32.73799300000000        1.31029400000000       -0.48698400000000
C           34.10726900000000        3.18591300000000       -1.30138400000000
C           34.15699200000000        4.53144600000000       -1.91810500000000
C           34.71393300000000        4.69942500000000       -3.19478700000000
C           34.77719100000000        5.97043000000000       -3.77344400000000
C           34.28818299999999        7.08696800000000       -3.08051400000000
N           34.35309300000000        8.38678500000000       -3.67302300000000
C           33.73713400000000        6.92106300000000       -1.80196000000000
C           33.67421900000000        5.65071100000000       -1.22194600000000
C           35.39845700000000        2.56078500000000       -0.91131600000000
C           36.68191300000000        3.27342600000000       -0.90514600000000
C           37.61642599999999        2.41805600000000       -0.54325900000000
N           35.54111899999999        1.31889500000000       -0.56239800000000
C           36.93631200000000        1.14966400000000       -0.31173000000000
C           37.53051000000000       -0.00847100000000        0.01867600000000
C           36.76692700000000       -1.25448300000000        0.25148100000000
C           37.29744800000000       -2.47066800000000        0.23162900000000
C           36.25455199999999       -3.40226700000000        0.61537400000000
C           35.15691799999999       -2.69218800000000        0.84914300000000
N           35.39076500000000       -1.30034600000000        0.62871700000000
C           33.87830500000000       -3.26321200000000        1.34465300000000
C           33.90112499999999       -4.60119900000000        1.98456300000000
C           34.64007699999999       -4.80516400000000        3.16009200000000
C           34.68105300000000       -6.06881800000000        3.75655300000000
C           33.98887000000000       -7.14388800000000        3.18161300000000
N           34.03126800000000       -8.43624400000000        3.79222100000000
C           33.25741000000000       -6.94432800000000        2.00240700000000
C           33.21635800000000       -5.68137600000000        1.40459500000000
C           32.71624800000000       -2.59210200000000        1.22856400000000
C           31.40891600000000       -3.03473600000000        1.71050900000000
C           30.54725400000000       -2.10815200000000        1.33780200000000
C           31.29571100000000       -1.06932200000000        0.63215700000000
N           32.56057100000000       -1.34078200000000        0.56237100000000
H           29.57492600000000        0.12721100000000        0.00034700000000
H           29.60669800000000        2.43972000000000       -1.25641800000000
H           31.42242400000000        4.08653200000000       -1.98420700000000
H           35.09699400000000        3.84580600000000       -3.74058100000000
H           35.20753900000000        6.08535300000000       -4.76030400000000
H           34.76242200000000        8.52073100000000       -4.62453500000000
H           33.99210200000000        9.22468800000000       -3.16461600000000
H           33.35894000000000        7.77549700000000       -1.25496300000000
H           33.25154200000000        5.53774900000000       -0.23107700000000
H           36.85283100000000        4.31382500000000       -1.14859600000000
H           38.67020099999999        2.64330400000000       -0.44711900000000
H           38.32312900000000       -2.72591500000000        0.00122200000000
H           36.36329899999999       -4.47424300000000        0.71754100000000
H           35.18105900000000       -3.98440200000000        3.61508300000000
H           35.25243300000000       -6.21036900000000        4.66529500000000
H           34.57425700000000       -8.59515300000000        4.67015800000000
H           33.51976800000000       -9.24357700000000        3.37097200000000
H           32.72234600000000       -7.76731900000000        1.54556600000000
H           32.65492100000000       -5.54480700000000        0.48843000000000
H           31.16707900000000       -3.93278700000000        2.26347300000000
H           29.48270100000000       -2.12439600000000        1.53119300000000
Zn          56.24942800000000        0.01785100000000        0.00544900000000
C           59.59102200000000       -0.06923900000000        0.11962900000000
C           58.92875300000000       -1.07409600000000        0.70015200000000
C           59.57930099999999       -2.22523800000000        1.31421700000000
C           58.63908700000000       -3.00447900000000        1.81564100000000
C           57.33416300000000       -2.38047000000000        1.55639100000000
N           57.51131699999999       -1.15858900000000        0.83847100000000
C           56.14204099999999       -2.87371600000000        1.95181400000000
C           56.09231800000000       -4.13119200000000        2.73255500000000
C           55.53537800000000       -5.28811400000000        2.16716500000000
C           55.47211999999999       -6.47268600000000        2.90681900000000
C           55.96112700000000       -6.51204800000000        4.22031100000000
N           55.89621700000000       -7.72408400000000        4.97632600000000
C           56.51217700000000       -5.35471200000000        4.78846300000000
C           56.57509099999999       -4.16937000000000        4.05010400000000
C           54.85085399999999       -2.20319700000000        1.64629500000000
C           53.56739800000000       -2.59180700000000        2.24368700000000
C           52.63288399999999       -1.81756200000000        1.73069200000000
N           54.70819100000000       -1.22619900000000        0.80397200000000
C           53.31299799999999       -0.92376300000000        0.80141900000000
C           52.71879999999999       -0.00847100000000        0.01867600000000
C           53.48238300000000        0.87402400000000       -0.89123800000000
C           52.95186200000000        1.52945200000000       -1.91589100000000
C           53.99475800000000        2.36403500000000       -2.48034700000000
C           55.09239199999999        2.16654200000000       -1.75933600000000
N           54.85854600000000        1.21379000000000       -0.72103200000000
C           56.37100599999999        2.89505300000000       -1.96149900000000
C           56.34818600000000        4.16768800000000       -2.72313800000000
C           55.60923400000000        5.26018300000000       -2.24363200000000
C           55.56825700000000        6.45553300000000       -2.96732200000000
C           56.26044000000000        6.57032700000000       -4.18105700000000
N           56.21804199999999        7.79332600000000       -4.92085400000000
C           56.99190000000000        5.47720100000000       -4.66626700000000
C           57.03295200000000        4.28111400000000       -3.94390900000000
C           57.53306300000000        2.42748800000000       -1.46627400000000
C           58.84039400000000        3.07375400000000       -1.56892100000000
C           59.70205700000000        2.25114200000000       -1.00254700000000
C           58.95359900000000        1.08901000000000       -0.52657400000000
N           57.68873900000000        1.18083200000000       -0.79139300000000
H           60.67438400000000       -0.09871700000000        0.12163900000000
H           60.64261199999999       -2.42394600000000        1.35471000000000
H           58.82688600000000       -3.94046100000000        2.32519800000000
H           55.15231600000000       -5.27138400000000        1.15411200000000
H           55.04177200000000       -7.35872700000000        2.45734000000000
H           55.48688799999999       -8.59117400000000        4.56223400000000
H           56.25720800000000       -7.76329200000000        5.95562300000000
H           56.89036999999999       -5.37088900000000        5.80286100000000
H           56.99776900000000       -3.28107100000000        4.50343100000000
H           53.39647899999999       -3.36956800000000        2.97634300000000
H           51.57911000000000       -1.86188400000000        1.97155500000000
H           51.92618100000000        1.47843900000000       -2.25594500000000
H           53.88601200000000        3.04148500000000       -3.31738400000000
H           55.06825199999999        5.18592300000000       -1.30813700000000
H           54.99687800000000        7.29117500000000       -2.58320000000000
H           55.67505300000000        8.61288400000000       -4.56822100000000
H           56.72954300000000        7.88828900000000       -5.82651300000000
H           57.52696400000000        5.55115100000000       -5.60464300000000
H           57.59439000000000        3.44203600000000       -4.33628500000000
H           59.08223100000000        4.03084400000000       -2.01191500000000
H           60.76661000000000        2.42130800000000       -0.90923300000000
C           39.35168199999999       -0.00847100000000        0.01867600000000
C           40.57360000000000       -0.00847100000000        0.01867600000000
C           49.67571100000000       -0.00847100000000        0.01867600000000
C           50.89762799999999       -0.00847100000000        0.01867600000000
Zn          45.16013100000000       -0.03850000000000        0.04259200000000
C           41.67594600000000        0.01780400000000       -0.03925200000000
C           42.33280599999999        1.12769900000000       -0.42319900000000
C           41.68808100000000        2.35978500000000       -0.88331800000000
C           42.62610400000000        3.25538300000000       -1.11782700000000
C           43.92895300000000        2.64759300000000       -0.82805900000000
N           43.75253500000000        1.29757300000000       -0.39055000000000
C           45.11298900000000        3.28995300000000       -0.91507000000000
C           45.13436700000000        4.71004800000000       -1.32918600000000
C           45.00069500000000        5.05334200000000       -2.68300700000000
C           45.01772100000000        6.39608300000000       -3.07213000000000
C           45.17131000000000        7.40747100000000       -2.11245600000000
N           45.18923700000000        8.78079800000000       -2.51124500000000
C           45.30696300000000        7.06338100000000       -0.75939000000000
C           45.28785900000000        5.72112600000000       -0.36901700000000
C           46.41647800000000        2.64614300000000       -0.61091200000000
C           47.69539199999999        3.36724800000000       -0.57645800000000
C           48.64687899999999        2.49050100000000       -0.33057900000000
N           46.57992000000000        1.37617900000000       -0.40245100000000
C           47.98416800000000        1.19801700000000       -0.21451900000000
C           48.59925900000000        0.01780400000000       -0.03925200000000
C           47.85390100000000       -1.25662400000000        0.05587900000000
C           48.40240200000000       -2.45625600000000       -0.08946600000000
C           47.36987900000000       -3.43676300000000        0.18071600000000
C           46.25997800000000       -2.77012600000000        0.47590300000000
N           46.47450299999999       -1.36043900000000        0.40793700000000
C           44.99476200000000       -3.40639200000000        0.91804300000000
C           45.04794600000000       -4.79440700000000        1.43780600000000
C           44.40298400000000       -5.83732900000000        0.75160200000000
C           44.46913200000000       -7.14645000000000        1.23789000000000
C           45.18477700000000       -7.42839400000000        2.41114400000000
N           45.24894200000000       -8.76703800000000        2.91076200000000
C           45.83801600000000       -6.38935800000000        3.09139600000000
C           45.77372400000000       -5.08023600000000        2.60478500000000
C           43.81881499999999       -2.75081100000000        0.87535000000000
C           42.53621999999999       -3.26465800000000        1.34497200000000
C           41.64795300000000       -2.32883500000000        1.08151200000000
C           42.35138900000000       -1.20846000000000        0.44678500000000
N           43.62113899999999       -1.44724300000000        0.32624000000000
H           40.62871799999999        2.54159600000000       -1.00719800000000
H           42.43670800000000        4.26603200000000       -1.45721600000000
H           44.88155900000000        4.28104200000000       -3.43353100000000
H           44.91177100000000        6.64824300000000       -4.11994400000000
H           45.09013000000000        9.04682300000000       -3.51633800000000
H           45.30673300000000        9.54100800000000       -1.80428200000000
H           45.42743600000000        7.83485400000000       -0.00886000000000
H           45.39335199999999        5.46813000000000        0.67917700000000
H           47.85436800000000        4.42636800000000       -0.72986500000000
H           49.70194200000000        2.71531000000000       -0.25006200000000
H           49.43371400000000       -2.67236800000000       -0.33320200000000
H           47.49559699999999       -4.51192700000000        0.17910200000000
H           43.85181399999999       -5.63509100000000       -0.15921400000000
H           43.96452699999999       -7.94073100000000        0.70025400000000
H           45.77885300000000       -8.98715900000000        3.78394100000000
H           44.76358500000000       -9.54750000000000        2.41389600000000
H           46.39654199999999       -6.59391500000000        3.99746500000000
H           46.28434800000000       -4.28784300000000        3.13994500000000
H           42.32860100000000       -4.21223500000000        1.82486800000000
H           40.59351299999999       -2.39588200000000        1.31281300000000
183
 energy: -304.431872085329 gnorm: 0.442064536382 xtb: 6.5.1 (b24c23e)
Zn          34.00303472946110       -0.03265201933914        0.03281315184895
C           30.65880163511523        0.09670950706761        0.03058170234445
C           31.32609871492608        1.15020833904703       -0.49370802301633
C           30.66902733368745        2.29147920067557       -1.11092050550431
C           31.61787565384796        3.14696917482830       -1.48604055579981
C           32.91319059198985        2.57918223911813       -1.10665171476721
N           32.72111942773857        1.32430583713146       -0.49593697510435
C           34.11980655145056        3.18376104072714       -1.29903033242411
C           34.16035271347318        4.53323903207953       -1.91760171255165
C           34.71351481773550        4.70507778850406       -3.19307291328530
C           34.77600053342188        5.97195869814580       -3.77164932125375
C           34.28858665557574        7.09515731666506       -3.08425516654081
N           34.35290940807597        8.38287898533885       -3.67123370784143
C           33.73805933282083        6.92047052999252       -1.80440621533415
C           33.67522768269767        5.65270084296769       -1.22736042555580
C           35.39342887756830        2.57301870205660       -0.91725524560527
C           36.67190453503758        3.28141085630622       -0.90960173763455
C           37.61650394405319        2.41325466366393       -0.54230414564487
N           35.55455154970733        1.31820097434515       -0.55705692538871
C           36.94492555514626        1.14912503630906       -0.31128980262401
C           37.55155112112942       -0.02086857701993        0.01905125355836
C           36.76805133315100       -1.24087240113630        0.25638516061664
C           37.29963308989570       -2.49023187528952        0.23539136062875
C           36.27301431192527       -3.40515117535612        0.61302625100380
C           35.14829390647836       -2.68008944217990        0.85344791428184
N           35.39992015684935       -1.30603604460208        0.62489354698086
C           33.88925420643773       -3.25765793894607        1.34197292044640
C           33.90569864335787       -4.60107928675928        1.98194167720539
C           34.63923451566043       -4.81031144983785        3.15824262657247
C           34.67928520667640       -6.06977080840481        3.75487542486356
C           33.98912843410528       -7.15211389410801        3.18550490192435
N           34.03111437994252       -8.43212229955205        3.79026409504214
C           33.25879638075788       -6.94329570828056        2.00447310875843
C           33.21798918158306       -5.68250850211433        1.40974079046638
C           32.71417766118552       -2.59140852256842        1.22857434963111
C           31.41504722179649       -3.03572723178262        1.70945274648289
C           30.53944016355280       -2.09989789766748        1.33394230756074
C           31.27928533207354       -1.06319341566936        0.62885841681882
N           32.55926270555661       -1.34914195866280        0.56961276008461
H           29.57518490360602        0.12444158307749        0.00244726218165
H           29.60667160432655        2.43516912807367       -1.25411737845525
H           31.42869381412429        4.08737956185339       -1.98410178583974
H           35.09618959218280        3.84740787685008       -3.73934048064014
H           35.20724072868084        6.08574037331948       -4.76005297204649
H           34.75628237687641        8.51695285308700       -4.60962657836407
H           33.99736566496605        9.21049210844902       -3.17132716110378
H           33.35924557185384        7.77549820953196       -1.25541571759212
H           33.25253349153947        5.53770041370108       -0.23306618477363
H           36.84778347449792        4.31675172397221       -1.15023824615858
H           38.66917617018586        2.63808962786544       -0.44542294762876
H           38.32370061563078       -2.73027871467078        0.00102415171664
H           36.36664711790386       -4.47489061750782        0.71612024129990
H           35.18003562681953       -3.98585696392748        3.61402582246594
H           35.25197028819166       -6.21056144075241        4.66499948077983
H           34.56615851305849       -8.59095853783339        4.65626959553046
H           33.52728911779322       -9.22978919824936        3.37633491309159
H           32.72277828931289       -7.76711804474904        1.54589084168179
H           32.65619102767955       -5.54474000127595        0.49015340434454
H           31.17297226212596       -3.93288069741810        2.26262189678872
H           29.48003155037584       -2.12045211772838        1.52945038058735
Zn          56.24637002557483        0.01668903250228        0.00630793238076
C           59.59047632614681       -0.05671247696376        0.11295152064971
C           58.92326723201410       -1.07573183462011        0.70133136347611
C           59.58029251920662       -2.22078141997585        1.31155654806260
C           58.63145858453140       -3.00608752235745        1.81732514845129
C           57.33614480499499       -2.37608237362619        1.55360420512850
N           57.52812926080198       -1.17384881987629        0.84523826856602
C           56.12934677460455       -2.87054777130103        1.95130945063950
C           56.08893223195185       -4.13178094670547        2.73434395335842
C           55.53577646721484       -5.28982741838449        2.17281593844691
C           55.47331105984214       -6.47203223926797        2.90907331174296
C           55.96071949486976       -6.51974327716122        4.22510197025880
N           55.89640688989426       -7.72038186141321        4.97402632232356
C           56.51125654949492       -5.35641151196941        4.78662036736527
C           56.57409963715561       -4.17498300902564        4.04878830231707
C           54.85602305302587       -2.21485304959901        1.65317367546297
C           53.57710835687899       -2.59980947762522        2.24783897553665
C           52.63229251982703       -1.81429999206463        1.72729540751833
N           54.69500995785540       -1.22129621986422        0.80641278561497
C           53.30458880385796       -0.92319953275157        0.80093562597424
C           52.69983722747323       -0.00076735488071        0.00853086664845
C           53.48142084678704        0.87092893240824       -0.87723697026924
C           52.94957359594835        1.54350478039184       -1.93022068025850
C           53.97624485681755        2.36363969501149       -2.48403894299186
C           55.10103285237442        2.16341944393092       -1.74684691238405
N           54.84951089947572        1.21379150713153       -0.72784020663509
C           56.36004181435724        2.88977379975085       -1.95836576969256
C           56.34360199052647        4.16544294120373       -2.72449133967835
C           55.61003787674755        5.26150366133348       -2.24894800275227
C           55.57002116921010        6.45465948610823       -2.96902543992412
C           56.26017575910717        6.57818423116172       -4.18580555466470
N           56.21821628313379        7.78935678909367       -4.91844618743258
C           56.99052280997314        5.47833665021777       -4.66426414681470
C           57.03135663376331        4.28604091495912       -3.94202344985001
C           57.53513715020060        2.42709840356994       -1.46567668831047
C           58.83426963988194        3.07341357479266       -1.57032856454402
C           59.70986521053937        2.24337745224865       -0.99780337417639
C           58.97000166787753        1.08291337031666       -0.52330935619068
N           57.69004520210652        1.19147639470575       -0.79435725982406
H           60.67410297882503       -0.09544733312584        0.12049074835679
H           60.64262900213488       -2.41951634516438        1.35218905127645
H           58.82060476401558       -3.94082435193273        2.32595606076539
H           55.15311983415182       -5.27123790898374        1.15612930935281
H           55.04207279788071       -7.35871716264243        2.45779582255667
H           55.49302930746538       -8.57664739969742        4.56731906697240
H           56.25194186624874       -7.76103225409955        5.94007701394428
H           56.89006233380394       -5.37125376450833        5.80260387315126
H           56.99677713716501       -3.28269696146187        4.50229793867079
H           53.40149426529699       -3.37250948597857        2.97782781412081
H           51.57946286581696       -1.85770119234170        1.96786178639392
H           51.92555484333264        1.48070515968256       -2.25963527119884
H           53.88265744890450        3.04062984910388       -3.31868185863365
H           55.06927260054506        5.18585223530831       -1.30992482244928
H           54.99734325371515        7.29102298169583       -2.58351321841559
H           55.68314473712032        8.59897313363428       -4.57239894825537
H           56.72201151719489        7.88512668201379       -5.81205215330235
H           57.52652735598762        5.55129545380651       -5.60428681902775
H           57.59312009116005        3.44343214287411       -4.33528186012939
H           59.07633116483014        4.03017317456061       -2.01245758390434
H           60.76926378690052        2.41767324200877       -0.90690523509708
C           39.25568391446942       -0.00902531781496        0.01790420760780
C           40.45905460476021       -0.01556589521099        0.02451917488937
C           49.79853051323429       -0.02123817147649        0.02493749967301
C           50.99885776442773       -0.00999422177997        0.01910102652311
Zn          45.15647184338437       -0.03668415991767        0.04043561117578
C           41.74646955009713        0.00763941142874       -0.03480663972816
C           42.36533028195402        1.14215020873779       -0.42921880336668
C           41.68940174425477        2.35199954882858       -0.88057869127167
C           42.63510271949838        3.25877171060914       -1.11828837227564
C           43.92793580545040        2.64481085370184       -0.82759857719035
N           43.74441278891874        1.31688092778435       -0.39881664684235
C           45.12598944468714        3.28918516347388       -0.91350494582989
C           45.13670773852170        4.71299055393306       -1.32972733944252
C           45.00064971672801        5.05864783723431       -2.68026732133052
C           45.01792762381089        6.39746123626243       -3.06969840191016
C           45.17147506877083        7.41611151198310       -2.11497823061163
N           45.18917269763474        8.77657335016582       -2.50995571752069
C           45.30664984791145        7.06351285124095       -0.76215406394023
C           45.28837402880423        5.72462443480521       -0.37396191831886
C           46.40806685651008        2.66613859119542       -0.61609202660108
C           47.68348215578617        3.37747530722776       -0.58009838591060
C           48.64335887680611        2.48359468695666       -0.33018147335212
N           46.58107023273469        1.38251295029737       -0.40078633169806
C           47.95269591188868        1.21492395324168       -0.21705036967183
C           48.51260940218680        0.00930323473612       -0.04000638063993
C           47.82353952112533       -1.25620978756750        0.05933229003544
C           48.40130150024014       -2.47486843337882       -0.08769670298163
C           47.38733554835053       -3.44070851359757        0.17909641071658
C           46.24965016275026       -2.76320215305305        0.48266689463117
N           46.47420303267195       -1.37288653217747        0.40657821744475
C           45.00521933427628       -3.40225354317259        0.91642472723276
C           45.05235185178298       -4.79481789305019        1.43541878508295
C           44.40450465402027       -5.83908216265776        0.75682779363559
C           44.47054156406066       -7.14561541037561        1.24024041733912
C           45.18511587286488       -7.43691801683978        2.41445222560825
N           45.24877548423979       -8.76262706165116        2.90909517423720
C           45.83622615168080       -6.39039989610383        3.08949800145439
C           45.77296292839719       -5.08539625703915        2.60253128183217
C           43.81822918226653       -2.75267489761662        0.87622182884267
C           42.54262655146169       -3.26610644094894        1.34393139923907
C           41.64153426130814       -2.31889807373569        1.07772999626707
C           42.35709579906638       -1.21126297323456        0.44879876741507
N           43.62944105031585       -1.46105865388627        0.33338943940822
H           40.62953516990009        2.53396446970769       -1.00500324188780
H           42.44276532201734        4.26672889760886       -1.45722662492711
H           44.88196802340784        4.28252797738529       -3.43169051918851
H           44.91190577911096        6.64857586704582       -4.11942362187958
H           45.09162527850454        9.04097235182934       -3.50086585436657
H           45.30498671843661        9.52778189511466       -1.81426965125065
H           45.42725444828623        7.83492977144400       -0.00946639684101
H           45.39306525158530        5.46854045063758        0.67691707140401
H           47.84956356484149        4.42999562486070       -0.73093504292575
H           49.70025891921777        2.70758147123666       -0.24891122105287
H           49.43331300576415       -2.67437422452290       -0.33381908796949
H           47.49917921683026       -4.51278933348144        0.17746006423083
H           43.85318390665535       -5.63516447138181       -0.15724488181222
H           43.96515598704099       -7.94029997267383        0.70086367622375
H           45.77083571946975       -8.98193449997055        3.77018766154524
H           44.77072772452434       -9.53391044297667        2.42056894962149
H           46.39587285762084       -6.59412109202826        3.99676226961000
H           46.28321881060145       -4.28942074824301        3.13857130700206
H           42.33405814720463       -4.21214403859378        1.82378725761245
H           40.59101157895083       -2.39005209807438        1.31041066920712
183
 energy: -304.576686283116 gnorm: 0.228616780917 xtb: 6.5.1 (b24c23e)
Zn          34.00969232774029       -0.02821930562664        0.03239176468035
C           30.65984649253794        0.08202231526988        0.03856143022484
C           31.32920947380094        1.15129512511461       -0.49506124092631
C           30.67044990707955        2.28613345526361       -1.10822700795859
C           31.62859835966846        3.14862566566949       -1.48551177330998
C           32.91250368376935        2.57586476200508       -1.10576448471102
N           32.69840000273711        1.34250568002371       -0.50911952263215
C           34.13763660125547        3.17957882612907       -1.29492964442144
C           34.16856157037952        4.53488323514739       -1.91479374423542
C           34.71495135258330        4.71374064676319       -3.18981292525488
C           34.77430793496116        5.97564249003574       -3.76983103414983
C           34.28885304622924        7.10278590344276       -3.08780325093677
N           34.35236053822790        8.37179050917491       -3.66612576533579
C           33.73889098272996        6.92065276153952       -1.80882538581520
C           33.67699882750340        5.65540761462571       -1.23523970536820