360
 energy: -586.828706004548 gnorm: 1.559461792470 xtb: 6.5.1 (b24c23e)
C           74.48586700000000       -0.02801100000000        0.07820900000000
C           75.21974200000000        1.19504800000000        0.70937100000000
C           74.62567199999999        2.21555200000000        1.41639100000000
C           75.65075700000000        3.13717400000000        1.75567500000000
C           76.83517500000001        2.65232800000000        1.23476100000000
N           76.56796400000000        1.43977700000000        0.64959500000000
C           78.25531700000001        3.35725200000000        1.27245600000000
C           78.24705100000000        4.79188100000000        1.59302400000000
C           77.93747300000000        5.68382700000000        0.62741400000000
C           77.86854200000001        7.16477500000000        0.83349700000000
N           78.31533899999998        7.55398800000000        2.16910900000000
C           78.55399000000000        6.62404000000000        3.15428500000000
C           78.54784200000000        5.30553900000000        2.92390100000000
C           79.38131700000000        2.65785600000000        0.96894300000000
C           80.68073500000000        3.29563700000000        0.93950000000000
C           81.58357300000000        2.38898100000000        0.58379200000000
N           79.57917900000000        1.34524100000000        0.62949000000000
C           80.90819500000001        1.12178700000000        0.37781400000000
C           81.57451099999999       -0.00192700000000        0.00098700000000
C           80.79667200000000       -1.37177500000000       -0.19603200000000
C           81.33652299999999       -2.63923800000000       -0.09666600000000
C           80.31050600000000       -3.56656100000000       -0.40694500000000
C           79.16916999999999       -2.84078300000000       -0.67705100000000
N           79.46196900000000       -1.50946700000000       -0.49124600000000
C           77.75594900000000       -3.42354500000000       -1.10107200000000
C           77.76583100000001       -4.75789400000000       -1.71435000000000
C           77.37428700000000       -5.82901300000000       -0.98973300000000
C           77.30368600000000       -7.22817900000000       -1.51733300000000
N           77.86138699999999       -7.33803100000000       -2.86451500000000
C           78.16534100000000       -6.21989200000000       -3.60912500000000
C           78.14723700000000       -4.98090900000000       -3.10301200000000
C           76.63458300000001       -2.68150400000000       -0.90485200000000
C           75.31422900000000       -3.14557400000000       -1.29205500000000
C           74.42806200000000       -2.21237300000000       -0.95596900000000
C           75.14885400000000       -1.11670000000000       -0.35502700000000
N           76.46993899999998       -1.43945900000000       -0.35785100000000
H           73.40868199999998        0.02295600000000       -0.02349400000000
H           73.57522200000000        2.29493800000000        1.64955600000000
H           75.53448100000000        4.06327100000000        2.29804300000000
H           77.26286700000000        0.81743300000000        0.24467200000000
H           77.71025200000000        5.31467800000000       -0.36915700000000
H           76.83682399999999        7.50286700000000        0.68545900000000
H           78.49709500000000        7.66889200000000        0.09203500000000
H           78.01315599999998        8.46465500000000        2.49022000000000
H           78.75993200000001        7.02942500000000        4.13868100000000
H           78.75542000000000        4.57894200000000        3.70220000000000
H           80.88396200000000        4.32943400000000        1.15702100000000
H           82.63497800000000        2.58400800000000        0.47579500000000
H           82.35929800000000       -2.87450000000000        0.15690000000000
H           80.39540200000000       -4.64263200000000       -0.43818300000000
H           78.77914000000000       -0.75670600000000       -0.51506400000000
H           77.06558099999999       -5.67428500000000        0.04155800000000
H           76.25870800000000       -7.55685900000000       -1.52996000000000
H           77.85922099999999       -7.89875600000000       -0.85363400000000
H           77.53652300000000       -8.13099400000000       -3.40310700000000
H           78.42786899999999       -6.40721300000000       -4.64453900000000
H           78.39821400000000       -4.10810800000000       -3.69682500000000
H           75.09052100000000       -4.08022800000000       -1.77340900000000
H           73.36536099999999       -2.25476100000000       -1.11189800000000
C          136.90266900000000       -0.02046600000000        0.08035900000000
C          136.16879299999999       -1.39250900000000       -0.02797300000000
C          136.76286300000001       -2.63240800000000        0.03492900000000
C          135.73777799999999       -3.59443900000000       -0.16254800000000
C          134.55336000000000       -2.90783800000000       -0.34965000000000
N          134.82057100000000       -1.56897000000000       -0.20777000000000
C          133.13321800000000       -3.52674900000000       -0.68919200000000
C          133.14148399999999       -4.91486600000000       -1.17298600000000
C          133.45106200000001       -5.16385200000000       -2.46371300000000
C          133.51999300000000       -6.53098300000000       -3.06921200000000
N          133.07319600000000       -7.56575200000000       -2.13937400000000
C          132.83454599999999       -7.29478700000000       -0.81198800000000
C          132.84069299999999       -6.05289200000000       -0.31276900000000
C          132.00721799999999       -2.77242000000000       -0.57845500000000
C          130.70779999999999       -3.29888300000000       -0.93965800000000
C          129.80496299999999       -2.34091300000000       -0.76402600000000
N          131.80935700000001       -1.47803600000000       -0.17502400000000
C          130.48034000000001       -1.15548400000000       -0.27111200000000
C          129.81402499999999       -0.00192700000000        0.00098700000000
C          130.59186399999999        1.26601500000000        0.55562600000000
C          130.05201299999999        2.29072200000000        1.30816300000000
C          131.07802899999999        3.24230800000000        1.53329300000000
C          132.21936500000001        2.76792200000000        0.92119100000000
N          131.92656700000001        1.53863600000000        0.37733400000000
C          133.63258600000000        3.48665700000000        0.86804200000000
C          133.62270500000000        4.94384800000000        1.05023400000000
C          134.01424800000001        5.47212400000000        2.23061000000000
C          134.08484999999999        6.93923300000000        2.51977700000000
N          133.52714900000001        7.74270200000000        1.43285200000000
C          133.22319400000001        7.18500700000000        0.21070100000000
C          133.24129900000000        5.86534600000000       -0.01229100000000
C          134.75395200000000        2.75264500000000        0.64364900000000
C          136.07430600000001        3.35110900000000        0.55922300000000
C          136.96047400000000        2.38092400000000        0.35292500000000
C          136.23968199999999        1.13306100000000        0.28605900000000
N          134.91859600000001        1.40882900000000        0.45379000000000
H          137.97985299999996       -0.01016800000000       -0.03293300000000
H          137.81331399999999       -2.82277400000000        0.19122600000000
H          135.85405399999996       -4.66732100000000       -0.18980400000000
H          134.12566799999999       -0.82666500000000       -0.22382600000000
H          133.67828299999999       -4.32484500000000       -3.11601100000000
H          134.55171100000001       -6.74025900000000       -3.37322600000000
H          132.89143999999999       -6.56854500000000       -3.96502900000000
H          133.37537900000001       -8.50889500000000       -2.34651900000000
H          132.62860300000000       -8.15816800000000       -0.18913700000000
H          132.63311500000000       -5.84568500000000        0.73162500000000
H          130.50457299999999       -4.29205700000000       -1.29973700000000
H          128.75355800000000       -2.44972000000000       -0.95860300000000
H          129.02923699999999        2.35698900000000        1.64765100000000
H          130.99313300000000        4.17321400000000        2.07395800000000
H          132.60939500000001        0.91149800000000       -0.03969700000000
H          134.32295400000001        4.79703100000000        3.02543700000000
H          135.12982700000001        7.22520000000000        2.68229800000000
H          133.52931400000000        7.15924200000000        3.43725500000000
H          133.85201300000000        8.70045800000000        1.39314100000000
H          132.96066700000000        7.88997200000000       -0.57045000000000
H          132.99032099999999        5.43665100000000       -0.97697500000000
H          136.29801399999999        4.39910100000000        0.64283900000000
H          138.02317400000001        2.49913700000000        0.24276000000000
C           83.59076700000000       -0.00192700000000        0.00098700000000
C           84.81268500000000       -0.00192700000000        0.00098700000000
C           94.33703800000001       -0.00192700000000        0.00098700000000
C           95.55895599999999       -0.00192700000000        0.00098700000000
C          105.08330900000000       -0.00192700000000        0.00098700000000
C          106.30522700000000       -0.00192700000000        0.00098700000000
C          115.82958000000001       -0.00192700000000        0.00098700000000
C          117.05149700000000       -0.00192700000000        0.00098700000000
C          126.57585100000000       -0.00192700000000        0.00098700000000
C          127.79776800000000       -0.00192700000000        0.00098700000000
C           85.96297900000000        0.00106300000000       -0.00054500000000
C           86.73867100000000       -0.14650300000000        1.37855200000000
C           86.16549400000000       -0.12728800000000        2.63441200000000
C           87.20599199999998       -0.26708400000000        3.58055600000000
C           88.39200999999998       -0.36596400000000        2.88211200000000
N           88.09884299999999       -0.28631600000000        1.54054700000000
C           89.83161200000001       -0.51338700000000        3.52761100000000
C           89.85521999999999       -0.76339900000000        4.97813500000000
C           89.79430499999999       -2.03471200000000        5.42962600000000
C           89.85356600000000       -2.42235500000000        6.87434300000000
N           89.81660300000000       -1.25757200000000        7.75812300000000
C           89.98794699999999        0.01891300000000        7.27125200000000
C           90.00043900000000        0.30210900000000        5.96312700000000
C           90.95752500000000       -0.40462500000000        2.77454100000000
C           92.26963000000001       -0.48366700000000        3.38250400000000
C           93.18155000000000       -0.32300000000000        2.43254700000000
N           91.15431500000000       -0.21326100000000        1.43273900000000
C           92.49915000000000       -0.15915400000000        1.16410800000000
C           93.18201099999999        0.00106300000000       -0.00054500000000
C           92.40495999999999        0.10635700000000       -1.38137600000000
C           92.97143199999999        0.01778800000000       -2.63741200000000
C           91.93100099999999        0.15271800000000       -3.58458800000000
C           90.75254099999999        0.31745300000000       -2.88555800000000
N           91.04842699999999        0.27304800000000       -1.54342500000000
C           89.31656300000000        0.49686300000000       -3.52861400000000
C           89.29733700000000        0.76525100000000       -4.97567300000000
C           89.40156800000000        2.03880600000000       -5.41272500000000
C           89.35029100000000        2.44487500000000       -6.85258300000000
N           89.34545400000000        1.28986300000000       -7.75017600000000
C           89.12952900000001        0.01480000000000       -7.27717600000000
C           89.11074900000000       -0.28280600000000       -5.97240100000000
C           88.19005300000001        0.40037600000000       -2.77476900000000
C           86.87892099999999        0.51606300000000       -3.37847100000000
C           85.96596599999999        0.36169100000000       -2.42869600000000
C           86.64719499999998        0.16431100000000       -1.16412600000000
N           87.99210900000000        0.19443900000000       -1.43512100000000
H           85.11546800000001       -0.01565100000000        2.85632300000000
H           87.10168299999999       -0.28333800000000        4.65540500000000
H           88.78357299999999       -0.28678600000000        0.78806800000000
H           89.71306199999999       -2.84115800000000        4.70565500000000
H           90.77286599999999       -2.98844600000000        7.05935600000000
H           89.00523699999999       -3.07085800000000        7.11586400000000
H           90.18186399999999       -1.41111600000000        8.68974200000000
H           90.10976500000000        0.79158200000000        8.02254400000000
H           90.13030200000000        1.31189800000000        5.58850300000000
H           92.47968000000000       -0.63417400000000        4.42644300000000
H           94.24279399999999       -0.33220200000000        2.60040900000000
H           94.01695299999999       -0.13362100000000       -2.85738200000000
H           92.02996700000000        0.12634800000000       -4.66000200000000
H           90.36642000000001        0.31052600000000       -0.78961500000000
H           89.51378099999999        2.83360900000000       -4.68004000000000
H           88.44920000000000        3.04270800000000       -7.02754900000000
H           90.21844700000000        3.06829500000000       -7.08999000000000
H           88.98043400000000        1.46711200000000       -8.67761000000000
H           88.97622000000000       -0.74395000000000       -8.03661900000000
H           88.94404299999999       -1.29116200000000       -5.60889200000000
H           86.67013499999999        0.68652700000000       -4.41961600000000
H           84.90489500000000        0.39622600000000       -2.59431000000000
C           96.70924900000000        0.00106300000000       -0.00054500000000
C           97.48494199999999       -0.14650300000000        1.37855200000000
C           96.91176500000000       -0.12728800000000        2.63441200000000
C           97.95226299999999       -0.26708400000000        3.58055600000000
C           99.13828099999999       -0.36596400000000        2.88211200000000
N           98.84511399999998       -0.28631600000000        1.54054700000000
C          100.57788300000000       -0.51338700000000        3.52761100000000
C          100.60149099999998       -0.76339900000000        4.97813500000000
C          100.54057600000000       -2.03471200000000        5.42962600000000
C          100.59983699999999       -2.42235500000000        6.87434300000000
N          100.56287300000000       -1.25757200000000        7.75812300000000
C          100.73421699999999        0.01891300000000        7.27125200000000
C          100.74670999999999        0.30210900000000        5.96312700000000
C          101.70379600000000       -0.40462500000000        2.77454100000000
C          103.01590100000000       -0.48366700000000        3.38250400000000
C          103.92782099999999       -0.32300000000000        2.43254700000000
N          101.90058600000000       -0.21326100000000        1.43273900000000
C          103.24542099999999       -0.15915400000000        1.16410800000000
C          103.92828199999998        0.00106300000000       -0.00054500000000
C          103.15123000000000        0.10635700000000       -1.38137600000000
C          103.71770200000000        0.01778800000000       -2.63741200000000
C          102.67727200000000        0.15271800000000       -3.58458800000000
C          101.49881200000000        0.31745300000000       -2.88555800000000
N          101.79469799999998        0.27304800000000       -1.54342500000000
C          100.06283400000000        0.49686300000000       -3.52861400000000
C          100.04360800000001        0.76525100000000       -4.97567300000000
C          100.14783900000000        2.03880600000000       -5.41272500000000
C          100.09656200000001        2.44487500000000       -6.85258300000000
N          100.09172400000000        1.28986300000000       -7.75017600000000
C           99.87580000000000        0.01480000000000       -7.27717600000000
C           99.85702000000001       -0.28280600000000       -5.97240100000000
C           98.93632400000000        0.40037600000000       -2.77476900000000
C           97.62519199999998        0.51606300000000       -3.37847100000000
C           96.71223700000000        0.36169100000000       -2.42869600000000
C           97.39346499999999        0.16431100000000       -1.16412600000000
N           98.73837899999999        0.19443900000000       -1.43512100000000
H           95.86173900000000       -0.01565100000000        2.85632300000000
H           97.84795400000000       -0.28333800000000        4.65540500000000
H           99.52984399999998       -0.28678600000000        0.78806800000000
H          100.45933300000000       -2.84115800000000        4.70565500000000
H          101.51913699999999       -2.98844600000000        7.05935600000000
H           99.75150800000000       -3.07085800000000        7.11586400000000
H          100.92813400000000       -1.41111600000000        8.68974200000000
H          100.85603600000000        0.79158200000000        8.02254400000000
H          100.87657299999999        1.31189800000000        5.58850300000000
H          103.22595000000000       -0.63417400000000        4.42644300000000
H          104.98906499999998       -0.33220200000000        2.60040900000000
H          104.76322399999998       -0.13362100000000       -2.85738200000000
H          102.77623699999999        0.12634800000000       -4.66000200000000
H          101.11269100000000        0.31052600000000       -0.78961500000000
H          100.26005200000000        2.83360900000000       -4.68004000000000
H           99.19547100000000        3.04270800000000       -7.02754900000000
H          100.96471800000000        3.06829500000000       -7.08999000000000
H           99.72670400000000        1.46711200000000       -8.67761000000000
H           99.72248999999999       -0.74395000000000       -8.03661900000000
H           99.69031400000000       -1.29116200000000       -5.60889200000000
H           97.41640599999998        0.68652700000000       -4.41961600000000
H           95.65116500000001        0.39622600000000       -2.59431000000000
C          107.45552000000001        0.00106300000000       -0.00054500000000
C          108.23121299999998       -0.14650300000000        1.37855200000000
C          107.65803600000000       -0.12728800000000        2.63441200000000
C          108.69853399999998       -0.26708400000000        3.58055600000000
C          109.88455099999999       -0.36596400000000        2.88211200000000
N          109.59138499999999       -0.28631600000000        1.54054700000000
C          111.32415399999999       -0.51338700000000        3.52761100000000
C          111.34776199999999       -0.76339900000000        4.97813500000000
C          111.28684600000000       -2.03471200000000        5.42962600000000
C          111.34610700000000       -2.42235500000000        6.87434300000000
N          111.30914400000000       -1.25757200000000        7.75812300000000
C          111.48048799999998        0.01891300000000        7.27125200000000
C          111.49298100000000        0.30210900000000        5.96312700000000
C          112.45006600000001       -0.40462500000000        2.77454100000000
C          113.76217200000001       -0.48366700000000        3.38250400000000
C          114.67409199999999       -0.32300000000000        2.43254700000000
N          112.64685700000000       -0.21326100000000        1.43273900000000
C          113.99169199999999       -0.15915400000000        1.16410800000000
C          114.67455299999999        0.00106300000000       -0.00054500000000
C          113.89750099999999        0.10635700000000       -1.38137600000000
C          114.46397300000000        0.01778800000000       -2.63741200000000
C          113.42354300000000        0.15271800000000       -3.58458800000000
C          112.24508299999999        0.31745300000000       -2.88555800000000
N          112.54096899999999        0.27304800000000       -1.54342500000000
C          110.80910500000000        0.49686300000000       -3.52861400000000
C          110.78987900000000        0.76525100000000       -4.97567300000000
C          110.89411000000000        2.03880600000000       -5.41272500000000
C          110.84283200000000        2.44487500000000       -6.85258300000000
N          110.83799500000001        1.28986300000000       -7.75017600000000
C          110.62207100000001        0.01480000000000       -7.27717600000000
C          110.60329100000000       -0.28280600000000       -5.97240100000000
C          109.68259500000001        0.40037600000000       -2.77476900000000
C          108.37146299999999        0.51606300000000       -3.37847100000000
C          107.45850700000000        0.36169100000000       -2.42869600000000
C          108.13973599999998        0.16431100000000       -1.16412600000000
N          109.48465000000000        0.19443900000000       -1.43512100000000
H          106.60800999999999       -0.01565100000000        2.85632300000000
H          108.59422499999999       -0.28333800000000        4.65540500000000
H          110.27611499999999       -0.28678600000000        0.78806800000000
H          111.20560399999999       -2.84115800000000        4.70565500000000
H          112.26540799999998       -2.98844600000000        7.05935600000000
H          110.49777800000000       -3.07085800000000        7.11586400000000
H          111.67440499999999       -1.41111600000000        8.68974200000000
H          111.60230700000000        0.79158200000000        8.02254400000000
H          111.62284399999999        1.31189800000000        5.58850300000000
H          113.97222100000000       -0.63417400000000        4.42644300000000
H          115.73533599999999       -0.33220200000000        2.60040900000000
H          115.50949499999999       -0.13362100000000       -2.85738200000000
H          113.52250800000000        0.12634800000000       -4.66000200000000
H          111.85896199999999        0.31052600000000       -0.78961500000000
H          111.00632299999999        2.83360900000000       -4.68004000000000
H          109.94174099999999        3.04270800000000       -7.02754900000000
H          111.71098900000000        3.06829500000000       -7.08999000000000
H          110.47297500000001        1.46711200000000       -8.67761000000000
H          110.46876100000000       -0.74395000000000       -8.03661900000000
H          110.43658400000000       -1.29116200000000       -5.60889200000000
H          108.16267699999999        0.68652700000000       -4.41961600000000
H          106.39743600000000        0.39622600000000       -2.59431000000000
C          118.20179100000000        0.00106300000000       -0.00054500000000
C          118.97748399999999       -0.14650300000000        1.37855200000000
C          118.40430600000001       -0.12728800000000        2.63441200000000
C          119.44480499999999       -0.26708400000000        3.58055600000000
C          120.63082199999998       -0.36596400000000        2.88211200000000
N          120.33765599999998       -0.28631600000000        1.54054700000000
C          122.07042400000000       -0.51338700000000        3.52761100000000
C          122.09403299999998       -0.76339900000000        4.97813500000000
C          122.03311700000000       -2.03471200000000        5.42962600000000
C          122.09237800000000       -2.42235500000000        6.87434300000000
N          122.05541500000000       -1.25757200000000        7.75812300000000
C          122.22675899999999        0.01891300000000        7.27125200000000
C          122.23925199999999        0.30210900000000        5.96312700000000
C          123.19633700000000       -0.40462500000000        2.77454100000000
C          124.50844200000000       -0.48366700000000        3.38250400000000
C          125.42036299999998       -0.32300000000000        2.43254700000000
N          123.39312700000001       -0.21326100000000        1.43273900000000
C          124.73796200000000       -0.15915400000000        1.16410800000000
C          125.42082399999998        0.00106300000000       -0.00054500000000
C          124.64377199999998        0.10635700000000       -1.38137600000000
C          125.21024400000000        0.01778800000000       -2.63741200000000
C          124.16981300000000        0.15271800000000       -3.58458800000000
C          122.99135400000000        0.31745300000000       -2.88555800000000
N          123.28723999999998        0.27304800000000       -1.54342500000000
C          121.55537600000000        0.49686300000000       -3.52861400000000
C          121.53615000000001        0.76525100000000       -4.97567300000000
C          121.64038100000000        2.03880600000000       -5.41272500000000
C          121.58910299999998        2.44487500000000       -6.85258300000000
N          121.58426600000000        1.28986300000000       -7.75017600000000
C          121.36834200000000        0.01480000000000       -7.27717600000000
C          121.34956200000001       -0.28280600000000       -5.97240100000000
C          120.42886600000000        0.40037600000000       -2.77476900000000
C          119.11773399999998        0.51606300000000       -3.37847100000000
C          118.20477800000000        0.36169100000000       -2.42869600000000
C          118.88600699999999        0.16431100000000       -1.16412600000000
N          120.23092100000000        0.19443900000000       -1.43512100000000
H          117.35428000000000       -0.01565100000000        2.85632300000000
H          119.34049499999999       -0.28333800000000        4.65540500000000
H          121.02238599999998       -0.28678600000000        0.78806800000000
H          121.95187400000000       -2.84115800000000        4.70565500000000
H          123.01167799999999       -2.98844600000000        7.05935600000000
H          121.24404900000000       -3.07085800000000        7.11586400000000
H          122.42067599999999       -1.41111600000000        8.68974200000000
H          122.34857800000000        0.79158200000000        8.02254400000000
H          122.36911499999998        1.31189800000000        5.58850300000000
H          124.71849200000000       -0.63417400000000        4.42644300000000
H          126.48160699999998       -0.33220200000000        2.60040900000000
H          126.25576599999998       -0.13362100000000       -2.85738200000000
H          124.26877899999999        0.12634800000000       -4.66000200000000
H          122.60523299999998        0.31052600000000       -0.78961500000000
H          121.75259400000000        2.83360900000000       -4.68004000000000
H          120.68801200000000        3.04270800000000       -7.02754900000000
H          122.45725999999999        3.06829500000000       -7.08999000000000
H          121.21924600000000        1.46711200000000       -8.67761000000000
H          121.21503199999999       -0.74395000000000       -8.03661900000000
H          121.18285500000000       -1.29116200000000       -5.60889200000000
H          118.90894799999998        0.68652700000000       -4.41961600000000
H          117.14370700000001        0.39622600000000       -2.59431000000000
360
 energy: -587.420890056967 gnorm: 0.691163921446 xtb: 6.5.1 (b24c23e)
C           74.50072919993457       -0.00752907955295        0.08854233528124
C           75.21515922013386        1.18168294566698        0.70298337969648
C           74.62858779253128        2.22049455228667        1.41652313788457
C           75.64788142898379        3.13660447702130        1.75285983811326
C           76.84985428939697        2.65560924991771        1.23458600671258
N           76.56809136712684        1.43980527970453        0.64845869837446
C           78.23215905809326        3.34157890809912        1.27275214245465
C           78.24363198576994        4.79117151864612        1.59086904538159
C           77.93766375201977        5.67914917888474        0.62731450762382
C           77.86874949072296        7.16373916540200        0.83445653094668
N           78.31732700981975        7.55348938855453        2.17164770558211
C           78.55191515704297        6.62332106506326        3.15389081985814
C           78.54859496811376        5.30050535657408        2.92319971230815
C           79.38410058090273        2.65272380412124        0.96692068529337
C           80.68228457493485        3.30055733793766        0.94042135549727
C           81.58994143547962        2.39075653722129        0.58385271540902
N           79.57609380267823        1.33901516614133        0.62553394652232
C           80.91344217085003        1.12204584409629        0.37681277212541
C           81.58412824137405       -0.02497161146374        0.00338637666452
C           80.80808664566760       -1.35637179714265       -0.19303714851571
C           81.33567143003118       -2.64185157138888       -0.10009655724548
C           80.31358594853427       -3.56389709837892       -0.40825342715210