360
 energy: -588.134786796866 gnorm: 0.000464096454 xtb: 6.5.1 (b24c23e)
C           74.93885415549697        0.05948044441300        0.05575042854415
C           75.54897871440869        1.22916080143272        0.48892089642537
C           74.89700951047433        2.40846179992679        0.94775924927709
C           75.85881568371170        3.32472801483720        1.26738190716092
C           77.13083791800905        2.73900519303090        1.00590164796038
N           76.89204180103933        1.47295861000849        0.54913255207093
C           78.39269380602619        3.31223729838409        1.19170355048382
C           78.42900488807699        4.71890424138435        1.66063331809818
C           77.88097460821878        5.71258863565611        0.94481162559590
C           77.89294913090096        7.14626058620969        1.40792129027349
N           78.87513511290835        7.34934571168935        2.47593584093486
C           79.25499950984994        6.30692084971962        3.28095214837078
C           79.09314628116601        5.02159407032133        2.92036827349151
C           79.60723944286762        2.65731217930357        0.96316887938927
C           80.90768974587418        3.28401941959496        1.12215227386474
C           81.82545797648170        2.34774350938335        0.80549120310596
N           79.75570669747222        1.37341306499601        0.54294230121075
C           81.08546517936500        1.15363689988657        0.44316145606420
C           81.71362264695306       -0.03706014784120        0.04324632015339
C           81.08215925169100       -1.22218104711708       -0.36587959591076
C           81.72793942588154       -2.43024942389401       -0.74411965473442
C           80.76208689935748       -3.34096313134080       -1.07035427419152
C           79.49466490188283       -2.71479035407199       -0.90952727316545
N           79.73977051843630       -1.43851332788982       -0.47777792399481
C           78.23293631308458       -3.28307802347049       -1.11780627769290
C           78.20302952049178       -4.68649877599807       -1.59470293906120
C           77.61401363497090       -5.65876905084579       -0.88223548353072
C           77.55621212884658       -7.08744870950968       -1.35634060424437
N           78.53124252997569       -7.33113687761363       -2.42287036262958
C           78.95354956655001       -6.30231714351382       -3.22521656826375
C           78.85089276821836       -5.01301306832905       -2.85764580839765
C           77.01839061098789       -2.62220541853563       -0.90605431408109
C           75.71211963900782       -3.19819746197019       -1.18503620356694
C           74.80124614357403       -2.26184579475575       -0.85030067466017
C           75.54974494306366       -1.11009604886629       -0.37936664236405
N           76.88042908107251       -1.35927580992159       -0.43537754059217
H           73.85339646949214        0.06993346787995        0.05763348163601
H           73.82758899314125        2.52527184786893        1.02434946104356
H           75.70755761102905        4.31727269832305        1.65975933700434
H           77.61783348965926        0.81199164939274        0.29300024008695
H           77.38965863856781        5.52966001997074       -0.00382564108739
H           76.88593548223085        7.44386251598257        1.75644731101874
H           78.15637112495386        7.81089267021736        0.57403161374828
H           78.81802356460717        8.25617999210679        2.91624509398142
H           79.77066998669274        6.59920461348198        4.19013914833949
H           79.44333918488117        4.21256700924164        3.54543553221253
H           81.07295932781419        4.30495416020823        1.42633233861574
H           82.90043702426397        2.43314236323423        0.80043898438566
H           82.79632071698833       -2.57490152370707       -0.75530943920401
H           80.90982840769054       -4.35988566011329       -1.38939878226187
H           79.01629360795036       -0.76068907375717       -0.26156109667619
H           77.13358780463668       -5.45862771249622        0.06832609651226
H           76.53693990710310       -7.33132748887878       -1.71057149561094
H           77.78338071957438       -7.77088324711390       -0.52719951853659
H           78.42673821533258       -8.22998495388496       -2.87121336136006
H           79.45260218641907       -6.61277400453198       -4.13769909868815
H           79.23235615350545       -4.21758140151031       -3.48209232767311
H           75.54032762054499       -4.18038742724277       -1.59518357286284
H           73.72537912768595       -2.31269757276899       -0.91460100694639
C          136.44809060057545       -0.07869750302082       -0.00997699429794
C          135.83706301380724       -1.29543855188220       -0.28248017898240
C          136.48687372116802       -2.54157299729932       -0.50881561453823
C          135.52499427940819       -3.47994190454587       -0.75592660058670
C          134.25540255468192       -2.83606186668305       -0.70026930369152
N          134.49507162561363       -1.52454491946615       -0.39842759199701
C          132.99434346992683       -3.40683276035984       -0.89905067957529
C          132.95587891528615       -4.84449743927268       -1.26045370630025
C          133.55018200393820       -5.30945879238067       -2.36993676271999
C          133.53883560197920       -6.76935594075602       -2.74250236225446
N          132.50650518623709       -7.49704895577657       -1.99997733344944
C          132.07577216459126       -7.04138947895853       -0.78062853463751
C          132.23800119172338       -5.76501999579280       -0.39014186569582
C          131.78157057619376       -2.71993237417496       -0.78009757921461
C          130.48406542279048       -3.31568875096403       -1.04612701919738
C          129.56663531757980       -2.35387231114258       -0.81687937632344
N          131.63274729143706       -1.41836299680063       -0.41911161427267
C          130.30424442823335       -1.16958812941210       -0.41933951231376
C          129.67524241501266        0.03628232719655       -0.06972188300894
C          130.30661634160231        1.23866796785529        0.28539282858130
C          129.66136045430554        2.45054933536187        0.65210141290123
C          130.62746438285797        3.38895801288748        0.88635708626727
C          131.89444464590258        2.78094951409426        0.66418553284309
N          131.64909419594653        1.48031539780979        0.31320891351585
C          133.15601036647828        3.37276074672989        0.79367678065546
C          133.18473101164767        4.81068327179386        1.15286961759702
C          133.78260904016312        5.24653203302860        2.27196203953391
C          133.83967104502901        6.70534551796868        2.64332895684215
N          132.85767997884508        7.48441594988645        1.88410927241965
C          132.42471738215914        7.04931381095700        0.65785115516809
C          132.52613026975249        5.76540791217919        0.27170940382596
C          134.37032170729518        2.70373497101518        0.60783233373177
C          135.67716875492769        3.33760925531753        0.68697795541956
C          136.58751017488038        2.36683312923029        0.46917960699170
C          135.83808948235347        1.14394884922914        0.24220992984438
N          134.50743835027689        1.38657827722192        0.32151715706221
H          137.53341281910144       -0.09318746278499        0.00402101607501
H          137.55479569093347       -2.68884328005354       -0.47684253735149
H          135.67475702570189       -4.52944197722441       -0.95108336368471
H          133.77041637708442       -0.82470456984141       -0.27869217818838
H          134.08137342730780       -4.65480688446920       -3.05111092189606
H          134.53157498410735       -7.21970278816284       -2.55310435802017
H          133.33011357538948       -6.88484897074246       -3.81456376357110
H          132.55656602153510       -8.49968613698857       -2.10887896352060
H          131.52114820348623       -7.76688195134503       -0.19412688258048
H          131.84797897937455       -5.41052730223795        0.55332382720240
H          130.32085528065323       -4.33009331763082       -1.37248191479840
H          128.49352837023673       -2.41156051040870       -0.90649443858060
H          128.59313622066142        2.57610977338263        0.72715651117394
H          130.48032817356267        4.41226937392812        1.19132865234445
H          132.37224815738787        0.79801097196507        0.11049167408256
H          134.27108526741566        4.56658263512039        2.96004093480944
H          134.85686040487806        7.10399418542500        2.46946669903100
H          133.61993795498540        6.83273807143864        3.71182353888334
H          132.96250696530004        8.48331765438218        1.98932532704272
H          131.91886344704400        7.80169052818145        0.06109812148124
H          132.13603564693128        5.43126610691635       -0.67927352113967
H          135.84992768980393        4.38582193034725        0.87090735118998
H          137.66360141542839        2.44263666075310        0.44706777299544
C           83.13209540875141       -0.05636429039172        0.04386196787893
C           84.34657543599813       -0.06677265291162        0.04082551925245
C           94.08287843906005       -0.03830332131471        0.05397437317190
C           95.30189476456617       -0.00091952029011        0.05408614881355
C          105.08465577647350       -0.02019768068413        0.01139268398143
C          106.30408197926643        0.00932091801402        0.00993567779301
C          116.08741001876864       -0.01148681111244       -0.03083252529924
C          117.30649180997794        0.02479625932379       -0.02698899534986
C          127.04223100181669        0.06380535746019       -0.06864009312495
C          128.25667979702416        0.05454157794036       -0.07080544875105
C           85.76370068856514       -0.08076211145186        0.04132376121911
C           86.38650241890895       -0.25113038243170        1.28763494645165
C           85.74254959728168       -0.39044995472878        2.54524530549170
C           86.71195798601424       -0.52071166940053        3.50117276326680
C           87.97753300726927       -0.47336736170614        2.85376494396720
N           87.73000163275242       -0.30392029583825        1.51844699513970
C           89.23820317293944       -0.55857595824150        3.45419807377822
C           89.25706374935925       -0.76779298797633        4.92451739104707
C           88.75660727306878       -1.87915125378522        5.48424424302254
C           88.81394039426981       -2.13247151179951        6.96793921961292
N           89.08627725683178       -0.89643309170865        7.70631769667769
C           89.74228439466991        0.14640917191715        7.10466075919361
C           89.83017294664064        0.27025396123499        5.76870228132813
C           90.46593123961006       -0.46452674096939        2.79689808467962
C           91.74141530669276       -0.62013168949560        3.47079957117615
C           92.69191927488896       -0.47729047673801        2.52459998496689
N           90.66450630415896       -0.24740402883043        1.46652001117818
C           92.00039479994690       -0.24312356472084        1.27434666737438
C           92.67379280459892       -0.05486362602277        0.04832555027726
C           92.03887046134862        0.11219848379405       -1.19937650489081
C           92.67169650648972        0.23409694497459       -2.46223739957542
C           91.69863299630414        0.36738508477665       -3.41396393811375
C           90.43774758034489        0.33458946093583       -2.75894839107299
N           90.69424494084987        0.16926332811026       -1.42296397808959
C           89.17906902133132        0.42509597143148       -3.36348281084450
C           89.16540951448087        0.65891352404912       -4.82968035171623
C           89.67024430766351        1.78092420596018       -5.36430062386376
C           89.61314879482390        2.06968434341402       -6.84126785226363
N           89.32903251060679        0.85413314588516       -7.60858869591115
C           88.67288447317729       -0.20125895406502       -7.02986550461759
C           88.58846556617914       -0.35744597366056       -5.69696452046313
C           87.94829744912356        0.32144742946914       -2.71199290594913
C           86.66771942644925        0.46813022848078       -3.38241384540479
C           85.71955199065391        0.31847046736935       -2.43473655048771
C           86.42175823592392        0.09178672045585       -1.18675663508965
N           87.75854311867950        0.10161183155420       -1.38460324018840
H           84.67419100095368       -0.38356997132153        2.68998085591969
H           86.56817471301565       -0.63146844601588        4.56356836229196
H           88.44480252616920       -0.22332445638956        0.80309662714955
H           88.35098329157410       -2.68664637329682        4.88577808716909
H           89.58700617532240       -2.89004774893361        7.19690601737029
H           87.85378868145145       -2.53346568196647        7.32005241328345
H           89.28524958457429       -1.04223659378378        8.68557675126041
H           90.10898371964136        0.90591526695022        7.78778642182945
H           90.28410568692384        1.13816852472437        5.31204727948209
H           91.87051058072736       -0.82460099775790        4.52143867135968
H           93.76119605283597       -0.53308786242679        2.63776970301797
H           93.73629927248949        0.20697720990999       -2.62049069140570
H           91.83850066295754        0.46665266980790       -4.47792350211898
H           89.98369905519048        0.09820088892765       -0.70226852879139
H           90.07849018792049        2.57292647982099       -4.74716238389675
H           88.84614772182701        2.83899993914222       -7.05051907052151
H           90.57612531052196        2.47130408408251       -7.18519787827211
H           89.12612525334933        1.02497860926363       -8.58293579788306
H           88.30209239832227       -0.94300779656276       -7.73008874969216
H           88.13476685660414       -1.23585095207928       -5.26060766955742
H           86.53539442783878        0.67052431380689       -4.43314144901757
H           84.64717776390546        0.36242788179933       -2.54004429261042
C           96.71035802227831        0.01072628459431        0.05477725502690
C           97.35592258834343       -0.23804911738351        1.28327459311006
C           96.73830956346077       -0.44803084944333        2.54120769843386
C           97.72341988433266       -0.60422789147455        3.47718071861585
C           98.97616083099975       -0.50466672367934        2.81455979854955
N           98.70363756290234       -0.28075927779706        1.49087710195492
C          100.24189669655340       -0.58407143239145        3.40620389110823
C          100.26704784391990       -0.83286292359591        4.87131245502774
C           99.81804626228792       -1.98078759159950        5.39930384153087
C           99.88663078735556       -2.27048371007750        6.87593838321074
N          100.09206396362944       -1.04146053857636        7.64697793628462
C          100.70229005733299        0.04586246767703        7.07613580056199
C          100.79005007168837        0.20786787832867        5.74427969198127
C          101.46901380184890       -0.45272120842563        2.75681596833257
C          102.74406849967491       -0.59286321605755        3.43507786571519
C          103.69605638935013       -0.43378882656215        2.49299904955931
N          101.66950846025603       -0.22288129679684        1.42883745998408
C          103.00557189056445       -0.20602069190335        1.24142495333218
C          103.67693502734338       -0.02562368289452        0.01317348276244
C          103.03103313608952        0.14202803934781       -1.22919611995162
C          103.64578025216640        0.23676718344751       -2.50236919412650
C          102.65973051651102        0.39483968442700       -3.43786594428234
C          101.41077193350566        0.40852283376887       -2.76047441774335
N          101.68513261539167        0.23721180439342       -1.42929314514735
C          100.14562404626626        0.56768132817658       -3.33864870414839
C          100.11872301573177        0.81114306505437       -4.80342716821401
C          100.68358809174663        1.89878895057825       -5.34886805802867
C          100.61683977542312        2.18765106461329       -6.82558754092561
N          100.26181610321728        0.98545559260308       -7.58431049138616
C           99.54393776362734       -0.02318073028620       -6.99405734290585
C           99.46414592263821       -0.16724834958061       -5.65976817512248
C           98.91992766165396        0.51955105846780       -2.67316617852034
C           97.65070879721880        0.78452062318854       -3.32493023649210
C           96.69790101696859        0.63044580695908       -2.38220323271621
C           97.38289026118376        0.27525786899578       -1.15754288504366
N           98.71704078466630        0.23447125792191       -1.35665376984901
H           95.67518196378268       -0.46471372597019        2.70829231892819
H           97.59576461932775       -0.76486017698179        4.53511578935542
H           99.40303466146207       -0.15899543240121        0.76592996630061
H           99.44926219130483       -2.78899095005903        4.77846308935253
H          100.69850760384192       -2.99193131174050        7.08682733303391
H           98.94854433991875       -2.73057623707741        7.21477336074271
H          100.29273720196628       -1.20243718746773        8.62353849807303
H          101.03026045865197        0.80364249007985        7.78053533515249
H          101.20640417673766        1.10654654357345        5.31196735112420
H          102.87206837226063       -0.79766748699013        4.48577339417417
H          104.76558895780953       -0.47384111131508        2.60997288275035
H          104.70638085368012        0.17525016028151       -2.67846764210757
H          102.78410915916957        0.48321336973936       -4.50469014213449
H          100.98811491515545        0.18770446571743       -0.69369071062743
H          101.15221349669910        2.66422612674779       -4.74127085839893
H           99.88512848952216        2.99326272359868       -7.02494324709872
H          101.59259953448147        2.54024138510895       -7.18609233030182
H          100.05999277789907        1.16380963992751       -8.55765365722642
H           99.11938961800189       -0.74301518884430       -7.68652918256530
H           98.95793715418205       -1.01136905142678       -5.21358755797568
H           97.52796219269858        1.06667865598880       -4.35824272276212
H           95.63293610055369        0.75893124939826       -2.47956020786728
C          107.71177770005015        0.01562042073883        0.00903919008905
C          108.35762698093887       -0.23279934260856        1.23765386275045
C          107.73963764213713       -0.44190086507368        2.49547463335573
C          108.72439578886232       -0.59803960339296        3.43180937305974
C          109.97728301337580       -0.49974442929834        2.76934196176762
N          109.70514555616880       -0.27650808064501        1.44536321392727
C          111.24271936389812       -0.58085392791657        3.36104926604619
C          111.26774416686911       -0.82701973112233        4.82656240332244
C          110.81638512370972       -1.97254022773008        5.35773031343633
C          110.88517273639701       -2.25845080867689        6.83510853442050
N          111.09322939757456       -1.02786153182630        7.60301714427056
C          111.70523683275667        0.05681725685253        7.02897245226090
C          111.79309018682919        0.21494267007880        5.69668411177330
C          112.47013966824683       -0.45251538505598        2.71141289183041
C          113.74472158330163       -0.59820801009588        3.38930997022481
C          114.69712987597426       -0.43971295062801        2.44758386642535
N          112.67110277556385       -0.22040834081857        1.38411019891097
C          114.00745406862085       -0.20592815753739        1.19669677817381
C          114.67890300081429       -0.02159211936992       -0.03067884974561
C          114.03244520503384        0.14770425053840       -1.27252497195567
C          114.64666957196570        0.24611320078845       -2.54562088590944
C          113.66061961986411        0.40520446804957       -3.48079401517827
C          112.41163121118294        0.41581383671392       -2.80351259853049
N          112.68615768447344        0.24142420633193       -1.47274288977208
C          111.14681956278424        0.57486395255719       -3.38297416335830
C          111.12287660625971        0.82469477546806       -4.84682922893071
C          111.68641065803251        1.91685032214843       -5.38459130644928
C          111.62476997398149        2.21308154863747       -6.86002813155354
N          111.27625629394493        1.01358033959167       -7.62594291655387
C          110.55853171997482        0.00020023252308       -7.04369827516554
C          110.47394018358644       -0.15097299838836       -5.71045089211527
C          109.92034114193318        0.52295466080279       -2.71968778621529
C          108.65062766265480        0.78399688682732       -3.37229200942736
C          107.69762010302998        0.62856796655298       -2.42985432657898
C          108.38355202678135        0.27710336180081       -1.20447120202029
N          109.71745357317602        0.23817503161520       -1.40299808393453
H          106.67648919055553       -0.45878832817280        2.66216541891740
H          108.59642854648698       -0.75807136354506        4.48979008297672
H          110.40476074178532       -0.15532289475636        0.72055850689818
H          110.44559385490422       -2.78163058978941        4.73924437736057
H          111.69587630107387       -2.98080176618246        7.04741306279300
H          109.94644778610783       -2.71599988343466        7.17560752415358
H          111.29510191728129       -1.18710717799261        8.57963369780863
H          112.03460686422191        0.81603377869765        7.73116287367284
H          112.21091861566634        1.11170878360187        5.26182581671552
H          113.87206313515415       -0.80653422353702        4.43940031138743
H          115.76643813385392       -0.48497044730248        2.56422789894881
H          115.70707525230242        0.18605408279835       -2.72229882031401
H          113.78520925739332        0.49606126327388       -4.54737263156703
H          111.98915079242728        0.18997803232365       -0.73727469625902
H          112.15090236795054        2.68018475583679       -4.77121414071276
H          110.89169185337303        3.01765346193580       -7.05848837986586
H          112.60105488863972        2.57007512844202       -7.21473486570772
H          111.07879550041925        1.19572975594628       -8.59946811994825
H          110.13851071593818       -0.71706851496753       -7.74158239326756
H          109.96809989382774       -0.99862540492071       -5.27059157285006
H          108.52778286332455        1.06415496153052       -4.40615079324745
H          106.63198372269346        0.75285381676978       -2.52780149718842
C          118.71555268818433        0.04269242286235       -0.02672413406931
C          119.35935764319794       -0.18637257785422        1.20654180165863
C          118.73449556997991       -0.39089587877379        2.46250305691197
C          119.71295843838149       -0.53623868628764        3.40647388364135
C          120.97052350584977       -0.43416765845168        2.75246390255507
N          120.70581076301141       -0.21916285664766        1.42500018754501
C          122.23225272833297       -0.50411680892673        3.35281882704404
C          122.25606240531266       -0.76044284034120        4.81548705047691
C          121.79452278068162       -1.90733570107769        5.33574187037821
C          121.86159950358962       -2.21055451709543        6.80954106407106
N          122.09276854414051       -0.99268624964837        7.59080970102682
C          122.71107456175599        0.09291451619454        7.02634270815622
C          122.79358583271487        0.26666022739685        5.69550632111495
C          123.45840258652758       -0.36031684923370        2.70070243493174
C          124.74346862606559       -0.48905500289502        3.36608824138030
C          125.68564846172009       -0.32301113707136        2.41521880232392
N          123.63961082079884       -0.12863466106671        1.37423020529029
C          124.97529283445215       -0.10192254134445        1.17072046633909
C          125.62498813807774        0.07635792478776       -0.06088996594485
C          124.99377591116567        0.25221591390707       -1.30213477618885
C          125.62911925927774        0.39155581917870       -2.56403797385827
C          124.65364266871600        0.53908502016321       -3.51129119417684
C          123.39276248851655        0.50419504743584       -2.85389048499269
N          123.64905857960886        0.31971362902123       -1.52213343341141
C          122.12858342872401        0.62735994298996       -3.44065442052812
C          122.10011987894718        0.86201316972271       -4.90655845900440
C          122.63466866666177        1.96222681381233       -5.45703961926627
C          122.57130775380817        2.23528970043980       -6.93702229361226
N          122.26376735486687        1.01442239215353       -7.68652244760083
C          121.57079809087999       -0.00990724101973       -7.09375897895286
C          121.48242225912425       -0.14350753470604       -5.75887440901935
C          120.90530996428095        0.54834501308430       -2.77271814383308
C          119.62793418503753        0.77193884969209       -3.42372307713020
C          118.68299220150855        0.61304321295613       -2.47408178379320
C          119.38073735060098        0.29490404671091       -1.24575257123304
N          120.71441166938673        0.27818120313686       -1.45122988483020
H          117.67040581952388       -0.41235913378058        2.62233981740030
H          119.57815403111209       -0.69014518386030        4.46453582180462
H          121.41234862144827       -0.09761597361190        0.70711847110877
H          121.41650355200689       -2.70668722665249        4.70895768379820
H          122.66004512343396       -2.94915479624574        7.01181199904911
H          120.91582556045516       -2.65600123060461        7.14700814630983
H          122.29700383528495       -1.16547983883907        8.56454506296748
H          123.05143929771636        0.84032659689983        7.73593353349526
H          123.21601928600080        1.16573911181701        5.26998053457055
H          124.88235758395767       -0.69209136002778        4.41585870481579
H          126.75891437764788       -0.35197289500744        2.51634572011888
H          126.69616212589015        0.37304302609223       -2.71734122676822
H          124.79061235055754        0.65440553507669       -4.57408975587710
H          122.93918015156943        0.24042935185794       -0.80180426696106
H          123.07491913140737        2.74693435625311       -4.85279912572914
H          121.81493019707871        3.01397165941695       -7.15086378538125
H          123.53805975430141        2.61666075512406       -7.29239588003474
H          122.06981899781121        1.17522060286082       -8.66448035873895
H          121.17530578216612       -0.74898562722965       -7.78317563235059
H          120.99774009047695       -0.99819643299965       -5.30888714852518
H          119.49509543314363        1.03202093245210       -4.46158288232266
H          117.61487654807391        0.71377235694555       -2.56952495700144
