144
 energy: -231.930293527971 gnorm: 0.000304268659 xtb: 6.5.1 (b24c23e)
Ni          12.93531147247413        0.05595326500736       -0.11536161045615
C            9.58093323722861        0.26425517113828       -0.59803512284945
C           10.23159154863684        1.37028142252027       -0.09209864037847
C            9.56103881213561        2.57856656306010        0.27918689651226
C           10.51530991487076        3.43348235367364        0.71570255168349
C           11.77147820528590        2.75468530534247        0.58668528717991
N           11.58320150307451        1.47749771401150        0.11966989877435
C           12.99982440362639        3.34434089544354        0.85417080307597
C           14.20404483907851        2.67100523583232        0.70148326764332
C           15.48345221254324        3.29109429158914        0.86755557566789
C           16.41477043380205        2.33323229205750        0.64449431575172
N           14.35208283216239        1.34511171448876        0.36120340629291
C           15.70304701604942        1.13077749639553        0.34858190797220
C           16.33665214089648       -0.09777077953458        0.14197532246508
C           15.63045094369122       -1.27946547588583       -0.09920975748099
C           16.26418293086239       -2.55237835593894       -0.23460412811038
C           15.28262044649943       -3.44986940514560       -0.49085308729001
C           14.05195497519965       -2.71927776382047       -0.52096890816789
C           12.83586757640126       -3.28453309859130       -0.87583652751066
C           12.79168907700853       -4.73664548240918       -1.18575080398387
C           12.56323204538333       -5.16776743161415       -2.49030470331730
C           12.52470120937532       -6.52677615306870       -2.78746556857226
C           12.26622615270433       -6.98524467567190       -4.19730196007186
C           12.70712599741955       -7.45248893243496       -1.76571224442407
C           12.93327676981204       -7.03571848013348       -0.45632504236949
C           13.14050398174355       -8.05319400579065        0.63288152384481
C           12.97988861473031       -5.67557029728971       -0.17281157610423
C           11.66572239619536       -2.54566147347853       -0.98336140690793
C           10.40686885376618       -3.10080726285689       -1.38600149742452
C            9.50021551006951       -2.09749033441043       -1.33107463166974
C           10.20128394592621       -0.93575801103956       -0.87586977408996
N           11.53087475741435       -1.21384732894839       -0.67968153874238
N           14.27687655733755       -1.38546996496203       -0.26192074498854
C           13.03169052725391        4.76346932479656        1.28613300873376
C           12.56768561562280        5.76646201024398        0.43619519214675
C           12.59873816872495        7.09870905668227        0.83348582008354
C           12.12088109509152        8.18103474841909       -0.09647130618060
C           13.09666863366867        7.42333331537275        2.09198887951624
C           13.56394345299908        6.43342312454652        2.95120696469455
C           14.07935860359014        6.79472097306706        4.31806958267316
C           13.53072415453301        5.10442830987426        2.54205947525825
H            8.51133527108551        0.33300417861021       -0.75903406409310
H            8.49509382451142        2.72979489097985        0.21627995290720
H           10.39304205133276        4.43562106658177        1.09331414735631
H           15.63793460170231        4.32944045419384        1.11138740002131
H           17.48904979815559        2.41628751142340        0.67874845275072
H           17.32524831554076       -2.72022211535863       -0.14379992516000
H           15.37295329763196       -4.50984764982668       -0.66382670725786
H           12.43031072978521       -4.43537134912190       -3.27902922550407
H           12.69016701129792       -7.97476223338729       -4.36880085542926
H           11.19031644048176       -7.03932661786572       -4.37871650510574
H           12.69563382701364       -6.28721135086263       -4.91639092100473
H           12.67407013892405       -8.51360853708627       -1.99072860911532
H           13.04193411944522       -7.59684320221415        1.61768061491867
H           12.41467880879866       -8.86266787989908        0.54538142480113
H           14.13983042115952       -8.48663477862479        0.55323583523496
H           13.14957484480531       -5.33623306995530        0.84311957914129
H           10.25046913590922       -4.12992090828077       -1.66597006016124
H            8.44607063420997       -2.12513912106517       -1.55709850077927
H           12.19567078786831        5.50186105818016       -0.54756570591814
H           11.65634896689688        8.99428548008620        0.46179859300033
H           11.40025462401004        7.78778563896191       -0.81363658557236
H           12.96619205074458        8.59195778771343       -0.65320623922076
H           13.12185292612758        8.46164964874014        2.40650848035542
H           13.25319314083227        6.81538916209318        5.03252626269488
H           14.54409191685973        7.78092209149728        4.30920635157830
H           14.80933608802509        6.06286700992006        4.66427982977386
H           13.88190173711240        4.32249794085293        3.20645294785976
Ni          31.47627985174960        0.09347250394152       -0.08955199774611
C           34.83043206724901        0.49847738082005       -0.42410069630521
C           34.18015795231543       -0.29798821276684       -1.34356078074691
C           34.85107256440076       -0.99506229512039       -2.39777882819665
C           33.89670928956912       -1.65276741177474       -3.09684184405802
C           32.64011791304972       -1.33565983040269       -2.48377670739171
N           32.82832327809817       -0.52966391908407       -1.38847692521400
C           31.41147366737841       -1.75301003355123       -2.97818123227450
C           30.20711285005451       -1.41474746353277       -2.37649854866608
C           28.92756194583875       -1.74219899547307       -2.92829674771262
C           27.99636318771561       -1.26080034547463       -2.07052245190065
N           30.05929150841741       -0.72027559819354       -1.19684596865971
C           28.70830549546237       -0.64599639900926       -0.99573883783924
C           28.07498890887242       -0.10811745826752        0.12814258473447
C           28.78147139383044        0.44935591918058        1.19743237708298
C           28.14789111982057        0.93167548298688        2.38322183149936
C           29.12939299243664        1.42738668019421        3.17412237715806
C           30.36003448023173        1.25444859047538        2.46354532965917
C           31.57592596957531        1.75387703519619        2.90719589724171
C           31.62000319981157        2.45566665558860        4.21550287359065
C           31.85791516704076        3.82710742503520        4.26696197325243
C           31.89655850645002        4.49102017998988        5.48940229534656
C           32.16639402357715        5.97070725317735        5.53773826502470
C           31.70370339434358        3.76928568291199        6.66247304596400
C           31.46750680120556        2.39733317803894        6.62625368702776
C           31.24831270038119        1.63681084497125        7.90614713148143
C           31.42186407772863        1.74609847361391        5.39892673320322
C           32.74571756243986        1.65291714087880        2.16661503568206
C           34.00458354473206        2.19496932500397        2.58677669651951
C           34.91082926184205        1.86340348356373        1.63785000014349
C           34.20975870073990        1.10168594451122        0.64966419204040
N           32.88037868279070        0.99011390403170        0.97215767098641
N           30.13502272974923        0.63548835582650        1.25398822496261
C           31.37971343128309       -2.56271604481792       -4.22103864001358
C           31.85160048137209       -2.02810860012497       -5.41907347683971
C           31.82112204506276       -2.78022191110275       -6.58827696766825
C           32.30797006843198       -2.19091225763076       -7.88454140142486
C           31.31551436521351       -4.07644214696695       -6.55199952004410
C           30.84017026550544       -4.62356083287251       -5.36404290745062
C           30.31632461484622       -6.03392586811280       -5.33296496638369
C           30.87314142346077       -3.86105123636773       -4.20118333586550
H           35.90005829715765        0.63376142786422       -0.53492220210148
H           35.91728698607947       -0.97906842073408       -2.55901671867034
H           34.01923060820639       -2.29730942474204       -3.95203959853721
H           28.77291170704030       -2.26299075197644       -3.85907318066125
H           26.92202935044086       -1.31393392327445       -2.14220759058336
H           27.08691552174781        0.89040226557333        2.57004069412589
H           29.03872371067621        1.88770207201884        4.14442475724848
H           31.99794494015228        4.37960199116792        3.34429916012603
H           31.74271751098885        6.41452461032875        6.43873777541672
H           33.24376025487513        6.15149490113024        5.54297990758614
H           31.74407263639257        6.47012076437748        4.66541020774716
H           31.73636441820746        4.28096976088205        7.61892828565393
H           31.33854930838703        0.56302126168670        7.74297378463828
H           31.97333764354763        1.94049991022876        8.66234678053385
H           30.24893722813876        1.84261148144050        8.29572212508785
H           31.24520559656934        0.67698919094906        5.35570747010286
H           34.16170035677685        2.75021448763210        3.49721617591314
H           35.96481799109664        2.08882039126937        1.60084821588518
H           32.22939907384172       -1.01167571302329       -5.43715552112740
H           32.77022443477326       -2.95620864815624       -8.50861889263013
H           33.03291259833476       -1.39726946211267       -7.70323125951053
H           31.46758709164030       -1.76502227559480       -8.43748094566897
H           31.29066153015355       -4.66729802721949       -7.46190847252032
H           31.13751837128553       -6.73073064230526       -5.14986442753269
H           29.85465879516458       -6.29729089609200       -6.28488494656979
H           29.58171658913036       -6.15835454767066       -4.53722006887901
H           30.51592233661848       -4.27975231292589       -3.26670646094032
C           17.73995552912085       -0.14728437229724        0.19627820338299
C           18.96315140958926       -0.17705942497605        0.23223798604526
C           20.30630196144290       -0.19929373753807        0.25916231471045
C           21.53644429178329       -0.20564522707071        0.27239189648768
C           22.87527964107408       -0.20350807949459        0.27320576804981
C           24.10534802403705       -0.19004362876015        0.25858264074835
C           25.44847177256748       -0.17052209793961        0.22917423870219
C           26.67167992312617       -0.14609845894284        0.19080939048812
