181
 energy: -324.597638850397 gnorm: 0.611090945432 xtb: 6.5.1 (b24c23e)
Fe          29.49763500000000        0.02854900000000       -0.02285800000000
C           26.16735000000000       -0.12218100000000       -0.17265500000000
C           26.83347200000000       -1.27924400000000       -0.13947800000000
C           26.18438099999999       -2.58453100000000       -0.12814000000000
C           27.12411600000000       -3.50485000000000       -0.02491400000000
C           28.42869200000000       -2.82970700000000        0.02780100000000
N           28.25090500000000       -1.41468500000000       -0.04792800000000
C           29.61738000000000       -3.45010800000000        0.17551800000000
C           29.65235400000000       -4.92518200000000        0.28851900000000
C           29.45973600000000       -5.72632400000000       -0.84751400000000
C           29.48549100000000       -7.11964600000000       -0.73680500000000
C           29.70824900000000       -7.72261200000000        0.50907400000000
O           29.73404500000000       -9.10967800000000        0.63171400000000
C           29.90555000000000       -6.92507300000000        1.64174200000000
C           29.87635700000000       -5.53145900000000        1.53403700000000
C           30.91280400000000       -2.72147800000000        0.23865500000000
C           32.20679500000000       -3.37696600000000        0.46568500000000
C           33.14191600000000       -2.45070100000000        0.42246000000000
N           31.05229900000000       -1.44307300000000        0.05609800000000
C           32.45478300000000       -1.19207500000000        0.16007000000000
C           33.05154600000000       -0.00114300000000       -0.01898900000000
C           32.29635900000000        1.24418500000000       -0.29601600000000
C           32.85287900000000        2.37121400000000       -0.72058600000000
C           31.80852399999999        3.37339000000000       -0.78360900000000
C           30.68038800000000        2.79506500000000       -0.39152100000000
N           30.89695100000000        1.42005000000000       -0.06606000000000
C           29.38273900000000        3.50643800000000       -0.25807000000000
C           29.39199600000000        4.98789400000000       -0.20790900000000
C           30.00699699999999        5.64994800000000        0.86662100000000
C           30.02477900000000        7.04660400000000        0.91618100000000
C           29.43763100000000        7.79325700000000       -0.10940100000000
O           29.45727100000000        9.18398900000000       -0.04303400000000
C           28.83659000000000        7.13629700000000       -1.19314600000000
C           28.81511600000000        5.73988600000000       -1.24315200000000
C           28.21413099999999        2.84336300000000       -0.17200800000000
C           26.89160000000000        3.44510600000000       -0.01045600000000
C           26.03204300000000        2.44528700000000        0.00101900000000
C           26.79586400000000        1.20741600000000       -0.13938800000000
N           28.06921400000000        1.42643400000000       -0.24168600000000
H           25.08419000000000       -0.15463100000000       -0.19903300000000
H           25.12098800000000       -2.78078100000000       -0.17728300000000
H           26.93618800000000       -4.56968200000000        0.02275600000000
H           29.28663900000000       -5.27081700000000       -1.81504300000000
H           29.33195100000000       -7.72916400000000       -1.61833900000000
H           29.58818900000000       -9.71451800000000       -0.16875400000000
H           30.07957800000000       -7.38600800000000        2.60613600000000
H           30.02837700000000       -4.92486700000000        2.41855900000000
H           32.38729500000000       -4.43086100000000        0.63259900000000
H           34.20259600000000       -2.62505100000000        0.54803800000000
H           33.89589500000000        2.53204900000000       -0.95670400000000
H           31.93551900000000        4.40615400000000       -1.07965100000000
H           30.46314700000000        5.08375800000000        1.66862600000000
H           30.49052700000000        7.54922400000000        1.75532900000000
H           29.03391900000000        9.75339900000000       -0.76741000000000
H           28.38768100000000        7.70662300000000       -1.99608200000000
H           28.35215000000000        5.24370800000000       -2.08849800000000
H           26.63910500000000        4.49263500000000        0.08658800000000
H           24.95906600000000        2.53891000000000        0.10691400000000
Fe          59.66448799999999       -0.03108200000000       -0.01855800000000
C           62.99477300000000        0.09659700000000       -0.18843100000000
C           62.32865100000000        1.24644800000000       -0.32160600000000
C           62.97774200000000        2.53985800000000       -0.49766100000000
C           62.03800699999999        3.46546600000000       -0.52754600000000
C           60.73343100000000        2.80487100000000       -0.37851000000000
N           60.91121800000000        1.39362400000000       -0.25043600000000
C           59.54474300000000        3.44004700000000       -0.32133300000000
C           59.50976900000000        4.91607300000000       -0.42113700000000
C           59.70238799999999        5.54593400000000       -1.66036000000000
C           59.67663199999999        6.94072500000000       -1.75070300000000
C           59.45387400000000        7.71620500000000       -0.60422300000000
O           59.42807800000000        9.10651600000000       -0.68186100000000
C           59.25657300000000        7.08942500000000        0.63115200000000
C           59.28576600000000        5.69477700000000        0.72451000000000
C           58.24931900000000        2.72801400000000       -0.15431000000000
C           56.95532799999999        3.40929300000000       -0.02367400000000
C           56.02020699999999        2.48640900000000        0.06644300000000
N           58.10982400000000        1.43664200000000       -0.15155900000000
C           56.70734100000000        1.20315900000000       -0.01265100000000
C           56.11057700000000       -0.00114300000000       -0.01898900000000
C           56.86576400000000       -1.27333200000000       -0.11447800000000
C           56.30924400000000       -2.44961600000000       -0.37295400000000
C           57.35359900000000       -3.45046600000000       -0.29153900000000
C           58.48173500000000       -2.82186900000000        0.01351700000000
N           58.26517199999999       -1.41438500000000        0.13833100000000
C           59.77938400000000       -3.50673500000000        0.24765200000000
C           59.77012700000000       -4.96566800000000        0.50984500000000
C           59.15512600000000       -5.46670400000000        1.66824600000000
C           59.13734400000000       -6.84180000000000        1.91767800000000
C           59.72449200000000       -7.72787300000000        1.00983200000000
O           59.70485200000000       -9.09469400000000        1.27504700000000
C           60.32553399999999       -7.23320000000000       -0.15695700000000
C           60.34700699999999       -5.85841100000000       -0.40679600000000
C           60.94799200000000       -2.83817300000000        0.23769000000000
C           62.27052300000000       -3.41051100000000        0.48390500000000
C           63.13008099999999       -2.41939100000000        0.35181200000000
C           62.36625900000000       -1.21447100000000        0.03525500000000
N           61.09290900000000       -1.44590100000000       -0.03456100000000
H           64.07793300000000        0.12492700000000       -0.21919200000000
H           64.04113500000000        2.72702700000000       -0.57445300000000
H           62.22593499999999        4.52612000000000       -0.63314500000000
H           59.87548399999999        4.95632400000000       -2.55252500000000
H           59.83017199999999        7.41745900000000       -2.71056600000000
H           59.57393400000000        9.59025100000000       -1.56082700000000
H           59.08254500000000        7.68395800000000        1.51943600000000
H           59.13374600000000        5.22136800000000        1.68691100000000
H           56.77482800000000        4.47623300000000       -0.00969400000000
H           54.95952700000000        2.67697300000000        0.16570700000000
H           55.26622800000000       -2.64266400000000       -0.58355400000000
H           57.22660500000000       -4.51502000000000       -0.43634300000000
H           58.69897699999999       -4.79130500000000        2.38072000000000
H           58.67159600000000       -7.21882300000000        2.82025800000000
H           60.12820399999999       -9.76214300000000        0.63986200000000
H           60.77444199999999       -7.91282600000000       -0.86975900000000
H           60.80997300000000       -5.48865100000000       -1.31458400000000
H           62.52301800000000       -4.43328000000000        0.73023800000000
H           64.20305700000000       -2.49685100000000        0.47004400000000
C           36.84577900000000        0.01158900000000       -0.01646400000000
C           35.59350800000000       -0.00759200000000       -0.02081300000000
C           38.15944700000000        0.01082300000000       -0.01453200000000
C           39.66258100000000       -0.00759200000000       -0.02081300000000
C           50.83788300000000        0.01158900000000       -0.01646400000000
C           49.58561200000000       -0.00759200000000       -0.02081300000000
C           52.15155100000000        0.01082300000000       -0.01453200000000
C           53.65468500000000       -0.00759200000000       -0.02081300000000
Fe          44.55696600000000        0.02243400000000       -0.03233800000000
C           41.13537200000000        0.00339100000000        0.04156600000000
C           41.79231300000000        0.98376900000000        0.68918800000000
C           41.15289500000000        2.03799200000000        1.47967200000000
C           42.09263399999999        2.84438700000000        1.93286200000000
C           43.38947000000000        2.35473400000000        1.45821000000000
N           43.20940000000000        1.17352800000000        0.67331100000000
C           44.57409400000000        2.95023300000000        1.70586000000000
C           44.60486600000000        4.20856700000000        2.48047500000000
C           44.90716700000000        4.18440600000000        3.85359200000000
C           44.94967800000000        5.37758700000000        4.58269800000000
C           44.69826699999999        6.60057700000000        3.94419700000000
O           44.74729400000000        7.78220200000000        4.68118400000000
C           44.39957100000000        6.62602600000000        2.57089000000000
C           44.35282900000000        5.43415500000000        1.84136700000000
C           45.87282500000000        2.41003700000000        1.23441300000000
C           47.14284499999999        3.14059600000000        1.32875300000000
C           48.09635700000000        2.35155700000000        0.87634500000000
N           46.04050900000000        1.22033600000000        0.74520200000000
C           47.44095599999999        1.10800600000000        0.49087400000000
C           48.05706200000000        0.00339100000000        0.04156600000000
C           47.30767300000000       -1.21149000000000       -0.34639700000000
C           47.84680699999999       -2.41791100000000       -0.47159900000000
C           46.81327700000000       -3.29808900000000       -0.98219000000000
C           45.71405500000000       -2.56775900000000       -1.13745000000000
N           45.93585100000000       -1.21535400000000       -0.74087900000000
C           44.45582200000000       -3.06337900000000       -1.74771300000000
C           44.51866500000000       -4.26018400000000       -2.62200400000000
C           43.84154199999999       -5.44086600000000       -2.26789500000000
C           43.90767400000000       -6.56555600000000       -3.09711600000000
C           44.65123700000000       -6.52151100000000       -4.28525200000000
O           44.72015700000000       -7.63334800000000       -5.12157700000000
C           45.33229599999999       -5.35032900000000       -4.63581900000000
C           45.27127400000000       -4.22522600000000       -3.80659600000000
C           43.28057999999999       -2.43266200000000       -1.55400400000000
C           42.00373200000000       -2.78735700000000       -2.16873700000000
C           41.11546600000000       -1.94590800000000       -1.68042900000000
C           41.81319599999999       -1.04553800000000       -0.75448700000000
N           43.07925000000000       -1.32217300000000       -0.67838900000000
H           40.09670000000000        2.16357500000000        1.67496400000000
H           41.91057700000000        3.71477700000000        2.55104600000000
H           45.10635900000000        3.24385200000000        4.35692300000000
H           45.17999300000000        5.35259000000000        5.64311800000000
H           44.55974899999999        8.68364200000000        4.24500000000000
H           44.20617000000000        7.56756400000000        2.06843800000000
H           44.12552200000000        5.46440800000000        0.78065300000000
H           47.29169099999999        4.14612100000000        1.70205300000000
H           49.14715200000000        2.60393800000000        0.81921600000000
H           48.87363900000000       -2.69269900000000       -0.26763400000000
H           46.93126500000000       -4.34532600000000       -1.22949800000000
H           43.26535799999999       -5.48771600000000       -1.35105500000000
H           43.38015300000000       -7.46915500000000       -2.81609600000000
H           44.25298700000000       -8.50175800000000       -4.88582600000000
H           45.90957399999999       -5.31180400000000       -5.55112300000000
H           45.80184999999999       -3.32459000000000       -4.09172500000000
H           41.79990800000000       -3.56896700000000       -2.89011800000000
H           40.06488000000000       -1.93502100000000       -1.94061000000000
181
 energy: -324.801680890723 gnorm: 0.376388964573 xtb: 6.5.1 (b24c23e)
Fe          29.51589538282462        0.01648612613671       -0.03285692984343
C           26.16770194328667       -0.10367315283167       -0.17186966444785
C           26.84090878208043       -1.27645380844011       -0.13827273663765
C           26.18691310088883       -2.57481547922968       -0.12914988026189
C           27.13863046801930       -3.50407186955059       -0.02457861780269
C           28.43170651675620       -2.81876660645110        0.02719694374030
N           28.23895786817158       -1.42080354424998       -0.04527447168638
C           29.63485178708619       -3.44401669953194        0.17727499306515
C           29.65891682060457       -4.92746943003155        0.28847353484228
C           29.45975470572675       -5.72990277458027       -0.84119767805142
C           29.48519111055580       -7.11878415057681       -0.73525266493218
C           29.70694827740025       -7.72865884045637        0.50261731760500
O           29.73462747769064       -9.10358216953451        0.63496690320116
C           29.90420813318703       -6.92962530075020        1.63556501002470
C           29.87808504162721       -5.53998971938752        1.52737110109944
C           30.90626067635507       -2.73392287437167        0.24007152505325
C           32.19248278137528       -3.38726286076086        0.46394167925920
C           33.14027959181083       -2.44272371456276        0.42202779226143
N           31.05980833617075       -1.43526638051625        0.05959998700738
C           32.46632717152830       -1.18386519382692        0.15917479570402
C           33.04494457292125        0.01636540673846       -0.02423218800200
C           32.29483449523212        1.22968868281595       -0.28510236994620
C           32.85694140419984        2.39216390480723       -0.72494851968989
C           31.83034061374842        3.37464710299620       -0.78372582949818
C           30.67135128045237        2.77946797681382       -0.37978401639921
N           30.89439581299616        1.41413956124243       -0.07371931970622
C           29.39862623916296        3.49469728857882       -0.25670814111169
C           29.40317699376983        4.98502910255698       -0.21244284855039
C           30.00641882232720        5.65621504238065        0.85926647375249
C           30.02053359723794        7.04939950009141        0.91099179094314
C           29.43385257973179        7.79868812985746       -0.11550203846501
O           29.45892755040700        9.17751377634233       -0.04052194923955
C           28.83676622180589        7.13443035849154       -1.19124278008022
C           28.81726322563335        5.74176076979035       -1.23698340994985
C           28.21642168320860        2.83710912544718       -0.17062273656504
C           26.90124720383098        3.44111425375918       -0.01199086537582
C           26.02254088913915        2.43124841015383       -0.00093744012869
C           26.77876670992558        1.19661629321877       -0.13891190336526
N           28.07383073266944        1.42780133892165       -0.23049199952293
H           25.08469530606449       -0.14616278081661       -0.19867413065831
H           25.12313370305429       -2.76864301488456       -0.17840353854215
H           26.95249354395052       -4.56894622668880        0.02315010751582
H           29.28788092134627       -5.27154209793907       -1.81045562196180
H           29.33212968698999       -7.72901120164363       -1.61790225724190
H           29.59053068719371       -9.68013687098376       -0.15640201107824
H           30.07855509366152       -7.38831433628762        2.60260733594463
H           30.02760100239039       -4.92925064487451        2.41366069269977
H           32.37463986104979       -4.43682950973817        0.63206436177562
H           34.20094876273495       -2.61110377843122        0.54600128102557
H           33.89806846113554        2.53941420326119       -0.95917156361204
H           31.94297420380780        4.40571836853428       -1.08144196493135
H           30.46134061627388        5.08709628935495        1.66450927939413
H           30.48840616509391        7.55052681914655        1.75177510990193
H           29.04141350289846        9.71969727738692       -0.75559898721051
H           28.38786797098818        7.70602380933825       -1.99550327543801
H           28.35463567747060        5.24435285122028       -2.08436228392949
H           26.65352192731975        4.49009113017721        0.08494618981963
H           24.95404119054708        2.52842286236161        0.10602892732008
Fe          59.64622387140728       -0.02059825382630       -0.03020918623593
C           62.99441671422609        0.07839909330354       -0.18499319344630
C           62.32123180171752        1.24387728844548       -0.32000871667510
C           62.97521471373064        2.53011813044792       -0.49726382809255
C           62.02346041572650        3.46473149089557       -0.52709110282727
C           60.73037485503744        2.79382383500640       -0.37755499811266
N           60.92323788837510        1.40012816524564       -0.24870215187271
C           59.52696594389193        3.43401989221004       -0.31872804119978
C           59.50311202819700        4.91823709087557       -0.42150322157353
C           59.70236292482792        5.55035026336147       -1.65460851329264
C           59.67693889520496        6.94007142076752       -1.74903436721830
C           59.45516546439254        7.72126568030570       -0.61148601306989
O           59.42752808876186        9.10091953185302       -0.67775882019442
C           59.25792161010676        7.09303115113973        0.62438256179429
C           59.28403192067823        5.70223722521493        0.71668841776917
C           58.25559242364000        2.74008857257879       -0.15469941652156
C           56.96952969696325        3.41917924557062       -0.02684668447940
C           56.02140897118603        2.47878970380050        0.06716695525058
N           58.10098753883700        1.42857281790472       -0.14673335705552
C           56.69382712365125        1.19478852237831       -0.01237578153512
C           56.11175237466191       -0.01908111117728       -0.02166400355112
C           56.86540072806284       -1.25723718081248       -0.10554899686186
C           56.30467699921905       -2.47125745168064       -0.37428871381787
C           57.33158416806065       -3.45158952111344       -0.29148966710583
C           58.49043486384868       -2.80434341263907        0.02292258623534
N           58.26648932578549       -1.40902784423894        0.12975200072070
C           59.76332205339244       -3.49474857122015        0.24730098066950
C           59.75888664867556       -4.96341380472334        0.50492863370250
C           59.15568882635966       -5.47394845801056        1.66186730068939
C           59.14159427550057       -6.84529744275912        1.91294553292144
C           59.72826083495539       -7.73412580930135        1.00457055724895
O           59.70322780222354       -9.08788993751404        1.27660517694964
C           60.32535773332574       -7.23105836712139       -0.15533839535133
C           60.34485799797712       -5.85934775859834       -0.40041608716054
C           60.94562929354983       -2.83171470414928        0.23816026277920
C           62.26083744843766       -3.40676331328653        0.48180388034544
C           63.13956135493689       -2.40578099113143        0.34784776230694
C           62.38333927862354       -1.20369943744836        0.03416866930494
N           61.08825592766145       -1.44558757841311       -0.02321778746348
H           64.07742511082117        0.11659390020905       -0.21762269204504
H           64.03898992476304        2.71486938814278       -0.57382464238279
H           62.20960108248539        4.52543971337624       -0.63264512794967
H           59.87423488649014        4.95769367331478       -2.54808868375326
H           59.82999085953022        7.41735166182787       -2.71010432642033
H           59.57156517119140        9.55799338159510       -1.54367039072452
H           59.08356818811389        7.68572482625481        1.51560952745097
H           59.13451755773414        5.22499897407941        1.68144183794808
H           56.78754001094011        4.48203136115278       -0.01108576983911
H           54.96084715350057        2.66301549653210        0.16570297153368
H           55.26371171897116       -2.65053756847449       -0.58496624878593
H           57.21917536859763       -4.51475570634987       -0.43818516422378
H           58.70077528495889       -4.79520020507045        2.37713217230052
H           58.67371618107216       -7.22061339555452        2.81692243901362
H           60.12068961838230       -9.72709570030645        0.64671448751830
H           60.77425223375182       -7.91213374424984       -0.86927242228963
H           60.80748371298021       -5.48868777214585       -1.31040294945281
H           62.50857866918466       -4.43098368523637        0.72824037476670
H           64.20806552651736       -2.48660204567982        0.46766250620639
C           36.87109686863827        0.01118665153344       -0.01798893721962
C           35.60860334431285       -0.00545455084784       -0.02107420112395
C           38.23941711559077        0.00893029706629       -0.01056662910215
C           39.59049343823879       -0.00787913612411       -0.01739389345233
C           50.85687071698840        0.00792570406823       -0.01633033783183
C           49.59118653443264       -0.01497906929034       -0.02013558453816
C           52.22306852293439        0.00926682193847       -0.01525338886172
C           53.55975076927007       -0.00665999660130       -0.02110607668258
Fe          44.55268580413787        0.01583013139482       -0.02500314429979
C           41.07302799346677       -0.00443872197529        0.02087912687009
C           41.78275773906488        0.98209147135091        0.68622182122889
C           41.15210120082675        2.02875635360552        1.47344468237742
C           42.10606256406187        2.84369046911456        1.93133708763997
C           43.38918811366876        2.34485681345095        1.45159753089613
N           43.18949782372123        1.16860356738492        0.68254078585476
C           44.58848935812792        2.94580664418532        1.70054470607612
C           44.61072955445255        4.21180588190941        2.48094940165812
C           44.90689432711677        4.19572344634453        3.85026210100893
C           44.94774554989737        5.38508377788293        4.57782807513000
C           44.69641834308766        6.60880971814752        3.94086177066674
O           44.74748510353414        7.77549066692306        4.68002656193797
C           44.39984709216144        6.62448976769419        2.57310223383038
C           44.35432967916587        5.43490700508643        1.84940185059833
C           45.86636927684258        2.42234148945813        1.24195722989970
C           47.12617098067670        3.14957412589461        1.33779361621234
C           48.09247469075136        2.34500009847137        0.87488431213443
N           46.05134097335378        1.21994665287519        0.72793375380424
C           47.44843293489063        1.10774483509562        0.48913325879904
C           48.08893613116998       -0.01034436348231        0.03520320316786
C           47.30792186911108       -1.19577742187062       -0.35382288857310
C           47.85024750012625       -2.43653965457966       -0.48014216155301
C           46.83195308082401       -3.29942326490702       -0.98345485425285
C           45.70605061246109       -2.54778803502261       -1.14180984824442
N           45.93603205463212       -1.21504679848303       -0.71870441719109
C           44.46883005550512       -3.05202044675070       -1.74282794470040
C           44.52650672575716       -4.25998178687720       -2.61625695928874
C           43.84411808013103       -5.43823402474687       -2.27433383411208
C           43.90822422063921       -6.56211998411455       -3.09705048583434
C           44.64755930257626       -6.52896363101506       -4.28335647417126
O           44.72221839982160       -7.62599761677037       -5.11941717534240
C           45.32801151693764       -5.35560292206108       -4.63279180540556
C           45.26993383445102       -4.23504080277726       -3.80398391932957
C           43.28015188258350       -2.42645724974263       -1.55065219362091
C           42.01215245614162       -2.78552103804125       -2.16405791353548
C           41.10204705303393       -1.93642877284701       -1.67191757857856
C           41.78279442379277       -1.03952275618412       -0.75044498305146
N           43.07320157861332       -1.31223681704619       -0.69030880576132
H           40.09594331908891        2.15200419902024        1.66706664215520
H           41.92633190062668        3.71421151052253        2.54894930902638
H           45.10502629407006        3.25130446727217        4.35293527233567
H           45.17855160925566        5.35670266380245        5.63875399927735
H           44.56276231107067        8.64591077043744        4.24112823449074
H           44.20650983795125        7.56636627653060        2.07028243923230
H           44.12688111588513        5.46288320844089        0.78675861346042
H           47.27833835418524        4.15119935754913        1.70646501708812
H           49.14388526720825        2.59219134593518        0.81503470465397
H           48.87375961447977       -2.70167623163415       -0.26841825884293
H           46.93688748458951       -4.34595476349472       -1.22646067820166
H           43.26862420560062       -5.48588857407415       -1.35454956559746
H           43.38102085249123       -7.46745833554377       -2.81592587818797
H           44.26019853590934       -8.46694080839436       -4.87601299726919
H           45.90682336583610       -5.31470054233957       -5.54928588597004
H           45.79931939208544       -3.33035623122780       -4.09029106184369
H           41.81413178844597       -3.56789532711716       -2.88551606605771
H           40.05728058817754       -1.92622896995378       -1.93371414581953
181
 energy: -324.868615465213 gnorm: 0.393241564701 xtb: 6.5.1 (b24c23e)
Fe          29.54222602043542        0.00712452086360       -0.03951692066793
C           26.17222633432325       -0.08280079037896       -0.17006132079241
C           26.85237534531112       -1.27657826732903       -0.13750713151034
C           26.19271743731001       -2.56393998271801       -0.12973359434059
C           27.15537673944954       -3.50057376069903       -0.02454546505377
C           28.43293124587472       -2.80591697213946        0.02634517895387
N           28.22374293489944       -1.43218765712305       -0.04353646508357
C           29.65640543918282       -3.43388004717604        0.17953499615334
C           29.66462820223994       -4.92700020376679        0.28830436855442
C           29.46051050590192       -5.73182684843898       -0.83549180647229
C           29.48461266875283       -7.11780577089201       -0.73403801793350
C           29.70577026497752       -7.73513744097385        0.49691316798823
O           29.73577173718961       -9.09570689999927        0.64093860125786
C           29.90301047850872       -6.93320391212757        1.62976250382252
C           29.88008236021820       -5.54779794376684        1.52135499066746
C           30.89822241589697       -2.74749391063027        0.24126359837872
C           32.17720729730348       -3.39166247191583        0.46107087604544
C           33.13345338489119       -2.43467763077963        0.42138513708103
N           31.06718975401078       -1.42259043740694        0.05960715868463