      -----------------------------------------------------------      
     |                   =====================                   |     
     |                           x T B                           |     
     |                   =====================                   |     
     |                         S. Grimme                         |     
     |          Mulliken Center for Theoretical Chemistry        |     
     |                    University of Bonn                     |     
      -----------------------------------------------------------      

   * xtb version 6.5.1 (b24c23e) compiled by 'conda@728c89f4b128' on 2022-07-12

   xtb is free software: you can redistribute it and/or modify it under
   the terms of the GNU Lesser General Public License as published by
   the Free Software Foundation, either version 3 of the License, or
   (at your option) any later version.
   
   xtb is distributed in the hope that it will be useful,
   but WITHOUT ANY WARRANTY; without even the implied warranty of
   MERCHANTABILITY or FITNESS FOR A PARTICULAR PURPOSE.  See the
   GNU Lesser General Public License for more details.
   
   Cite this work as:
   * C. Bannwarth, E. Caldeweyher, S. Ehlert, A. Hansen, P. Pracht,
     J. Seibert, S. Spicher, S. Grimme, WIREs Comput. Mol. Sci., 2020, 11,
     e01493. DOI: 10.1002/wcms.1493
   
   for GFN2-xTB:
   * C. Bannwarth, S. Ehlert and S. Grimme., J. Chem. Theory Comput., 2019,
     15, 1652-1671. DOI: 10.1021/acs.jctc.8b01176
   for GFN1-xTB:
   * S. Grimme, C. Bannwarth, P. Shushkov, J. Chem. Theory Comput., 2017,
     13, 1989-2009. DOI: 10.1021/acs.jctc.7b00118
   for GFN0-xTB:
   * P. Pracht, E. Caldeweyher, S. Ehlert, S. Grimme, ChemRxiv, 2019, preprint.
     DOI: 10.26434/chemrxiv.8326202.v1
   for GFN-FF:
   * S. Spicher and S. Grimme, Angew. Chem. Int. Ed., 2020, 59, 15665-15673.
     DOI: 10.1002/anie.202004239
   
   for ALPB and GBSA implicit solvation:
   * S. Ehlert, M. Stahn, S. Spicher, S. Grimme, J. Chem. Theory Comput.,
     2021, 17, 4250-4261. DOI: 10.1021/acs.jctc.1c00471
   
   for DFT-D4:
   * E. Caldeweyher, C. Bannwarth and S. Grimme, J. Chem. Phys., 2017,
     147, 034112. DOI: 10.1063/1.4993215
   * E. Caldeweyher, S. Ehlert, A. Hansen, H. Neugebauer, S. Spicher,
     C. Bannwarth and S. Grimme, J. Chem. Phys., 2019, 150, 154122.
     DOI: 10.1063/1.5090222
   * E. Caldeweyher, J.-M. Mewes, S. Ehlert and S. Grimme, Phys. Chem. Chem. Phys.
     2020, 22, 8499-8512. DOI: 10.1039/D0CP00502A
   
   for sTDA-xTB:
   * S. Grimme and C. Bannwarth, J. Chem. Phys., 2016, 145, 054103.
     DOI: 10.1063/1.4959605
   
   in the mass-spec context:
   * V. Asgeirsson, C. Bauer and S. Grimme, Chem. Sci., 2017, 8, 4879.
     DOI: 10.1039/c7sc00601b
   * J. Koopman and S. Grimme, ACS Omega 2019, 4, 12, 15120-15133.
     DOI: 10.1021/acsomega.9b02011
   
   for metadynamics refer to:
   * S. Grimme, J. Chem. Theory Comput., 2019, 155, 2847-2862
     DOI: 10.1021/acs.jctc.9b00143
   
   for SPH calculations refer to:
   * S. Spicher and S. Grimme, J. Chem. Theory Comput., 2021, 17, 1701-1714
     DOI: 10.1021/acs.jctc.0c01306
   
   with help from (in alphabetical order)
   P. Atkinson, C. Bannwarth, F. Bohle, G. Brandenburg, E. Caldeweyher
   M. Checinski, S. Dohm, S. Ehlert, S. Ehrlich, I. Gerasimov, C. Hölzer
   A. Katbashev, J. Koopman, C. Lavigne, S. Lehtola, F. März, M. Müller,
   F. Musil, H. Neugebauer, J. Pisarek, C. Plett, P. Pracht, F. Pultar,
   J. Seibert, P. Shushkov, S. Spicher, M. Stahn, M. Steiner, T. Strunk,
   J. Stückrath, T. Rose, and J. Unsleber
   
 * started run on 2022/07/30 at 23:23:36.662     

           -------------------------------------------------
          |                Calculation Setup                |
           -------------------------------------------------

          program call               : xtb NMA_C4_6.xyz --gfn 1 --opt -T 48
          hostname                   : cx3-15-19.cx3.hpc.ic.ac.uk
          coordinate file            : NMA_C4_6.xyz
          omp threads                :                     1

   ID    Z sym.   atoms
    1    6 C      1-5, 7-11, 13-18, 20-25, 27-31, 33-39, 68-72, 74-78, 80-85,
                  87-92, 94-98, 100-106, 135-159, 161-165, 167-172, 174-179,
                  181-185, 187-193, 221-225, 227-231, 233-238, 240-245,
                  247-251, 253-259, 287-291, 293-297, 299-304, 306-311,
                  313-317, 319-325, 353-357, 359-363, 365-370, 372-377,
                  379-383, 385-391
    2    7 N      6, 12, 19, 26, 32, 40, 73, 79, 86, 93, 99, 107, 160, 166,
                  173, 180, 186, 194, 226, 232, 239, 246, 252, 260, 292, 298,
                  305, 312, 318, 326, 358, 364, 371, 378, 384, 392
    3    1 H      41-67, 108-134, 195-220, 261-286, 327-352, 393-418

molecular fragmentation (1/2 indicates fragments):
111111111111111111111111111111111111111111111111111111111111111111122222
222222222222222222222222222222222222222222222222222222222222222222222222
222222222222222222222222222222222222222222222222222222222222222222222222
222222222222222222222222222222222222222222222222222222222222222222222222
222222222222222222222222222222222222222222222222222222222222222222222222
2222222222222222222222222222222222222222222222222222222222
# atoms in fragment 1/2:    67   351
 fragment masses (1/2) :      519.62     2834.28
CMA distance (Bohr)    :  81.661
constraining FC (au)   :  0.0500
########################################################################
[WARNING] Please study the warnings concerning your input carefully
-1- prog_main_parseArguments: Unknown option '-T' provided
########################################################################

           -------------------------------------------------
          |                 G F N 1 - x T B                 |
           -------------------------------------------------

        Reference                      10.1021/acs.jctc.7b00118
      * Hamiltonian:
        H0-scaling (s, p, d)           1.850000    2.250000    2.000000
        zeta-weighting                 0.000000
      * Dispersion:
        s8                             2.400000
        a1                             0.630000
        a2                             5.000000
        s9                             0.000000
      * Repulsion:
        kExp                           1.500000
        rExp                           1.000000
      * Coulomb:
        alpha                          2.000000
        third order                    atomic
        anisotropic                    false
      * Halogen bond correction:
        rad-scale                      1.300000
        damping                        0.440000


          ...................................................
          :                      SETUP                      :
          :.................................................:
          :  # basis functions                1356          :
          :  # atomic orbitals                1356          :
          :  # shells                          836          :
          :  # electrons                      1234          :
          :  # halogen bonds                     0          :
          :  max. iterations                   250          :
          :  Hamiltonian                  GFN1-xTB          :
          :  restarted?                      false          :
          :  GBSA solvation                  false          :
          :  PC potential                    false          :
          :  electronic temp.          300.0000000     K    :
          :  accuracy                    1.0000000          :
          :  -> integral cutoff          0.2500000E+02      :
          :  -> integral neglect         0.1000000E-07      :
          :  -> SCF convergence          0.1000000E-05 Eh   :
          :  -> wf. convergence          0.2000000E-04 e    :
          :  Broyden damping             0.4000000          :
          ...................................................

 iter      E             dE          RMSdq      gap      omega  full diag
   1   -681.0956985 -0.681096E+03  0.100E+01    0.09       0.0  T
   2   -681.0083563  0.873422E-01  0.602E+00    0.12       1.0  T
   3   -486.8229778  0.194185E+03  0.575E+00    0.02       1.0  T
   4   -175.4942976  0.311329E+03  0.699E+00    0.07       1.0  T
   5   -489.1966090 -0.313702E+03  0.499E+00    0.06       1.0  T
   6   -667.0130762 -0.177816E+03  0.217E+00    0.03       1.0  T
   7   -671.6830763 -0.467000E+01  0.196E+00    0.09       1.0  T
   8   -680.9781629 -0.929509E+01  0.847E-01    0.14       1.0  T
   9   -681.6651786 -0.687016E+00  0.491E-01    0.06       1.0  T
  10   -681.6772543 -0.120758E-01  0.363E-01    0.09       1.0  T
  11   -681.7710839 -0.938296E-01  0.259E-01    0.13       1.0  T
  12   -681.7985945 -0.275105E-01  0.186E-01    0.08       1.0  T
  13   -681.8185166 -0.199221E-01  0.151E-01    0.10       1.0  T
  14   -681.8457224 -0.272058E-01  0.952E-02    0.10       1.0  T
  15   -681.8489230 -0.320065E-02  0.612E-02    0.10       1.0  T
  16   -681.8497319 -0.808828E-03  0.670E-02    0.09       1.0  T
  17   -681.8526521 -0.292028E-02  0.368E-02    0.10       1.0  T
  18   -681.8520077  0.644399E-03  0.329E-02    0.10       1.0  T
  19   -681.8521190 -0.111246E-03  0.259E-02    0.09       1.0  T
  20   -681.8550739 -0.295493E-02  0.217E-02    0.11       1.0  T
  21   -681.8554183 -0.344401E-03  0.155E-02    0.11       1.0  T
  22   -681.8558845 -0.466134E-03  0.155E-02    0.11       1.0  T
  23   -681.8560805 -0.196033E-03  0.123E-02    0.11       1.0  T
  24   -681.8560902 -0.969901E-05  0.844E-03    0.11       1.0  T
  25   -681.8561489 -0.586771E-04  0.574E-03    0.11       1.0  T
  26   -681.8561774 -0.284957E-04  0.435E-03    0.11       1.1  T
  27   -681.8562189 -0.415735E-04  0.312E-03    0.11       1.6  T
  28   -681.8562325 -0.135397E-04  0.157E-03    0.11       3.1  T
  29   -681.8562338 -0.134804E-05  0.968E-04    0.11       5.1  T
  30   -681.8562345 -0.634414E-06  0.637E-04    0.11       7.7  T
  31   -681.8562353 -0.851579E-06  0.360E-04    0.11      13.6  T
  32   -681.8562355 -0.146794E-06  0.181E-04    0.11      27.0  T
  33   -681.8562355 -0.253328E-07  0.150E-04    0.11      32.5  T

   *** convergence criteria satisfied after 33 iterations ***

         #    Occupation            Energy/Eh            Energy/eV
      -------------------------------------------------------------
         1        2.0000           -0.7948806             -21.6298
       ...           ...                  ...                  ...
       611        2.0000           -0.3913061             -10.6480
       612        2.0000           -0.3796898             -10.3319
       613        2.0000           -0.3742042             -10.1826
       614        2.0000           -0.3719055             -10.1201
       615        2.0000           -0.3715126             -10.1094
       616        2.0000           -0.3667068              -9.9786
       617        1.7420           -0.3584180              -9.7530 (HOMO)
       618        0.1848           -0.3544330              -9.6446 (LUMO)
       619        0.0510           -0.3531429              -9.6095
       620        0.0212           -0.3522940              -9.5864
       621        0.0009           -0.3493120              -9.5053
       622        0.0000           -0.3461916              -9.4204
       ...           ...                  ...                  ...
      1356                          1.2880300              35.0491
      -------------------------------------------------------------
                  HL-Gap            0.0039849 Eh            0.1084 eV
             Fermi-level           -0.3566035 Eh           -9.7037 eV

 SCC (total)                   0 d,  0 h,  0 min, 29.763 sec
 SCC setup                      ...        0 min,  0.047 sec (  0.157%)
 Dispersion                     ...        0 min,  0.026 sec (  0.087%)
 classical contributions        ...        0 min,  0.006 sec (  0.021%)
 integral evaluation            ...        0 min,  0.598 sec (  2.009%)
 iterations                     ...        0 min, 27.793 sec ( 93.383%)
 molecular gradient             ...        0 min,  1.138 sec (  3.823%)
 printout                       ...        0 min,  0.155 sec (  0.520%)

         :::::::::::::::::::::::::::::::::::::::::::::::::::::
         ::                     SUMMARY                     ::
         :::::::::::::::::::::::::::::::::::::::::::::::::::::
         :: total energy            -671.649144888229 Eh    ::
         :: gradient norm              0.835245903965 Eh/a0 ::
         :: HOMO-LUMO gap              0.108435320120 eV    ::
         ::.................................................::
         :: SCC energy              -681.856235476608 Eh    ::
         :: -> electrostatic           0.510868615765 Eh    ::
         :: repulsion energy          10.541086305410 Eh    ::
         :: dispersion energy         -0.333995717030 Eh    ::
         :: halogen bond corr.         0.000000000000 Eh    ::
         :: add. restraining           0.000000000000 Eh    ::
         :: total charge              -0.000000000000 e     ::
         :::::::::::::::::::::::::::::::::::::::::::::::::::::

      ----------------------------------------------------------- 
     |                   =====================                   |
     |                        A N C O P T                        |
     |                   =====================                   |
     |               Approximate Normal Coordinate               |
     |                Rational Function Optimizer                |
      ----------------------------------------------------------- 

          ...................................................
          :                      SETUP                      :
          :.................................................:
          :   optimization level            normal          :
          :   max. optcycles                  1254          :
          :   ANC micro-cycles                  20          :
          :   degrees of freedom              1248          :
          :.................................................:
          :   RF solver                   davidson          :
          :   write xtbopt.log                true          :
          :   linear?                        false          :
          :   energy convergence         0.5000000E-05 Eh   :
          :   grad. convergence          0.1000000E-02 Eh/α :
          :   maximium RF displ.         1.0000000          :
          :   Hlow (freq-cutoff)         0.1000000E-01      :
          :   Hmax (freq-cutoff)         5.0000000          :
          :   S6 in model hess.         20.0000000          :
          ...................................................

generating ANC from model Hessian ...
Using Lindh-Hessian (1995)
 Shifting diagonal of input Hessian by    1.0006845559636201E-002
 Lowest  eigenvalues of input Hessian
    0.010000    0.010001    0.010002    0.010003    0.010004    0.010005
    0.010005    0.010006    0.010007    0.000000    0.000000    0.000000
    0.000000    0.000000    0.000000    0.010007    0.010008    0.010010
 Highest eigenvalues
    2.129650    2.441449    2.594442    2.598402    2.598402    2.598403


........................................................................
.............................. CYCLE    1 ..............................
........................................................................
   1   -681.8562355 -0.681856E+03  0.112E-04    0.11       0.0  T
   2   -681.8562353  0.179289E-06  0.271E-04    0.11      18.1  T
   3   -681.8562355 -0.136678E-06  0.178E-04    0.11      27.5  T
   4   -681.8562352  0.232086E-06  0.344E-04    0.11      14.2  T
   5   -681.8562355 -0.280919E-06  0.831E-05    0.11      58.8  T
     SCC iter.                  ...        0 min,  4.453 sec
     gradient                   ...        0 min,  1.133 sec
 * total energy  :  -671.6491449 Eh     change       -0.3272226E-07 Eh
   gradient norm :     0.8352446 Eh/α   predicted     0.0000000E+00 (-100.00%)
   displ. norm   :     0.5646385 α      lambda       -0.4219087E+00
   maximum displ.:     0.1036658 α      in ANC's #957, #966, #1077, ...

........................................................................
.............................. CYCLE    2 ..............................
........................................................................
   1   -681.9960204 -0.681996E+03  0.936E-02    0.27       0.0  T
   2   -681.9956669  0.353503E-03  0.868E-02    0.18       1.0  T
   3   -681.9970925 -0.142562E-02  0.674E-02    0.21       1.0  T
   4   -681.9998662 -0.277364E-02  0.382E-02    0.22       1.0  T
   5   -681.9997774  0.887609E-04  0.388E-02    0.20       1.0  T
   6   -682.0007821 -0.100471E-02  0.157E-02    0.19       1.0  T
   7   -682.0010895 -0.307402E-03  0.670E-03    0.21       1.0  T
   8   -682.0011425 -0.529284E-04  0.244E-03    0.21       2.0  T
   9   -682.0011487 -0.626578E-05  0.127E-03    0.21       3.9  T
  10   -682.0011508 -0.208802E-05  0.566E-04    0.21       8.6  T
  11   -682.0011509 -0.126346E-06  0.433E-04    0.21      11.3  T
  12   -682.0011511 -0.172359E-06  0.201E-04    0.21      24.3  T
  13   -682.0011512 -0.360671E-07  0.113E-04    0.21      43.4  T
  14   -682.0011512 -0.130417E-07  0.469E-05    0.21     104.4  T
     SCC iter.                  ...        0 min, 12.275 sec
     gradient                   ...        0 min,  1.145 sec
 * total energy  :  -672.0111487 Eh     change       -0.3620038E+00 Eh
   gradient norm :     0.5941932 Eh/α   predicted    -0.2782257E+00 ( -23.14%)
   displ. norm   :     0.7074111 α      lambda       -0.3939593E+00
   maximum displ.:     0.1484045 α      in ANC's #1132, #1077, #1063, ...

........................................................................
.............................. CYCLE    3 ..............................
........................................................................
   1   -682.3047929 -0.682305E+03  0.108E-01    0.31       0.0  T
   2   -682.3070097 -0.221678E-02  0.829E-02    0.38       1.0  T
   3   -682.3089606 -0.195097E-02  0.579E-02    0.30       1.0  T
   4   -682.3105868 -0.162618E-02  0.347E-02    0.36       1.0  T
   5   -682.3109565 -0.369664E-03  0.210E-02    0.33       1.0  T
   6   -682.3113162 -0.359758E-03  0.772E-03    0.35       1.0  T
   7   -682.3113732 -0.569932E-04  0.239E-03    0.35       2.0  T
   8   -682.3113780 -0.472642E-05  0.110E-03    0.35       4.4  T
   9   -682.3113789 -0.951745E-06  0.478E-04    0.34      10.2  T
  10   -682.3113791 -0.169650E-06  0.187E-04    0.35      26.1  T
  11   -682.3113791 -0.166752E-07  0.978E-05    0.35      50.0  T
     SCC iter.                  ...        0 min,  9.928 sec
     gradient                   ...        0 min,  1.138 sec
 * total energy  :  -672.2502910 Eh     change       -0.2391423E+00 Eh
   gradient norm :     0.2614597 Eh/α   predicted    -0.2956049E+00 (  23.61%)
   displ. norm   :     0.6436471 α      lambda       -0.1063233E+00
   maximum displ.:     0.1446935 α      in ANC's #126, #332, #326, ...

........................................................................
.............................. CYCLE    4 ..............................
........................................................................
   1   -682.3827791 -0.682383E+03  0.467E-02    0.51       0.0  T
   2   -682.3816715  0.110760E-02  0.642E-02    0.47       1.0  T
   3   -682.3844563 -0.278481E-02  0.180E-02    0.49       1.0  T
   4   -682.3844272  0.291192E-04  0.158E-02    0.50       1.0  T
   5   -682.3845098 -0.825511E-04  0.851E-03    0.50       1.0  T
   6   -682.3845628 -0.530572E-04  0.245E-03    0.50       2.0  T
   7   -682.3845681 -0.523273E-05  0.603E-04    0.50       8.1  T
   8   -682.3845684 -0.362896E-06  0.208E-04    0.50      23.5  T
   9   -682.3845684 -0.201932E-07  0.134E-04    0.50      36.5  T
  10   -682.3845685 -0.110055E-07  0.770E-05    0.50      63.6  T
     SCC iter.                  ...        0 min,  8.683 sec
     gradient                   ...        0 min,  1.159 sec
 * total energy  :  -672.3257414 Eh     change       -0.7545037E-01 Eh
   gradient norm :     0.1300141 Eh/α   predicted    -0.7518557E-01 (  -0.35%)
   displ. norm   :     0.7753968 α      lambda       -0.6633009E-01
   maximum displ.:     0.2126084 α      in ANC's #126, #119, #107, ...

........................................................................
.............................. CYCLE    5 ..............................
........................................................................
   1   -682.4772772 -0.682477E+03  0.292E-02    0.65       0.0  T
   2   -682.4774629 -0.185715E-03  0.284E-02    0.64       1.0  T
   3   -682.4778983 -0.435399E-03  0.112E-02    0.65       1.0  T
   4   -682.4778771  0.212209E-04  0.937E-03    0.65       1.0  T
   5   -682.4779161 -0.389798E-04  0.474E-03    0.65       1.0  T
   6   -682.4779293 -0.131944E-04  0.175E-03    0.65       2.8  T
   7   -682.4779327 -0.340975E-05  0.516E-04    0.65       9.5  T
   8   -682.4779329 -0.276295E-06  0.153E-04    0.65      31.9  T
   9   -682.4779330 -0.140801E-07  0.724E-05    0.65      67.5  T
     SCC iter.                  ...        0 min,  7.852 sec
     gradient                   ...        0 min,  1.133 sec
 * total energy  :  -672.3768914 Eh     change       -0.5115001E-01 Eh
   gradient norm :     0.0860049 Eh/α   predicted    -0.5310523E-01 (   3.82%)
   displ. norm   :     0.8580708 α      lambda       -0.5002603E-01
   maximum displ.:     0.2636254 α      in ANC's #126, #119, #107, ...

........................................................................
.............................. CYCLE    6 ..............................
........................................................................
   1   -682.5635900 -0.682564E+03  0.228E-02    0.81       0.0  T
   2   -682.5636469 -0.569554E-04  0.234E-02    0.81       1.0  T
   3   -682.5639233 -0.276413E-03  0.787E-03    0.81       1.0  T
   4   -682.5639076  0.157603E-04  0.611E-03    0.81       1.0  T
   5   -682.5639291 -0.215034E-04  0.339E-03    0.81       1.4  T
   6   -682.5639354 -0.627706E-05  0.101E-03    0.81       4.8  T
   7   -682.5639366 -0.126251E-05  0.447E-04    0.81      11.0  T
   8   -682.5639368 -0.206274E-06  0.105E-04    0.81      46.7  T
   9   -682.5639368 -0.186128E-08  0.713E-05    0.81      68.6  T
     SCC iter.                  ...        0 min,  7.892 sec
     gradient                   ...        0 min,  1.236 sec
 * total energy  :  -672.4223827 Eh     change       -0.4549126E-01 Eh
   gradient norm :     0.0663140 Eh/α   predicted    -0.4342974E-01 (  -4.53%)
   displ. norm   :     0.9382126 α      lambda       -0.4917813E-01
   maximum displ.:     0.2693918 α      in ANC's #126, #119, #58, ...

........................................................................
.............................. CYCLE    7 ..............................
........................................................................
   1   -682.6179322 -0.682618E+03  0.319E-02    0.80       0.0  T
   2   -682.6181198 -0.187599E-03  0.321E-02    0.80       1.0  T
   3   -682.6185880 -0.468159E-03  0.106E-02    0.80       1.0  T
   4   -682.6185447  0.432634E-04  0.791E-03    0.80       1.0  T
   5   -682.6186009 -0.561707E-04  0.420E-03    0.80       1.2  T
   6   -682.6186099 -0.907452E-05  0.103E-03    0.80       4.8  T
   7   -682.6186110 -0.109700E-05  0.487E-04    0.80      10.0  T
   8   -682.6186113 -0.267744E-06  0.152E-04    0.80      32.2  T
   9   -682.6186113 -0.110136E-07  0.851E-05    0.80      57.5  T
     SCC iter.                  ...        0 min,  7.517 sec
     gradient                   ...        0 min,  1.123 sec
 * total energy  :  -672.4692556 Eh     change       -0.4687293E-01 Eh
   gradient norm :     0.0686768 Eh/α   predicted    -0.4623342E-01 (  -1.36%)
   displ. norm   :     0.9669737 α      lambda       -0.5146118E-01
   maximum displ.:     0.2699773 α      in ANC's #119, #126, #92, ...

........................................................................
.............................. CYCLE    8 ..............................
........................................................................
   1   -682.6572404 -0.682657E+03  0.379E-02    0.77       0.0  T
   2   -682.6576616 -0.421164E-03  0.345E-02    0.77       1.0  T
   3   -682.6580376 -0.376036E-03  0.137E-02    0.77       1.0  T
   4   -682.6579039  0.133666E-03  0.115E-02    0.77       1.0  T
   5   -682.6580503 -0.146325E-03  0.471E-03    0.77       1.0  T
   6   -682.6580619 -0.116652E-04  0.115E-03    0.77       4.3  T
   7   -682.6580632 -0.126945E-05  0.603E-04    0.77       8.1  T
   8   -682.6580636 -0.380560E-06  0.173E-04    0.77      28.3  T
   9   -682.6580636 -0.147472E-07  0.100E-04    0.77      48.7  T
     SCC iter.                  ...        0 min,  7.545 sec
     gradient                   ...        0 min,  1.151 sec
 * total energy  :  -672.5181552 Eh     change       -0.4889957E-01 Eh
   gradient norm :     0.0802041 Eh/α   predicted    -0.4978978E-01 (   1.82%)
   displ. norm   :     0.9468743 α      lambda       -0.5243963E-01
   maximum displ.:     0.2743507 α      in ANC's #119, #58, #126, ...

........................................................................
.............................. CYCLE    9 ..............................
........................................................................
   1   -682.7000613 -0.682700E+03  0.419E-02    0.74       0.0  T
   2   -682.7004933 -0.431934E-03  0.388E-02    0.75       1.0  T
   3   -682.7007887 -0.295419E-03  0.183E-02    0.74       1.0  T
   4   -682.7005323  0.256360E-03  0.149E-02    0.74       1.0  T
   5   -682.7007937 -0.261331E-03  0.372E-03    0.74       1.3  T
   6   -682.7008034 -0.972774E-05  0.111E-03    0.74       4.4  T
   7   -682.7008047 -0.128511E-05  0.540E-04    0.74       9.1  T
   8   -682.7008050 -0.309623E-06  0.169E-04    0.74      28.9  T
   9   -682.7008050 -0.169146E-07  0.886E-05    0.74      55.2  T
     SCC iter.                  ...        0 min,  7.532 sec
     gradient                   ...        0 min,  1.187 sec
 * total energy  :  -672.5661592 Eh     change       -0.4800405E-01 Eh
   gradient norm :     0.0762732 Eh/α   predicted    -0.4972776E-01 (   3.59%)
   displ. norm   :     0.9146115 α      lambda       -0.4637355E-01
   maximum displ.:     0.2826355 α      in ANC's #119, #58, #92, ...

........................................................................
.............................. CYCLE   10 ..............................
........................................................................
   1   -682.7469115 -0.682747E+03  0.296E-02    0.74       0.0  T
   2   -682.7470263 -0.114755E-03  0.304E-02    0.74       1.0  T
   3   -682.7472229 -0.196632E-03  0.145E-02    0.74       1.0  T
   4   -682.7470175  0.205420E-03  0.148E-02    0.74       1.0  T
   5   -682.7472292 -0.211713E-03  0.209E-03    0.74       2.3  T
   6   -682.7472318 -0.255266E-05  0.652E-04    0.74       7.5  T
   7   -682.7472322 -0.407910E-06  0.343E-04    0.74      14.3  T
   8   -682.7472323 -0.165832E-06  0.888E-05    0.74      55.1  T
   9   -682.7472323 -0.489410E-08  0.396E-05    0.74     123.5  T
     SCC iter.                  ...        0 min,  7.460 sec
     gradient                   ...        0 min,  1.146 sec
 * total energy  :  -672.6072714 Eh     change       -0.4111219E-01 Eh
   gradient norm :     0.0641885 Eh/α   predicted    -0.4258287E-01 (   3.58%)
   displ. norm   :     0.8861185 α      lambda       -0.4222007E-01
   maximum displ.:     0.2740413 α      in ANC's #58, #119, #126, ...

........................................................................
.............................. CYCLE   11 ..............................
........................................................................
   1   -682.8197019 -0.682820E+03  0.254E-02    0.76       0.0  T
   2   -682.8197827 -0.808233E-04  0.233E-02    0.76       1.0  T
   3   -682.8199390 -0.156247E-03  0.100E-02    0.76       1.0  T
   4   -682.8198368  0.102224E-03  0.117E-02    0.76       1.0  T
   5   -682.8199534 -0.116665E-03  0.260E-03    0.76       1.9  T
   6   -682.8199558 -0.234327E-05  0.659E-04    0.76       7.4  T
   7   -682.8199563 -0.517997E-06  0.235E-04    0.76      20.8  T
   8   -682.8199564 -0.663107E-07  0.658E-05    0.76      74.3  T
   9   -682.8199564 -0.162720E-08  0.374E-05    0.76     130.6  T
     SCC iter.                  ...        0 min,  7.624 sec
     gradient                   ...        0 min,  1.214 sec
 * total energy  :  -672.6414245 Eh     change       -0.3415306E-01 Eh
   gradient norm :     0.0677384 Eh/α   predicted    -0.3768578E-01 (  10.34%)
   displ. norm   :     0.8963027 α      lambda       -0.3688759E-01
   maximum displ.:     0.2962152 α      in ANC's #58, #119, #92, ...

........................................................................
.............................. CYCLE   12 ..............................
........................................................................
   1   -682.8740415 -0.682874E+03  0.123E-02    0.74       0.0  T
   2   -682.8740524 -0.109562E-04  0.104E-02    0.74       1.0  T
   3   -682.8741087 -0.562702E-04  0.479E-03    0.74       1.0  T
   4   -682.8741076  0.113934E-05  0.434E-03    0.74       1.1  T
   5   -682.8741194 -0.118451E-04  0.142E-03    0.74       3.5  T
   6   -682.8741209 -0.152498E-05  0.585E-04    0.74       8.4  T
   7   -682.8741214 -0.420803E-06  0.136E-04    0.74      36.1  T
   8   -682.8741214 -0.531531E-08  0.790E-05    0.74      61.9  T
     SCC iter.                  ...        0 min,  6.827 sec
     gradient                   ...        0 min,  1.181 sec
 * total energy  :  -672.6731193 Eh     change       -0.3169479E-01 Eh
   gradient norm :     0.0539524 Eh/α   predicted    -0.3326078E-01 (   4.94%)
   displ. norm   :     0.9022747 α      lambda       -0.3268538E-01
   maximum displ.:     0.3147068 α      in ANC's #58, #119, #107, ...

........................................................................
.............................. CYCLE   13 ..............................
........................................................................
   1   -682.9452772 -0.682945E+03  0.144E-02    0.71       0.0  T
   2   -682.9453139 -0.367454E-04  0.113E-02    0.71       1.0  T
   3   -682.9453607 -0.467347E-04  0.509E-03    0.71       1.0  T
   4   -682.9453493  0.113959E-04  0.475E-03    0.71       1.0  T
   5   -682.9453660 -0.167228E-04  0.153E-03    0.71       3.2  T
   6   -682.9453681 -0.206248E-05  0.452E-04    0.71      10.8  T
   7   -682.9453683 -0.259779E-06  0.137E-04    0.71      35.8  T
   8   -682.9453683 -0.164256E-07  0.591E-05    0.71      82.7  T
     SCC iter.                  ...        0 min,  7.091 sec
     gradient                   ...        0 min,  1.152 sec
 * total energy  :  -672.7024612 Eh     change       -0.2934197E-01 Eh
   gradient norm :     0.0516619 Eh/α   predicted    -0.2964729E-01 (   1.04%)
   displ. norm   :     0.9298478 α      lambda       -0.3129814E-01
   maximum displ.:     0.3223802 α      in ANC's #58, #119, #126, ...

........................................................................
.............................. CYCLE   14 ..............................
........................................................................
   1   -683.0338771 -0.683034E+03  0.141E-02    0.71       0.0  T
   2   -683.0339026 -0.255086E-04  0.123E-02    0.71       1.0  T
   3   -683.0339585 -0.559051E-04  0.499E-03    0.71       1.0  T
   4   -683.0339353  0.231360E-04  0.551E-03    0.71       1.0  T
   5   -683.0339637 -0.283668E-04  0.154E-03    0.71       3.2  T
   6   -683.0339646 -0.889573E-06  0.488E-04    0.71      10.0  T
   7   -683.0339649 -0.340880E-06  0.157E-04    0.71      31.3  T
   8   -683.0339650 -0.313939E-07  0.509E-05    0.71      96.0  T
     SCC iter.                  ...        0 min,  6.862 sec
     gradient                   ...        0 min,  1.208 sec
 * total energy  :  -672.7290361 Eh     change       -0.2657482E-01 Eh
   gradient norm :     0.0494735 Eh/α   predicted    -0.2917951E-01 (   9.80%)
   displ. norm   :     0.9268994 α      lambda       -0.2843892E-01
   maximum displ.:     0.3315516 α      in ANC's #58, #119, #107, ...

........................................................................
.............................. CYCLE   15 ..............................
........................................................................
   1   -683.0903386 -0.683090E+03  0.121E-02    0.72       0.0  T
   2   -683.0903688 -0.301974E-04  0.852E-03    0.72       1.0  T
   3   -683.0903850 -0.161548E-04  0.457E-03    0.72       1.1  T
   4   -683.0903766  0.835404E-05  0.387E-03    0.72       1.3  T
   5   -683.0903928 -0.161570E-04  0.827E-04    0.72       5.9  T
   6   -683.0903933 -0.477228E-06  0.358E-04    0.72      13.7  T
   7   -683.0903934 -0.145033E-06  0.143E-04    0.72      34.3  T
   8   -683.0903934 -0.186186E-07  0.660E-05    0.72      74.1  T
     SCC iter.                  ...        0 min,  6.814 sec
     gradient                   ...        0 min,  1.177 sec
 * total energy  :  -672.7534114 Eh     change       -0.2437535E-01 Eh
   gradient norm :     0.0397426 Eh/α   predicted    -0.2643601E-01 (   8.45%)
   displ. norm   :     0.9288728 α      lambda       -0.2677874E-01
   maximum displ.:     0.3507624 α      in ANC's #58, #119, #96, ...

........................................................................
.............................. CYCLE   16 ..............................
........................................................................
   1   -683.1270636 -0.683127E+03  0.160E-02    0.70       0.0  T
   2   -683.1271207 -0.571373E-04  0.130E-02    0.70       1.0  T
   3   -683.1271636 -0.428482E-04  0.550E-03    0.70       1.0  T
   4   -683.1271444  0.191200E-04  0.513E-03    0.70       1.0  T
   5   -683.1271649 -0.204921E-04  0.150E-03    0.70       3.3  T
   6   -683.1271670 -0.208216E-05  0.386E-04    0.70      12.7  T
   7   -683.1271671 -0.119246E-06  0.149E-04    0.70      32.8  T
   8   -683.1271672 -0.182920E-07  0.720E-05    0.70      68.0  T
     SCC iter.                  ...        0 min,  6.908 sec
     gradient                   ...        0 min,  1.158 sec
 * total energy  :  -672.7730758 Eh     change       -0.1966437E-01 Eh
   gradient norm :     0.0615078 Eh/α   predicted    -0.2494180E-01 (  26.84%)
   displ. norm   :     0.8526936 α      lambda       -0.2406992E-01
   maximum displ.:     0.3299676 α      in ANC's #58, #119, #107, ...

........................................................................
.............................. CYCLE   17 ..............................
........................................................................
   1   -683.2044839 -0.683204E+03  0.129E-02    0.70       0.0  T
   2   -683.2045001 -0.162434E-04  0.113E-02    0.70       1.0  T
   3   -683.2045534 -0.532539E-04  0.459E-03    0.70       1.1  T
   4   -683.2045350  0.184014E-04  0.480E-03    0.70       1.0  T
   5   -683.2045578 -0.228683E-04  0.135E-03    0.70       3.6  T
   6   -683.2045588 -0.964830E-06  0.526E-04    0.70       9.3  T
   7   -683.2045592 -0.431995E-06  0.128E-04    0.70      38.3  T
   8   -683.2045593 -0.172760E-07  0.483E-05    0.70     101.3  T
     SCC iter.                  ...        0 min,  6.890 sec
     gradient                   ...        0 min,  1.142 sec
 * total energy  :  -672.7933791 Eh     change       -0.2030334E-01 Eh
   gradient norm :     0.0343444 Eh/α   predicted    -0.2078543E-01 (   2.37%)
   displ. norm   :     0.9116092 α      lambda       -0.1971948E-01
   maximum displ.:     0.3814929 α      in ANC's #58, #107, #126, ...

........................................................................
.............................. CYCLE   18 ..............................
........................................................................
   1   -683.2679575 -0.683268E+03  0.919E-03    0.70       0.0  T
   2   -683.2679664 -0.881065E-05  0.727E-03    0.70       1.0  T
   3   -683.2679811 -0.147387E-04  0.350E-03    0.70       1.4  T
   4   -683.2679719  0.918694E-05  0.328E-03    0.70       1.5  T
   5   -683.2679850 -0.131237E-04  0.660E-04    0.70       7.4  T
   6   -683.2679853 -0.275404E-06  0.323E-04    0.70      15.1  T
   7   -683.2679854 -0.139246E-06  0.108E-04    0.70      45.4  T
   8   -683.2679855 -0.979628E-08  0.476E-05    0.70     102.7  T
     SCC iter.                  ...        0 min,  6.893 sec
     gradient                   ...        0 min,  1.228 sec
 * total energy  :  -672.8104845 Eh     change       -0.1710540E-01 Eh
   gradient norm :     0.0357561 Eh/α   predicted    -0.1805350E-01 (   5.54%)
   displ. norm   :     0.9269602 α      lambda       -0.1843547E-01
   maximum displ.:     0.3832828 α      in ANC's #58, #126, #107, ...

........................................................................
.............................. CYCLE   19 ..............................
........................................................................
   1   -683.3245542 -0.683325E+03  0.904E-03    0.70       0.0  T
   2   -683.3245558 -0.157821E-05  0.762E-03    0.70       1.0  T
   3   -683.3245813 -0.255254E-04  0.341E-03    0.70       1.4  T
   4   -683.3245743  0.705692E-05  0.323E-03    0.70       1.5  T
   5   -683.3245864 -0.121403E-04  0.748E-04    0.70       6.5  T
   6   -683.3245866 -0.231940E-06  0.351E-04    0.70      13.9  T
   7   -683.3245868 -0.171924E-06  0.119E-04    0.70      41.2  T
   8   -683.3245868 -0.118016E-07  0.515E-05    0.70      95.0  T
     SCC iter.                  ...        0 min,  6.837 sec
     gradient                   ...        0 min,  1.175 sec
 * total energy  :  -672.8260894 Eh     change       -0.1560491E-01 Eh
   gradient norm :     0.0300219 Eh/α   predicted    -0.1713811E-01 (   9.83%)
   displ. norm   :     0.9051760 α      lambda       -0.1633422E-01
   maximum displ.:     0.3912157 α      in ANC's #58, #24, #126, ...

........................................................................
.............................. CYCLE   20 ..............................
........................................................................
   1   -683.3767715 -0.683377E+03  0.104E-02    0.68       0.0  T
   2   -683.3767829 -0.114212E-04  0.880E-03    0.68       1.0  T
   3   -683.3768155 -0.325706E-04  0.381E-03    0.68       1.3  T
   4   -683.3768042  0.113099E-04  0.372E-03    0.68       1.3  T
   5   -683.3768193 -0.150976E-04  0.877E-04    0.68       5.6  T
   6   -683.3768198 -0.481222E-06  0.349E-04    0.68      14.0  T
   7   -683.3768199 -0.154665E-06  0.110E-04    0.68      44.5  T
   8   -683.3768199 -0.122066E-07  0.509E-05    0.68      96.1  T
     SCC iter.                  ...        0 min,  7.235 sec
     gradient                   ...        0 min,  1.169 sec
 * total energy  :  -672.8390065 Eh     change       -0.1291710E-01 Eh
   gradient norm :     0.0485849 Eh/α   predicted    -0.1485879E-01 (  15.03%)
   displ. norm   :     0.8659608 α      lambda       -0.1455097E-01
   maximum displ.:     0.3860965 α      in ANC's #58, #24, #107, ...
 * RMSD in coord.:     0.7117468 α      energy gain  -0.1189862E+01 Eh

generating ANC from model Hessian ...
Using Lindh-Hessian (1995)
 Shifting diagonal of input Hessian by    1.0425592886360430E-002
 Lowest  eigenvalues of input Hessian
    0.010000    0.010087    0.010425    0.010425    0.010425    0.000000
    0.000000    0.000000    0.000000    0.000000    0.000000    0.010426
    0.010426    0.010427    0.010427    0.010428    0.010430    0.010433
 Highest eigenvalues
    2.247626    2.640501    2.655604    2.690630    2.697208    2.724833


........................................................................
.............................. CYCLE   21 ..............................
........................................................................
   1   -683.4312357 -0.683431E+03  0.914E-03    0.68       0.0  T
   2   -683.4312443 -0.865142E-05  0.821E-03    0.68       1.0  T
   3   -683.4312732 -0.288098E-04  0.338E-03    0.68       1.4  T
   4   -683.4312621  0.110727E-04  0.349E-03    0.68       1.4  T
   5   -683.4312754 -0.132951E-04  0.796E-04    0.68       6.1  T
   6   -683.4312757 -0.282581E-06  0.327E-04    0.68      14.9  T
   7   -683.4312758 -0.160534E-06  0.102E-04    0.68      48.1  T
   8   -683.4312758 -0.979344E-08  0.427E-05    0.68     114.7  T
     SCC iter.                  ...        0 min,  6.965 sec
     gradient                   ...        0 min,  1.226 sec
 * total energy  :  -672.8511448 Eh     change       -0.1213826E-01 Eh
   gradient norm :     0.0235989 Eh/α   predicted     0.0000000E+00 (-100.00%)
   displ. norm   :     0.6071078 α      lambda       -0.8190464E-02
   maximum displ.:     0.2746988 α      in ANC's #119, #69, #40, ...

........................................................................
.............................. CYCLE   22 ..............................
........................................................................
   1   -683.4653291 -0.683465E+03  0.420E-03    0.68       0.0  T
   2   -683.4653274  0.165038E-05  0.369E-03    0.69       1.3  T
   3   -683.4653370 -0.954034E-05  0.165E-03    0.68       3.0  T
   4   -683.4653367  0.229977E-06  0.134E-03    0.69       3.6  T
   5   -683.4653383 -0.159791E-05  0.418E-04    0.68      11.7  T
   6   -683.4653385 -0.145811E-06  0.169E-04    0.68      28.9  T
   7   -683.4653385 -0.412166E-07  0.514E-05    0.68      95.2  T
     SCC iter.                  ...        0 min,  5.940 sec
     gradient                   ...        0 min,  1.216 sec
 * total energy  :  -672.8588435 Eh     change       -0.7698707E-02 Eh
   gradient norm :     0.0150735 Eh/α   predicted    -0.5631940E-02 ( -26.85%)
   displ. norm   :     0.9372367 α      lambda       -0.1147856E-01
   maximum displ.:     0.4065785 α      in ANC's #119, #69, #40, ...

........................................................................
.............................. CYCLE   23 ..............................
........................................................................
   1   -683.5075451 -0.683508E+03  0.619E-03    0.69       0.0  T
   2   -683.5075444  0.713181E-06  0.529E-03    0.69       1.0  T
   3   -683.5075637 -0.193304E-04  0.234E-03    0.69       2.1  T
   4   -683.5075631  0.609227E-06  0.200E-03    0.69       2.4  T
   5   -683.5075667 -0.360404E-05  0.645E-04    0.69       7.6  T
   6   -683.5075670 -0.281391E-06  0.269E-04    0.69      18.2  T
   7   -683.5075671 -0.106044E-06  0.729E-05    0.69      67.1  T
   8   -683.5075671 -0.342618E-08  0.335E-05    0.69     145.8  T
     SCC iter.                  ...        0 min,  6.868 sec
     gradient                   ...        0 min,  1.156 sec
 * total energy  :  -672.8686849 Eh     change       -0.9841412E-02 Eh
   gradient norm :     0.0185084 Eh/α   predicted    -0.1078211E-01 (   9.56%)
   displ. norm   :     0.9122108 α      lambda       -0.1137433E-01
   maximum displ.:     0.3594747 α      in ANC's #119, #69, #42, ...

........................................................................
.............................. CYCLE   24 ..............................
........................................................................
   1   -683.5429154 -0.683543E+03  0.640E-03    0.69       0.0  T
   2   -683.5429181 -0.264865E-05  0.468E-03    0.69       1.0  T
   3   -683.5429285 -0.103847E-04  0.242E-03    0.69       2.0  T
   4   -683.5429302 -0.179653E-05  0.191E-03    0.69       2.6  T
   5   -683.5429337 -0.343372E-05  0.587E-04    0.69       8.3  T
   6   -683.5429339 -0.248004E-06  0.242E-04    0.69      20.2  T
   7   -683.5429340 -0.865986E-07  0.656E-05    0.69      74.5  T
   8   -683.5429340 -0.282296E-08  0.301E-05    0.69     162.4  T
     SCC iter.                  ...        0 min,  6.986 sec
     gradient                   ...        0 min,  1.151 sec
 * total energy  :  -672.8775495 Eh     change       -0.8864589E-02 Eh
   gradient norm :     0.0222341 Eh/α   predicted    -0.1041963E-01 (  17.54%)
   displ. norm   :     0.8776851 α      lambda       -0.9621292E-02
   maximum displ.:     0.3159878 α      in ANC's #119, #69, #40, ...

........................................................................
.............................. CYCLE   25 ..............................
........................................................................
   1   -683.5733660 -0.683573E+03  0.609E-03    0.69       0.0  T
   2   -683.5733720 -0.595586E-05  0.360E-03    0.69       1.4  T
   3   -683.5733751 -0.307480E-05  0.211E-03    0.69       2.3  T
   4   -683.5733765 -0.142231E-05  0.163E-03    0.69       3.0  T
   5   -683.5733792 -0.275399E-05  0.453E-04    0.69      10.8  T
   6   -683.5733794 -0.143279E-06  0.162E-04    0.69      30.2  T
   7   -683.5733794 -0.321066E-07  0.572E-05    0.69      85.5  T
     SCC iter.                  ...        0 min,  6.096 sec
     gradient                   ...        0 min,  1.220 sec
 * total energy  :  -672.8850996 Eh     change       -0.7550065E-02 Eh
   gradient norm :     0.0225338 Eh/α   predicted    -0.8516443E-02 (  12.80%)
   displ. norm   :     0.8634782 α      lambda       -0.9154464E-02
   maximum displ.:     0.2705246 α      in ANC's #119, #69, #42, ...

........................................................................
.............................. CYCLE   26 ..............................
........................................................................
   1   -683.6038387 -0.683604E+03  0.602E-03    0.69       0.0  T
   2   -683.6038448 -0.604613E-05  0.377E-03    0.69       1.3  T
   3   -683.6038501 -0.535333E-05  0.194E-03    0.69       2.5  T
   4   -683.6038506 -0.443470E-06  0.162E-03    0.69       3.0  T
   5   -683.6038533 -0.274958E-05  0.471E-04    0.69      10.4  T
   6   -683.6038535 -0.150284E-06  0.149E-04    0.69      32.9  T
   7   -683.6038535 -0.223865E-07  0.598E-05    0.69      81.8  T
     SCC iter.                  ...        0 min,  5.947 sec
     gradient                   ...        0 min,  1.235 sec
 * total energy  :  -672.8920077 Eh     change       -0.6908160E-02 Eh
   gradient norm :     0.0192721 Eh/α   predicted    -0.7989995E-02 (  15.66%)
   displ. norm   :     0.8468058 α      lambda       -0.8464834E-02
   maximum displ.:     0.2692009 α      in ANC's #69, #40, #119, ...

........................................................................
.............................. CYCLE   27 ..............................
........................................................................
   1   -683.6277849 -0.683628E+03  0.568E-03    0.68       0.0  T
   2   -683.6277912 -0.629161E-05  0.370E-03    0.68       1.3  T
   3   -683.6277959 -0.470281E-05  0.184E-03    0.68       2.7  T
   4   -683.6277953  0.598840E-06  0.162E-03    0.68       3.0  T
   5   -683.6277982 -0.285690E-05  0.490E-04    0.68      10.0  T
   6   -683.6277984 -0.179009E-06  0.151E-04    0.68      32.4  T
   7   -683.6277984 -0.271716E-07  0.567E-05    0.68      86.3  T
     SCC iter.                  ...        0 min,  6.061 sec
     gradient                   ...        0 min,  1.189 sec
 * total energy  :  -672.8971022 Eh     change       -0.5094510E-02 Eh
   gradient norm :     0.0212393 Eh/α   predicted    -0.7267401E-02 (  42.65%)
   displ. norm   :     0.7502095 α      lambda       -0.8246651E-02
   maximum displ.:     0.2229768 α      in ANC's #69, #42, #40, ...

........................................................................
.............................. CYCLE   28 ..............................
........................................................................
   1   -683.6524071 -0.683652E+03  0.543E-03    0.68       0.0  T
   2   -683.6524100 -0.292083E-05  0.357E-03    0.68       1.4  T
   3   -683.6524147 -0.466968E-05  0.193E-03    0.68       2.5  T
   4   -683.6524158 -0.111374E-05  0.152E-03    0.68       3.2  T
   5   -683.6524181 -0.222049E-05  0.446E-04    0.68      11.0  T
   6   -683.6524182 -0.171813E-06  0.150E-04    0.68      32.6  T
   7   -683.6524183 -0.285406E-07  0.526E-05    0.68      93.0  T
     SCC iter.                  ...        0 min,  6.008 sec
     gradient                   ...        0 min,  1.169 sec
 * total energy  :  -672.9034247 Eh     change       -0.6322512E-02 Eh
   gradient norm :     0.0124871 Eh/α   predicted    -0.6443995E-02 (   1.92%)
   displ. norm   :     0.8570867 α      lambda       -0.6191407E-02
   maximum displ.:     0.2566535 α      in ANC's #42, #69, #40, ...

........................................................................
.............................. CYCLE   29 ..............................
........................................................................
   1   -683.6709913 -0.683671E+03  0.466E-03    0.68       0.0  T
   2   -683.6709946 -0.329916E-05  0.292E-03    0.68       1.7  T
   3   -683.6709988 -0.421894E-05  0.141E-03    0.68       3.5  T
   4   -683.6709996 -0.809175E-06  0.115E-03    0.68       4.3  T
   5   -683.6710009 -0.126846E-05  0.387E-04    0.68      12.6  T
   6   -683.6710010 -0.749861E-07  0.123E-04    0.68      39.7  T
   7   -683.6710010 -0.154332E-07  0.444E-05    0.68     110.1  T
     SCC iter.                  ...        0 min,  6.043 sec
     gradient                   ...        0 min,  1.165 sec
 * total energy  :  -672.9082080 Eh     change       -0.4783205E-02 Eh
   gradient norm :     0.0164357 Eh/α   predicted    -0.5369810E-02 (  12.26%)
   displ. norm   :     0.8436723 α      lambda       -0.6873832E-02
   maximum displ.:     0.2816078 α      in ANC's #40, #69, #31, ...

........................................................................
.............................. CYCLE   30 ..............................
........................................................................
   1   -683.6924398 -0.683692E+03  0.428E-03    0.67       0.0  T
   2   -683.6924418 -0.193640E-05  0.265E-03    0.68       1.8  T
   3   -683.6924444 -0.265758E-05  0.149E-03    0.68       3.3  T
   4   -683.6924457 -0.131291E-05  0.105E-03    0.68       4.7  T
   5   -683.6924467 -0.916894E-06  0.369E-04    0.68      13.2  T
   6   -683.6924468 -0.112793E-06  0.114E-04    0.68      43.0  T
   7   -683.6924468 -0.136356E-07  0.445E-05    0.68     110.0  T
     SCC iter.                  ...        0 min,  6.005 sec
     gradient                   ...        0 min,  1.156 sec
 * total energy  :  -672.9132449 Eh     change       -0.5036945E-02 Eh
   gradient norm :     0.0167525 Eh/α   predicted    -0.5883247E-02 (  16.80%)
   displ. norm   :     0.8377299 α      lambda       -0.5540370E-02
   maximum displ.:     0.2889286 α      in ANC's #40, #31, #69, ...

........................................................................
.............................. CYCLE   31 ..............................
........................................................................
   1   -683.7068549 -0.683707E+03  0.349E-03    0.68       0.0  T
   2   -683.7068563 -0.139717E-05  0.222E-03    0.68       2.2  T
   3   -683.7068588 -0.251735E-05  0.117E-03    0.68       4.2  T
   4   -683.7068597 -0.919372E-06  0.859E-04    0.68       5.7  T
   5   -683.7068603 -0.576884E-06  0.303E-04    0.68      16.1  T
   6   -683.7068603 -0.638045E-07  0.106E-04    0.68      46.3  T
   7   -683.7068604 -0.125972E-07  0.409E-05    0.68     119.5  T
     SCC iter.                  ...        0 min,  6.048 sec
     gradient                   ...        0 min,  1.220 sec
 * total energy  :  -672.9178226 Eh     change       -0.4577716E-02 Eh
   gradient norm :     0.0150679 Eh/α   predicted    -0.4714285E-02 (   2.98%)
   displ. norm   :     0.8579833 α      lambda       -0.5930103E-02
   maximum displ.:     0.2845603 α      in ANC's #40, #31, #69, ...

........................................................................
.............................. CYCLE   32 ..............................
........................................................................
   1   -683.7181011 -0.683718E+03  0.343E-03    0.68       0.0  T
   2   -683.7181024 -0.131377E-05  0.260E-03    0.68       1.9  T
   3   -683.7181059 -0.348006E-05  0.134E-03    0.68       3.6  T
   4   -683.7181059  0.418652E-07  0.104E-03    0.68       4.7  T
   5   -683.7181068 -0.983613E-06  0.339E-04    0.68      14.4  T
   6   -683.7181069 -0.967748E-07  0.130E-04    0.68      37.5  T
   7   -683.7181070 -0.199124E-07  0.412E-05    0.68     118.9  T
     SCC iter.                  ...        0 min,  5.877 sec
     gradient                   ...        0 min,  1.222 sec
 * total energy  :  -672.9209233 Eh     change       -0.3100671E-02 Eh
   gradient norm :     0.0205132 Eh/α   predicted    -0.5147725E-02 (  66.02%)
   displ. norm   :     0.7027976 α      lambda       -0.6145074E-02
   maximum displ.:     0.2514112 α      in ANC's #40, #31, #42, ...

........................................................................
.............................. CYCLE   33 ..............................
........................................................................
   1   -683.7330117 -0.683733E+03  0.310E-03    0.68       0.0  T
   2   -683.7330129 -0.120391E-05  0.217E-03    0.68       2.3  T
   3   -683.7330137 -0.826142E-06  0.128E-03    0.68       3.8  T
   4   -683.7330137  0.659546E-07  0.839E-04    0.68       5.8  T
   5   -683.7330144 -0.776650E-06  0.234E-04    0.68      20.9  T
   6   -683.7330145 -0.375636E-07  0.699E-05    0.68      70.0  T
   7   -683.7330145 -0.384227E-08  0.333E-05    0.68     147.0  T
     SCC iter.                  ...        0 min,  5.881 sec
     gradient                   ...        0 min,  1.190 sec
 * total energy  :  -672.9255261 Eh     change       -0.4602817E-02 Eh
   gradient norm :     0.0109562 Eh/α   predicted    -0.4590135E-02 (  -0.28%)
   displ. norm   :     0.8611015 α      lambda       -0.4558399E-02
   maximum displ.:     0.3191255 α      in ANC's #40, #31, #42, ...

........................................................................
.............................. CYCLE   34 ..............................
........................................................................
   1   -683.7420573 -0.683742E+03  0.240E-03    0.68       0.0  T
   2   -683.7420585 -0.124180E-05  0.156E-03    0.68       3.1  T
   3   -683.7420596 -0.113422E-05  0.838E-04    0.68       5.8  T
   4   -683.7420599 -0.281500E-06  0.586E-04    0.68       8.3  T
   5   -683.7420602 -0.253856E-06  0.213E-04    0.68      22.9  T
   6   -683.7420602 -0.256051E-07  0.903E-05    0.68      54.2  T
   7   -683.7420602 -0.697082E-08  0.379E-05    0.68     129.0  T
     SCC iter.                  ...        0 min,  5.894 sec
     gradient                   ...        0 min,  1.166 sec
 * total energy  :  -672.9294776 Eh     change       -0.3951459E-02 Eh
   gradient norm :     0.0093702 Eh/α   predicted    -0.3969224E-02 (   0.45%)
   displ. norm   :     0.9113862 α      lambda       -0.4321596E-02
   maximum displ.:     0.3570931 α      in ANC's #40, #31, #42, ...

........................................................................
.............................. CYCLE   35 ..............................
........................................................................
   1   -683.7531964 -0.683753E+03  0.264E-03    0.68       0.0  T
   2   -683.7531983 -0.187697E-05  0.167E-03    0.68       2.9  T
   3   -683.7531993 -0.105178E-05  0.977E-04    0.68       5.0  T
   4   -683.7531996 -0.266502E-06  0.653E-04    0.68       7.5  T
   5   -683.7531999 -0.298414E-06  0.246E-04    0.68      19.9  T
   6   -683.7531999 -0.464643E-07  0.113E-04    0.68      43.2  T
   7   -683.7531999 -0.146081E-07  0.436E-05    0.68     112.2  T
     SCC iter.                  ...        0 min,  5.921 sec
     gradient                   ...        0 min,  1.173 sec
 * total energy  :  -672.9334472 Eh     change       -0.3969599E-02 Eh
   gradient norm :     0.0086532 Eh/α   predicted    -0.3955608E-02 (  -0.35%)
   displ. norm   :     0.9243831 α      lambda       -0.4218237E-02
   maximum displ.:     0.3634956 α      in ANC's #31, #40, #42, ...

........................................................................
.............................. CYCLE   36 ..............................
........................................................................
   1   -683.7625180 -0.683763E+03  0.277E-03    0.68       0.0  T
   2   -683.7625204 -0.238372E-05  0.173E-03    0.68       2.8  T
   3   -683.7625215 -0.109307E-05  0.944E-04    0.68       5.2  T
   4   -683.7625216 -0.127059E-06  0.650E-04    0.68       7.5  T
   5   -683.7625219 -0.273240E-06  0.268E-04    0.68      18.3  T
   6   -683.7625219 -0.639770E-07  0.113E-04    0.68      43.4  T
   7   -683.7625219 -0.138866E-07  0.459E-05    0.68     106.7  T
     SCC iter.                  ...        0 min,  5.895 sec
     gradient                   ...        0 min,  1.148 sec
 * total energy  :  -672.9372565 Eh     change       -0.3809353E-02 Eh
   gradient norm :     0.0082604 Eh/α   predicted    -0.3911330E-02 (   2.68%)
   displ. norm   :     0.9247351 α      lambda       -0.3963463E-02
   maximum displ.:     0.3716825 α      in ANC's #31, #40, #42, ...

........................................................................
.............................. CYCLE   37 ..............................
........................................................................
   1   -683.7745466 -0.683775E+03  0.304E-03    0.68       0.0  T
   2   -683.7745491 -0.250854E-05  0.167E-03    0.68       2.9  T
   3   -683.7745499 -0.752823E-06  0.100E-03    0.68       4.9  T
   4   -683.7745501 -0.276182E-06  0.592E-04    0.68       8.3  T
   5   -683.7745503 -0.168441E-06  0.279E-04    0.68      17.5  T
   6   -683.7745504 -0.846354E-07  0.111E-04    0.68      44.2  T
   7   -683.7745504 -0.134055E-07  0.438E-05    0.68     111.6  T
     SCC iter.                  ...        0 min,  5.957 sec
     gradient                   ...        0 min,  1.159 sec
 * total energy  :  -672.9408538 Eh     change       -0.3597266E-02 Eh
   gradient norm :     0.0092457 Eh/α   predicted    -0.3676369E-02 (   2.20%)
   displ. norm   :     0.9280957 α      lambda       -0.3829714E-02
   maximum displ.:     0.3795779 α      in ANC's #31, #40, #42, ...

........................................................................
.............................. CYCLE   38 ..............................
........................................................................
   1   -683.7815306 -0.683782E+03  0.277E-03    0.68       0.0  T
   2   -683.7815326 -0.194144E-05  0.154E-03    0.68       3.2  T
   3   -683.7815332 -0.645263E-06  0.827E-04    0.68       5.9  T
   4   -683.7815333 -0.114697E-06  0.507E-04    0.68       9.6  T
   5   -683.7815334 -0.865255E-07  0.233E-04    0.68      21.0  T
   6   -683.7815335 -0.664953E-07  0.889E-05    0.68      55.0  T
   7   -683.7815335 -0.752050E-08  0.335E-05    0.68     145.9  T
     SCC iter.                  ...        0 min,  5.923 sec
     gradient                   ...        0 min,  1.175 sec
 * total energy  :  -672.9443834 Eh     change       -0.3529662E-02 Eh
   gradient norm :     0.0078624 Eh/α   predicted    -0.3564244E-02 (   0.98%)
   displ. norm   :     0.9382909 α      lambda       -0.3573477E-02
   maximum displ.:     0.3994474 α      in ANC's #31, #40, #42, ...

........................................................................
.............................. CYCLE   39 ..............................
........................................................................
   1   -683.7971794 -0.683797E+03  0.346E-03    0.68       0.0  T
   2   -683.7971813 -0.188672E-05  0.183E-03    0.68       2.7  T
   3   -683.7971816 -0.339088E-06  0.125E-03    0.68       3.9  T
   4   -683.7971821 -0.515187E-06  0.514E-04    0.68       9.5  T
   5   -683.7971822 -0.111917E-06  0.258E-04    0.68      18.9  T
   6   -683.7971823 -0.834725E-07  0.795E-05    0.68      61.5  T
   7   -683.7971823 -0.549471E-08  0.355E-05    0.68     137.7  T
     SCC iter.                  ...        0 min,  6.242 sec
     gradient                   ...        0 min,  1.240 sec
 * total energy  :  -672.9477304 Eh     change       -0.3346951E-02 Eh
   gradient norm :     0.0105482 Eh/α   predicted    -0.3359764E-02 (   0.38%)
   displ. norm   :     0.9392843 α      lambda       -0.3647514E-02
   maximum displ.:     0.3978957 α      in ANC's #31, #40, #42, ...

........................................................................
.............................. CYCLE   40 ..............................
........................................................................
   1   -683.8022148 -0.683802E+03  0.439E-03    0.68       0.0  T
   2   -683.8022174 -0.263867E-05  0.225E-03    0.68       2.2  T
   3   -683.8022174  0.833245E-08  0.148E-03    0.68       3.3  T
   4   -683.8022179 -0.534007E-06  0.742E-04    0.68       6.6  T
   5   -683.8022182 -0.251532E-06  0.368E-04    0.68      13.3  T
   6   -683.8022184 -0.232994E-06  0.766E-05    0.68      63.8  T
   7   -683.8022184 -0.634441E-08  0.316E-05    0.68     154.6  T
     SCC iter.                  ...        0 min,  5.763 sec
     gradient                   ...        0 min,  1.222 sec
 * total energy  :  -672.9510053 Eh     change       -0.3274868E-02 Eh
   gradient norm :     0.0094066 Eh/α   predicted    -0.3432775E-02 (   4.82%)
   displ. norm   :     0.9250473 α      lambda       -0.3389366E-02
   maximum displ.:     0.4046722 α      in ANC's #31, #40, #42, ...

........................................................................
.............................. CYCLE   41 ..............................
........................................................................
   1   -683.8152182 -0.683815E+03  0.264E-03    0.68       0.0  T
   2   -683.8152199 -0.162605E-05  0.160E-03    0.68       3.1  T
   3   -683.8152202 -0.291327E-06  0.913E-04    0.68       5.4  T
   4   -683.8152201  0.864634E-07  0.547E-04    0.68       8.9  T
   5   -683.8152202 -0.147883E-06  0.238E-04    0.68      20.6  T
   6   -683.8152203 -0.936325E-07  0.701E-05    0.68      69.8  T
   7   -683.8152203 -0.546095E-08  0.267E-05    0.68     183.2  T
     SCC iter.                  ...        0 min,  5.970 sec
     gradient                   ...        0 min,  1.197 sec
 * total energy  :  -672.9542009 Eh     change       -0.3195629E-02 Eh
   gradient norm :     0.0088818 Eh/α   predicted    -0.3144857E-02 (  -1.59%)
   displ. norm   :     0.9391817 α      lambda       -0.3383325E-02
   maximum displ.:     0.4216497 α      in ANC's #31, #40, #42, ...

........................................................................
.............................. CYCLE   42 ..............................
........................................................................
   1   -683.8334435 -0.683833E+03  0.356E-03    0.67       0.0  T
   2   -683.8334455 -0.197083E-05  0.201E-03    0.67       2.4  T
   3   -683.8334456 -0.110601E-06  0.112E-03    0.67       4.4  T
   4   -683.8334454  0.196095E-06  0.562E-04    0.67       8.7  T
   5   -683.8334457 -0.270059E-06  0.256E-04    0.67      19.1  T
   6   -683.8334458 -0.114264E-06  0.651E-05    0.67      75.2  T
   7   -683.8334458 -0.344926E-08  0.324E-05    0.67     150.9  T
     SCC iter.                  ...        0 min,  5.910 sec
     gradient                   ...        0 min,  1.165 sec
 * total energy  :  -672.9573234 Eh     change       -0.3122527E-02 Eh
   gradient norm :     0.0109868 Eh/α   predicted    -0.3183824E-02 (   1.96%)
   displ. norm   :     0.9358189 α      lambda       -0.3273241E-02
   maximum displ.:     0.4232635 α      in ANC's #31, #40, #42, ...
 * RMSD in coord.:     0.8390071 α      energy gain  -0.1183169E+00 Eh

generating ANC from model Hessian ...
Using Lindh-Hessian (1995)
 Shifting diagonal of input Hessian by    1.0002228059629194E-002
 Lowest  eigenvalues of input Hessian
    0.010000    0.010001    0.010002    0.010002    0.000000    0.000000
    0.000000    0.000000    0.000000    0.000000    0.010003    0.010003
    0.010003    0.010004    0.010006    0.010008    0.010008    0.010009
 Highest eigenvalues
    2.318765    2.762843    2.776573    2.778560    2.816864    2.817098


........................................................................
.............................. CYCLE   43 ..............................
........................................................................
   1   -683.8436741 -0.683844E+03  0.286E-03    0.67       0.0  T
   2   -683.8436760 -0.194492E-05  0.136E-03    0.67       3.6  T
   3   -683.8436762 -0.200211E-06  0.812E-04    0.67       6.0  T
   4   -683.8436761  0.104212E-06  0.567E-04    0.67       8.6  T
   5   -683.8436764 -0.312021E-06  0.215E-04    0.67      22.7  T
   6   -683.8436765 -0.560691E-07  0.688E-05    0.67      71.1  T
   7   -683.8436765 -0.406260E-08  0.426E-05    0.67     114.9  T
     SCC iter.                  ...        0 min,  5.916 sec
     gradient                   ...        0 min,  1.158 sec
 * total energy  :  -672.9603988 Eh     change       -0.3075359E-02 Eh
   gradient norm :     0.0090906 Eh/α   predicted     0.0000000E+00 (-100.00%)
   displ. norm   :     0.2924102 α      lambda       -0.1094295E-02
   maximum displ.:     0.1242443 α      in ANC's #28, #38, #35, ...

........................................................................
.............................. CYCLE   44 ..............................
........................................................................
   1   -683.8436569 -0.683844E+03  0.142E-03    0.67       0.0  T
   2   -683.8436571 -0.219177E-06  0.867E-04    0.67       5.6  T
   3   -683.8436573 -0.174173E-06  0.608E-04    0.67       8.0  T
   4   -683.8436575 -0.189567E-06  0.291E-04    0.67      16.8  T
   5   -683.8436575 -0.519293E-07  0.112E-04    0.67      43.5  T
   6   -683.8436575 -0.154367E-07  0.321E-05    0.67     152.3  T
     SCC iter.                  ...        0 min,  5.123 sec
     gradient                   ...        0 min,  1.164 sec
 * total energy  :  -672.9614255 Eh     change       -0.1026672E-02 Eh
   gradient norm :     0.0048963 Eh/α   predicted    -0.5950286E-03 ( -42.04%)
   displ. norm   :     0.8278631 α      lambda       -0.2849033E-02
   maximum displ.:     0.3359084 α      in ANC's #38, #28, #35, ...

........................................................................
.............................. CYCLE   45 ..............................
........................................................................
   1   -683.8435488 -0.683844E+03  0.353E-03    0.68       0.0  T
   2   -683.8435507 -0.185186E-05  0.230E-03    0.68       2.1  T
   3   -683.8435529 -0.224726E-05  0.142E-03    0.68       3.4  T
   4   -683.8435538 -0.817862E-06  0.789E-04    0.68       6.2  T
   5   -683.8435541 -0.328689E-06  0.315E-04    0.68      15.5  T
   6   -683.8435542 -0.115684E-06  0.904E-05    0.68      54.1  T
   7   -683.8435542 -0.102259E-07  0.433E-05    0.68     112.8  T
     SCC iter.                  ...        0 min,  5.913 sec
     gradient                   ...        0 min,  1.154 sec
 * total energy  :  -672.9637225 Eh     change       -0.2297019E-02 Eh
   gradient norm :     0.0125882 Eh/α   predicted    -0.2400821E-02 (   4.52%)
   displ. norm   :     0.8476986 α      lambda       -0.3171637E-02
   maximum displ.:     0.3454186 α      in ANC's #28, #38, #35, ...

........................................................................
.............................. CYCLE   46 ..............................
........................................................................
   1   -683.8472610 -0.683847E+03  0.269E-03    0.68       0.0  T
   2   -683.8472622 -0.126414E-05  0.189E-03    0.68       2.6  T
   3   -683.8472647 -0.246064E-05  0.997E-04    0.68       4.9  T
   4   -683.8472651 -0.405457E-06  0.601E-04    0.68       8.1  T
   5   -683.8472653 -0.140093E-06  0.242E-04    0.68      20.2  T
   6   -683.8472653 -0.546216E-07  0.593E-05    0.68      82.5  T
   7   -683.8472653 -0.322814E-08  0.278E-05    0.68     175.7  T
     SCC iter.                  ...        0 min,  5.903 sec
     gradient                   ...        0 min,  1.210 sec
 * total energy  :  -672.9661363 Eh     change       -0.2413859E-02 Eh
   gradient norm :     0.0175993 Eh/α   predicted    -0.2725376E-02 (  12.91%)
   displ. norm   :     0.8111343 α      lambda       -0.2934895E-02
   maximum displ.:     0.3398031 α      in ANC's #38, #28, #35, ...

........................................................................
.............................. CYCLE   47 ..............................
........................................................................
   1   -683.8543950 -0.683854E+03  0.204E-03    0.68       0.0  T
   2   -683.8543956 -0.654643E-06  0.156E-03    0.68       3.1  T
   3   -683.8543974 -0.176059E-05  0.758E-04    0.68       6.5  T
   4   -683.8543975 -0.103722E-06  0.502E-04    0.68       9.7  T
   5   -683.8543976 -0.147030E-06  0.164E-04    0.68      29.9  T
   6   -683.8543977 -0.204467E-07  0.717E-05    0.68      68.2  T
     SCC iter.                  ...        0 min,  4.968 sec
     gradient                   ...        0 min,  1.203 sec
 * total energy  :  -672.9680779 Eh     change       -0.1941587E-02 Eh
   gradient norm :     0.0181373 Eh/α   predicted    -0.2432938E-02 (  25.31%)
   displ. norm   :     0.7217894 α      lambda       -0.3480406E-02
   maximum displ.:     0.2998566 α      in ANC's #28, #38, #35, ...

........................................................................
.............................. CYCLE   48 ..............................
........................................................................
   1   -683.8669472 -0.683867E+03  0.282E-03    0.68       0.0  T
   2   -683.8669482 -0.104653E-05  0.168E-03    0.68       2.9  T
   3   -683.8669484 -0.196387E-06  0.114E-03    0.68       4.3  T
   4   -683.8669487 -0.266963E-06  0.651E-04    0.68       7.5  T
   5   -683.8669491 -0.422778E-06  0.144E-04    0.68      34.0  T
   6   -683.8669491 -0.148350E-07  0.537E-05    0.68      91.2  T
     SCC iter.                  ...        0 min,  4.958 sec
     gradient                   ...        0 min,  1.216 sec
 * total energy  :  -672.9702467 Eh     change       -0.2168820E-02 Eh
   gradient norm :     0.0133075 Eh/α   predicted    -0.2646815E-02 (  22.04%)
   displ. norm   :     0.7281829 α      lambda       -0.3296662E-02
   maximum displ.:     0.2909977 α      in ANC's #28, #38, #35, ...

........................................................................
.............................. CYCLE   49 ..............................
........................................................................
   1   -683.8759004 -0.683876E+03  0.172E-03    0.68       0.0  T
   2   -683.8759011 -0.692979E-06  0.860E-04    0.68       5.7  T
   3   -683.8759013 -0.114915E-06  0.509E-04    0.68       9.6  T
   4   -683.8759012  0.467660E-07  0.389E-04    0.68      12.6  T
   5   -683.8759013 -0.133666E-06  0.133E-04    0.68      36.8  T
   6   -683.8759014 -0.187682E-07  0.330E-05    0.68     148.2  T
     SCC iter.                  ...        0 min,  4.940 sec
     gradient                   ...        0 min,  1.222 sec
 * total energy  :  -672.9723974 Eh     change       -0.2150671E-02 Eh
   gradient norm :     0.0107295 Eh/α   predicted    -0.2522366E-02 (  17.28%)
   displ. norm   :     0.8030102 α      lambda       -0.2973421E-02
   maximum displ.:     0.3306041 α      in ANC's #28, #38, #35, ...

........................................................................
.............................. CYCLE   50 ..............................
........................................................................
   1   -683.8826410 -0.683883E+03  0.181E-03    0.67       0.0  T
   2   -683.8826416 -0.640625E-06  0.110E-03    0.67       4.4  T
   3   -683.8826418 -0.176754E-06  0.644E-04    0.67       7.6  T
   4   -683.8826417  0.698146E-07  0.454E-04    0.67      10.8  T
   5   -683.8826419 -0.212983E-06  0.142E-04    0.67      34.5  T
   6   -683.8826419 -0.201852E-07  0.414E-05    0.67     118.1  T
     SCC iter.                  ...        0 min,  4.950 sec
     gradient                   ...        0 min,  1.230 sec
 * total energy  :  -672.9747469 Eh     change       -0.2349475E-02 Eh
   gradient norm :     0.0096360 Eh/α   predicted    -0.2445379E-02 (   4.08%)
   displ. norm   :     0.8838361 α      lambda       -0.2669893E-02
   maximum displ.:     0.3766607 α      in ANC's #28, #38, #35, ...

........................................................................
.............................. CYCLE   51 ..............................
........................................................................
   1   -683.8916277 -0.683892E+03  0.179E-03    0.67       0.0  T
   2   -683.8916286 -0.955763E-06  0.973E-04    0.67       5.0  T
   3   -683.8916289 -0.232809E-06  0.550E-04    0.67       8.9  T
   4   -683.8916289  0.808609E-08  0.365E-04    0.67      13.4  T
   5   -683.8916289 -0.662131E-07  0.170E-04    0.67      28.8  T
   6   -683.8916290 -0.362916E-07  0.420E-05    0.67     116.6  T
     SCC iter.                  ...        0 min,  5.083 sec
     gradient                   ...        0 min,  1.241 sec
 * total energy  :  -672.9771131 Eh     change       -0.2366247E-02 Eh
   gradient norm :     0.0071405 Eh/α   predicted    -0.2377768E-02 (   0.49%)
   displ. norm   :     0.8995619 α      lambda       -0.2720915E-02
   maximum displ.:     0.3933609 α      in ANC's #28, #38, #20, ...

........................................................................
.............................. CYCLE   52 ..............................
........................................................................
   1   -683.9032142 -0.683903E+03  0.258E-03    0.67       0.0  T
   2   -683.9032159 -0.177957E-05  0.147E-03    0.67       3.3  T
   3   -683.9032167 -0.755661E-06  0.810E-04    0.67       6.0  T
   4   -683.9032167 -0.413823E-07  0.539E-04    0.67       9.1  T
   5   -683.9032169 -0.114131E-06  0.308E-04    0.67      15.9  T
   6   -683.9032170 -0.150779E-06  0.670E-05    0.67      73.0  T
   7   -683.9032170 -0.400212E-08  0.299E-05    0.67     163.4  T
     SCC iter.                  ...        0 min,  5.779 sec
     gradient                   ...        0 min,  1.242 sec
 * total energy  :  -672.9792317 Eh     change       -0.2118574E-02 Eh
   gradient norm :     0.0099635 Eh/α   predicted    -0.2461353E-02 (  16.18%)
   displ. norm   :     0.8585581 α      lambda       -0.2676276E-02
   maximum displ.:     0.3674980 α      in ANC's #28, #38, #35, ...

........................................................................
.............................. CYCLE   53 ..............................
........................................................................
   1   -683.9118637 -0.683912E+03  0.186E-03    0.67       0.0  T
   2   -683.9118646 -0.863083E-06  0.113E-03    0.67       4.3  T
   3   -683.9118650 -0.379737E-06  0.615E-04    0.67       8.0  T
   4   -683.9118650 -0.131832E-07  0.377E-04    0.67      13.0  T
   5   -683.9118650 -0.514460E-07  0.208E-04    0.67      23.6  T
   6   -683.9118651 -0.655965E-07  0.562E-05    0.67      87.1  T
   7   -683.9118651 -0.319869E-08  0.220E-05    0.67     222.3  T
     SCC iter.                  ...        0 min,  5.868 sec
     gradient                   ...        0 min,  1.177 sec
 * total energy  :  -672.9816249 Eh     change       -0.2393181E-02 Eh
   gradient norm :     0.0066302 Eh/α   predicted    -0.2324510E-02 (  -2.87%)
   displ. norm   :     0.9344317 α      lambda       -0.2439247E-02
   maximum displ.:     0.4087506 α      in ANC's #28, #38, #20, ...

........................................................................
.............................. CYCLE   54 ..............................
........................................................................
   1   -683.9194346 -0.683919E+03  0.194E-03    0.67       0.0  T
   2   -683.9194356 -0.997258E-06  0.112E-03    0.67       4.3  T
   3   -683.9194361 -0.452795E-06  0.639E-04    0.67       7.7  T
   4   -683.9194362 -0.838521E-07  0.340E-04    0.67      14.4  T
   5   -683.9194362 -0.139139E-07  0.192E-04    0.67      25.4  T
   6   -683.9194362 -0.482003E-07  0.561E-05    0.67      87.1  T
     SCC iter.                  ...        0 min,  5.054 sec
     gradient                   ...        0 min,  1.180 sec
 * total energy  :  -672.9838856 Eh     change       -0.2260763E-02 Eh
   gradient norm :     0.0046749 Eh/α   predicted    -0.2284557E-02 (   1.05%)
   displ. norm   :     0.9540659 α      lambda       -0.2337979E-02
   maximum displ.:     0.4247526 α      in ANC's #28, #38, #20, ...

........................................................................
.............................. CYCLE   55 ..............................
........................................................................
   1   -683.9280692 -0.683928E+03  0.187E-03    0.67       0.0  T
   2   -683.9280703 -0.103172E-05  0.112E-03    0.67       4.3  T
   3   -683.9280708 -0.547749E-06  0.601E-04    0.67       8.1  T
   4   -683.9280709 -0.592707E-07  0.341E-04    0.67      14.4  T
   5   -683.9280709 -0.304783E-08  0.209E-04    0.67      23.4  T
   6   -683.9280709 -0.644503E-07  0.578E-05    0.67      84.6  T
   7   -683.9280709 -0.324087E-08  0.259E-05    0.67     189.1  T
     SCC iter.                  ...        0 min,  5.961 sec
     gradient                   ...        0 min,  1.166 sec
 * total energy  :  -672.9861239 Eh     change       -0.2238221E-02 Eh
   gradient norm :     0.0040929 Eh/α   predicted    -0.2233046E-02 (  -0.23%)
   displ. norm   :     0.9558957 α      lambda       -0.2220033E-02
   maximum displ.:     0.4298444 α      in ANC's #28, #38, #20, ...

........................................................................
.............................. CYCLE   56 ..............................
........................................................................
   1   -683.9365414 -0.683937E+03  0.163E-03    0.67       0.0  T
   2   -683.9365422 -0.794613E-06  0.971E-04    0.67       5.0  T
   3   -683.9365425 -0.373097E-06  0.529E-04    0.67       9.2  T
   4   -683.9365426 -0.427387E-07  0.297E-04    0.67      16.5  T
   5   -683.9365426 -0.135532E-07  0.168E-04    0.67      29.1  T
   6   -683.9365426 -0.403650E-07  0.529E-05    0.67      92.5  T
     SCC iter.                  ...        0 min,  5.132 sec
     gradient                   ...        0 min,  1.154 sec
 * total energy  :  -672.9882543 Eh     change       -0.2130464E-02 Eh
   gradient norm :     0.0037927 Eh/α   predicted    -0.2124284E-02 (  -0.29%)
   displ. norm   :     0.9565285 α      lambda       -0.2166883E-02
   maximum displ.:     0.4301414 α      in ANC's #28, #38, #20, ...

........................................................................
.............................. CYCLE   57 ..............................
........................................................................
   1   -683.9445686 -0.683945E+03  0.142E-03    0.67       0.0  T
   2   -683.9445692 -0.579005E-06  0.805E-04    0.67       6.1  T
   3   -683.9445694 -0.188709E-06  0.461E-04    0.67      10.6  T
[...]
   182   6 C      189   6 C                                       1.3977651
   188   6 C      189   6 C                                       1.3820577
   181   6 C      190   6 C                                       1.3966464
   190   6 C      191   6 C                                       1.4515047
   191   6 C      192   6 C                                       1.3495225
   155   6 C      193   6 C                                       1.4097553
   192   6 C      193   6 C                                       1.4489698
   190   6 C      194   7 N                                       1.3620358
   193   6 C      194   7 N                                       1.3484104
   157   6 C      195   1 H                                       1.0781256
   158   6 C      196   1 H                                       1.0777975
   160   7 N      197   1 H                                       1.0145817
   163   6 C      198   1 H                                       1.0844705
   164   6 C      199   1 H                                       1.0849592
   166   7 N      200   1 H                                       1.0129230
   167   6 C      201   1 H                                       1.0960852
   167   6 C      202   1 H                                       1.0900147
   167   6 C      203   1 H                                       1.0907796
   168   6 C      204   1 H                                       1.0831128
   169   6 C      205   1 H                                       1.0847289
   171   6 C      206   1 H                                       1.0779412
   172   6 C      207   1 H                                       1.0783657
   177   6 C      208   1 H                                       1.0780775
   178   6 C      209   1 H                                       1.0777170
   180   7 N      210   1 H                                       1.0145643
   183   6 C      211   1 H                                       1.0845817
   184   6 C      212   1 H                                       1.0830805
   186   7 N      213   1 H                                       1.0129800
   187   6 C      214   1 H                                       1.0907506
   187   6 C      215   1 H                                       1.0900116
   187   6 C      216   1 H                                       1.0960113
   188   6 C      217   1 H                                       1.0849756
   189   6 C      218   1 H                                       1.0846142
   191   6 C      219   1 H                                       1.0779828
   192   6 C      220   1 H                                       1.0783343
   221   6 C      222   6 C                                       1.4091703
   222   6 C      223   6 C                                       1.4181643
   223   6 C      224   6 C                                       1.3688540
   224   6 C      225   6 C                                       1.4206654
   222   6 C      226   7 N                                       1.3627041
   225   6 C      226   7 N                                       1.3698579
   225   6 C      227   6 C                                       1.4013430
   228   6 C      229   6 C                                       1.3978556
   229   6 C      230   6 C                                       1.3817882
   230   6 C      231   6 C                                       1.4003988
   231   6 C      232   7 N                                       1.3870062
   232   7 N      233   6 C                                       1.4567886
   231   6 C      234   6 C                                       1.3978181
   228   6 C      235   6 C                                       1.3959718
   234   6 C      235   6 C                                       1.3845922
   227   6 C      236   6 C                                       1.3963695
   236   6 C      237   6 C                                       1.4514278
   237   6 C      238   6 C                                       1.3495254
   236   6 C      239   7 N                                       1.3622920
   238   6 C      240   6 C                                       1.4489506
   239   7 N      240   6 C                                       1.3480790
   240   6 C      241   6 C                                       1.4100442
   241   6 C      242   6 C                                       1.4090753
   242   6 C      243   6 C                                       1.4180750
   243   6 C      244   6 C                                       1.3688162
   244   6 C      245   6 C                                       1.4207224
   242   6 C      246   7 N                                       1.3627075
   245   6 C      246   7 N                                       1.3697954
   245   6 C      247   6 C                                       1.4015102
   248   6 C      249   6 C                                       1.3961820
   249   6 C      250   6 C                                       1.3843329
   250   6 C      251   6 C                                       1.3978891
   251   6 C      252   7 N                                       1.3871293
   252   7 N      253   6 C                                       1.4569628
   251   6 C      254   6 C                                       1.4002991
   248   6 C      255   6 C                                       1.3978294
   254   6 C      255   6 C                                       1.3819844
   247   6 C      256   6 C                                       1.3964689
   256   6 C      257   6 C                                       1.4514127
   257   6 C      258   6 C                                       1.3496111
   221   6 C      259   6 C                                       1.4101199
   258   6 C      259   6 C                                       1.4489305
   256   6 C      260   7 N                                       1.3623224
   259   6 C      260   7 N                                       1.3480919
   223   6 C      261   1 H                                       1.0780864
   224   6 C      262   1 H                                       1.0777730
   226   7 N      263   1 H                                       1.0145784
   229   6 C      264   1 H                                       1.0844770
   230   6 C      265   1 H                                       1.0849533
   232   7 N      266   1 H                                       1.0129269
   233   6 C      267   1 H                                       1.0960487
   233   6 C      268   1 H                                       1.0900105
   233   6 C      269   1 H                                       1.0907524
   234   6 C      270   1 H                                       1.0831079
   235   6 C      271   1 H                                       1.0847214
   237   6 C      272   1 H                                       1.0779361
   238   6 C      273   1 H                                       1.0783532
   243   6 C      274   1 H                                       1.0780809
   244   6 C      275   1 H                                       1.0777186
   246   7 N      276   1 H                                       1.0145672
   249   6 C      277   1 H                                       1.0845867
   250   6 C      278   1 H                                       1.0830967
   252   7 N      279   1 H                                       1.0129965
   253   6 C      280   1 H                                       1.0907356
   253   6 C      281   1 H                                       1.0900033
   253   6 C      282   1 H                                       1.0960044
   254   6 C      283   1 H                                       1.0849700
   255   6 C      284   1 H                                       1.0846112
   257   6 C      285   1 H                                       1.0779972
   258   6 C      286   1 H                                       1.0783784
   287   6 C      288   6 C                                       1.4091618
   288   6 C      289   6 C                                       1.4181478
   289   6 C      290   6 C                                       1.3688459
   290   6 C      291   6 C                                       1.4206827
   288   6 C      292   7 N                                       1.3626976
   291   6 C      292   7 N                                       1.3699073
   291   6 C      293   6 C                                       1.4014913
   294   6 C      295   6 C                                       1.3979173
   295   6 C      296   6 C                                       1.3818232
   296   6 C      297   6 C                                       1.4004147
   297   6 C      298   7 N                                       1.3869615
   298   7 N      299   6 C                                       1.4568109
   297   6 C      300   6 C                                       1.3978475
   294   6 C      301   6 C                                       1.3961322
   300   6 C      301   6 C                                       1.3844917
   293   6 C      302   6 C                                       1.3965228
   302   6 C      303   6 C                                       1.4514008
   303   6 C      304   6 C                                       1.3495841
   302   6 C      305   7 N                                       1.3622637
   304   6 C      306   6 C                                       1.4489170
   305   7 N      306   6 C                                       1.3481209
   306   6 C      307   6 C                                       1.4099373
   307   6 C      308   6 C                                       1.4091204
   308   6 C      309   6 C                                       1.4181290
   309   6 C      310   6 C                                       1.3687906
   310   6 C      311   6 C                                       1.4206512
   308   6 C      312   7 N                                       1.3626521
   311   6 C      312   7 N                                       1.3697630
   311   6 C      313   6 C                                       1.4014599
   314   6 C      315   6 C                                       1.3961722
   315   6 C      316   6 C                                       1.3842832
   316   6 C      317   6 C                                       1.3978776
   317   6 C      318   7 N                                       1.3872176
   318   7 N      319   6 C                                       1.4570258 (max)
   317   6 C      320   6 C                                       1.4002579
   314   6 C      321   6 C                                       1.3977850
   320   6 C      321   6 C                                       1.3820372
   313   6 C      322   6 C                                       1.3963471
   322   6 C      323   6 C                                       1.4513658
   323   6 C      324   6 C                                       1.3495846
   287   6 C      325   6 C                                       1.4101262
   324   6 C      325   6 C                                       1.4489828
   322   6 C      326   7 N                                       1.3623771
   325   6 C      326   7 N                                       1.3479701
   289   6 C      327   1 H                                       1.0780852
   290   6 C      328   1 H                                       1.0777612
   292   7 N      329   1 H                                       1.0145784
   295   6 C      330   1 H                                       1.0844804
   296   6 C      331   1 H                                       1.0849616
   298   7 N      332   1 H                                       1.0129321
   299   6 C      333   1 H                                       1.0960575
   299   6 C      334   1 H                                       1.0900085
   299   6 C      335   1 H                                       1.0907414
   300   6 C      336   1 H                                       1.0831004
   301   6 C      337   1 H                                       1.0847172
   303   6 C      338   1 H                                       1.0779470
   304   6 C      339   1 H                                       1.0783714
   309   6 C      340   1 H                                       1.0780684
   310   6 C      341   1 H                                       1.0777155
   312   7 N      342   1 H                                       1.0145720
   315   6 C      343   1 H                                       1.0845767
   316   6 C      344   1 H                                       1.0830862
   318   7 N      345   1 H                                       1.0130154
   319   6 C      346   1 H                                       1.0907446
   319   6 C      347   1 H                                       1.0899937
   319   6 C      348   1 H                                       1.0960021
   320   6 C      349   1 H                                       1.0849737
   321   6 C      350   1 H                                       1.0846165
   323   6 C      351   1 H                                       1.0779913
   324   6 C      352   1 H                                       1.0783667
   353   6 C      354   6 C                                       1.4091754
   354   6 C      355   6 C                                       1.4181260
   355   6 C      356   6 C                                       1.3688076
   356   6 C      357   6 C                                       1.4206936
   354   6 C      358   7 N                                       1.3626245
   357   6 C      358   7 N                                       1.3698916
   357   6 C      359   6 C                                       1.4016362
   360   6 C      361   6 C                                       1.3980878
   361   6 C      362   6 C                                       1.3817544
   362   6 C      363   6 C                                       1.4004164
   363   6 C      364   7 N                                       1.3868961
   364   7 N      365   6 C                                       1.4569539
   363   6 C      366   6 C                                       1.3978999
   360   6 C      367   6 C                                       1.3963998
   366   6 C      367   6 C                                       1.3843643
   359   6 C      368   6 C                                       1.3967985
   368   6 C      369   6 C                                       1.4514292
   369   6 C      370   6 C                                       1.3495359
   368   6 C      371   7 N                                       1.3621083
   370   6 C      372   6 C                                       1.4489672
   371   7 N      372   6 C                                       1.3483793
   372   6 C      373   6 C                                       1.4097568
   373   6 C      374   6 C                                       1.4089069
   374   6 C      375   6 C                                       1.4182730
   375   6 C      376   6 C                                       1.3687591
   376   6 C      377   6 C                                       1.4206751
   374   6 C      378   7 N                                       1.3627641
   377   6 C      378   7 N                                       1.3697947
   377   6 C      379   6 C                                       1.4013411
   380   6 C      381   6 C                                       1.3960731
   381   6 C      382   6 C                                       1.3843610
   382   6 C      383   6 C                                       1.3978421
   383   6 C      384   7 N                                       1.3872020
   384   7 N      385   6 C                                       1.4568660
   383   6 C      386   6 C                                       1.4003124
   380   6 C      387   6 C                                       1.3976261
   386   6 C      387   6 C                                       1.3821278
   379   6 C      388   6 C                                       1.3962180
   388   6 C      389   6 C                                       1.4513941
   389   6 C      390   6 C                                       1.3495811
   353   6 C      391   6 C                                       1.4099422
   390   6 C      391   6 C                                       1.4490684
   388   6 C      392   7 N                                       1.3623083
   391   6 C      392   7 N                                       1.3479416
   355   6 C      393   1 H                                       1.0780725
   356   6 C      394   1 H                                       1.0777418
   358   7 N      395   1 H                                       1.0145681
   361   6 C      396   1 H                                       1.0844681
   362   6 C      397   1 H                                       1.0849578
   364   7 N      398   1 H                                       1.0129855
   365   6 C      399   1 H                                       1.0961201
   365   6 C      400   1 H                                       1.0900097
   365   6 C      401   1 H                                       1.0907987
   366   6 C      402   1 H                                       1.0831169
   367   6 C      403   1 H                                       1.0847306
   369   6 C      404   1 H                                       1.0779256
   370   6 C      405   1 H                                       1.0783181
   375   6 C      406   1 H                                       1.0781022
   376   6 C      407   1 H                                       1.0777328
   378   7 N      408   1 H                                       1.0145959
   381   6 C      409   1 H                                       1.0845807
   382   6 C      410   1 H                                       1.0830773
   384   7 N      411   1 H                                       1.0129574
   385   6 C      412   1 H                                       1.0907446
   385   6 C      413   1 H                                       1.0900208
   385   6 C      414   1 H                                       1.0960227
   386   6 C      415   1 H                                       1.0849781
   387   6 C      416   1 H                                       1.0846124
   389   6 C      417   1 H                                       1.0780173
   390   6 C      418   1 H                                       1.0783860

 * 4 distinct bonds (by element types)

   Z      Z             #   av. dist./Å        max./Å        min./Å
   1 H    6 C         134     1.0842489     1.0961201     1.0777155
   6 C    6 C         200     1.3923259     1.4518625     1.2226381
   1 H    7 N          24     1.0137819     1.0147605     1.0129221
   6 C    7 N          72     1.3811610     1.4570258     1.3479416


optimized geometry written to: xtbopt.xyz


           -------------------------------------------------
          | TOTAL ENERGY             -673.042991288489 Eh   |
          | GRADIENT NORM               0.000368046208 Eh/α |
          | HOMO-LUMO GAP               0.634977229886 eV   |
           -------------------------------------------------

------------------------------------------------------------------------
 * finished run on 2022/07/30 at 23:44:13.377     
------------------------------------------------------------------------
 total:
 * wall-time:     0 d,  0 h, 20 min, 36.715 sec
 *  cpu-time:     0 d,  0 h, 20 min, 30.628 sec
 * ratio c/w:     0.995 speedup
 SCF:
 * wall-time:     0 d,  0 h,  0 min, 29.765 sec
 *  cpu-time:     0 d,  0 h,  0 min, 29.617 sec
 * ratio c/w:     0.995 speedup
 ANC optimizer:
 * wall-time:     0 d,  0 h, 20 min,  6.437 sec
 *  cpu-time:     0 d,  0 h, 20 min,  0.517 sec
 * ratio c/w:     0.995 speedup

