178
 energy: -289.954990645813 gnorm: 2.605164062359 xtb: 6.5.1 (b24c23e)
C           24.27687900000000       -0.00809400000000       -0.05457500000000
C           25.00537200000000       -1.26627200000000        0.51002900000000
C           24.39676300000000       -2.43079100000000        0.91974300000000
C           25.41855100000000       -3.28205400000000        1.41459100000000
C           26.61662000000000       -2.60465900000000        1.29673800000000
N           26.35801300000000       -1.39752900000000        0.69705000000000
C           28.03910900000000       -3.10677200000000        1.78627000000000
C           29.16894100000000       -2.43154600000000        1.44142800000000
C           30.47357900000000       -2.82778500000000        1.93061900000000
C           31.37594400000000       -1.97752600000000        1.45531600000000
N           29.36521700000000       -1.32528200000000        0.65696000000000
C           30.69676900000000       -1.00049100000000        0.62696900000000
C           31.36441400000000        0.00201500000000       -0.00412500000000
C           30.58676400000000        1.03488900000000       -0.92482000000000
C           31.12715499999999        1.77027600000000       -1.96178500000000
C           30.10236300000000        2.60391000000000       -2.47463500000000
C           28.96211800000000        2.34655400000000       -1.74396000000000
C           27.55281800000000        3.05227000000000       -1.92737300000000
C           27.52557200000000        4.39058600000000       -2.56025000000000
C           27.15289600000000        4.53576400000000       -3.90254800000000
C           27.14195200000000        5.79777400000000       -4.49948600000000
C           27.50671000000000        6.92221400000000       -3.75795300000000
C           27.88209300000000        6.78553000000000       -2.42075400000000
C           27.89237500000000        5.52309800000000       -1.82428000000000
C           26.42719100000000        2.43097700000000       -1.48815300000000
C           25.10531100000000        3.01973100000000       -1.61123200000000
C           24.21949500000000        2.16761300000000       -1.10380800000000
C           24.94111900000000        1.01284200000000       -0.62780500000000
N           26.26221000000000        1.22065500000000       -0.87385500000000
N           29.25278200000000        1.35258600000000       -0.83932800000000
C           28.07657400000000       -4.29860400000000        2.66712000000000
C           27.82421800000000       -4.17013500000000        4.03805700000000
C           27.84878200000000       -5.29304900000000        4.86729300000000
C           28.12483900000000       -6.55103800000000        4.32963100000000
C           28.37660100000000       -6.68735500000000        2.96372300000000
C           28.35161700000000       -5.56429800000000        2.13476900000000
H           23.19904400000000        0.04027300000000        0.04355200000000
H           23.33839900000000       -2.63754000000000        0.88267500000000
H           25.29136400000000       -4.26882900000000        1.83374300000000
H           27.05922700000000       -0.70813800000000        0.43727200000000
H           30.68465500000000       -3.65924400000000        2.57922200000000
H           32.42947900000000       -2.02783400000000        1.66067800000000
H           32.14907000000000        1.72434500000000       -2.30601600000000
H           30.18687500000000        3.31561800000000       -3.28203300000000
H           26.86866200000000        3.65191700000000       -4.46973200000000
H           26.84766700000000        5.89588800000000       -5.53938100000000
H           27.49791799999999        7.90377700000000       -4.22090900000000
H           28.16712600000000        7.65513700000000       -1.83732000000000
H           28.18340100000000        5.40579400000000       -0.78263700000000
H           24.87746300000000        3.98031000000000       -2.03695800000000
H           23.15599200000000        2.31193700000000       -1.04601200000000
H           28.56948500000000        0.89118500000000       -0.24438200000000
H           27.61189700000000       -3.18435200000000        4.44626500000000
H           27.65353600000000       -5.17875900000000        5.92869800000000
H           28.14549800000000       -7.42360500000000        4.97470600000000
H           28.59440100000000       -7.66187400000000        2.53876600000000
H           28.54956300000000       -5.65716800000000        1.06909600000000
C           59.84598100000000       -0.03929100000000       -0.03480400000000
C           59.11748799999999        1.00839200000000       -0.93154700000000
C           59.72609799999999        1.87602500000000       -1.80971700000000
C           58.70430900000000        2.68691600000000       -2.36826600000000
C           57.50623999999999        2.29116500000000       -1.80600800000000
N           57.76484700000000        1.23354800000000       -0.97040500000000
C           56.08375100000000        2.94819900000000       -2.05109100000000
C           54.95392000000000        2.34810700000000       -1.58769500000000
C           53.64928099999999        2.95963500000000       -1.73718000000000
C           52.74691600000000        2.16684700000000       -1.17119500000000
N           54.75764300000000        1.16645200000000       -0.92218600000000
C           53.42609099999999        1.00067900000000       -0.64128000000000
C           52.75844599999999        0.00201500000000       -0.00412500000000
C           53.53609600000000       -1.27150000000000        0.53686300000000
C           52.99570500000000       -2.52316300000000        0.75919700000000
C           54.02049699999999       -3.34280800000000        1.29411900000000
C           55.16074300000000       -2.57219400000000        1.37331500000000
C           56.57004200000000       -3.03932200000000        1.93319600000000
C           56.59728799999999       -4.18295400000000        2.87326300000000
C           56.96996399999999       -5.45877200000000        2.43152500000000
C           56.98090800000000       -6.53733000000000        3.31793200000000
C           56.61614999999999       -6.34678100000000        4.65132100000000
C           56.24076700000000       -5.07920100000000        5.09856300000000
C           56.23048600000000       -4.00088100000000        4.21157700000000
C           57.69567000000000       -2.37690700000000        1.55886100000000
C           59.01754900000000       -2.73954500000000        2.03873000000000
C           59.90336499999999       -1.91691500000000        1.48477600000000
C           59.18174200000000       -0.99349700000000        0.64372000000000
N           57.86065000000000       -1.30471600000000        0.72660800000000
N           54.87007800000000       -1.32981300000000        0.86065200000000
C           56.04628600000000        4.25354100000000       -2.75283300000000
C           56.29864300000000        5.43843700000000       -2.05141100000000
C           56.27407800000000        6.66768400000000       -2.71286500000000
C           55.99802100000000        6.71850600000000       -4.07999100000000
C           55.74626000000000        5.54150800000000       -4.78636300000000
C           55.77124300000000        4.31245600000000       -4.12466000000000
H           60.92381600000000        0.02879600000000        0.05082500000000
H           60.78446200000000        1.93076400000000       -2.01250500000000
H           58.83149599999999        3.48720700000000       -3.08167300000000
H           57.06363300000000        0.70433200000000       -0.45788600000000
H           53.43820599999999        3.90111400000000       -2.21218300000000
H           51.69338100000000        2.37403200000000       -1.12902100000000
H           51.97379000000000       -2.81484300000000        0.57071100000000
H           53.93598500000000       -4.37676400000000        1.59304200000000
H           57.25419800000000       -5.59436600000000        1.39013400000000
H           57.27519300000000       -7.51959300000000        2.96272900000000
H           56.62494200000000       -7.18445800000000        5.34131500000000
H           55.95573500000000       -4.92283300000000        6.13401500000000
H           55.93946000000000       -3.00884700000000        4.55017300000000
H           59.24539699999999       -3.53459700000000        2.72564200000000
H           60.96686900000000       -1.92626100000000        1.63996100000000
H           55.55337500000000       -0.59483300000000        0.69738800000000
H           56.51096300000000        5.38675300000000       -0.98570400000000
H           56.46932400000000        7.57872300000000       -2.15640300000000
H           55.97736199999999        7.67434300000000       -4.59367400000000
H           55.52845900000000        5.57323700000000       -5.84903400000000
H           55.57329699999999        3.38841200000000       -4.66357400000000
C           34.72223100000000        0.01474600000000       -0.00160000000000
C           33.46996100000000       -0.00443500000000       -0.00594800000000
C           36.03590000000000        0.01398000000000        0.00033200000000
C           37.53903300000000       -0.00443500000000       -0.00594800000000
C           47.92216700000000        0.01474600000000       -0.00160000000000
C           46.66989700000000       -0.00443500000000       -0.00594800000000
C           49.23583500000000        0.01398000000000        0.00033200000000
C           50.73896899999999       -0.00443500000000       -0.00594800000000
C           38.48447600000000       -0.00346800000000        0.00924700000000
C           39.27812800000000        1.10635500000000        0.81520700000000
C           38.77140200000000        1.93109700000000        1.79910000000000
C           39.80830100000000        2.81979600000000        2.18234000000000
C           40.91774200000000        2.50499400000000        1.42609600000000
N           40.60679099999999        1.41421900000000        0.65329600000000
C           42.30736799999999        3.26510700000000        1.43474000000000
C           43.44217600000000        2.61126500000000        1.07108700000000
C           44.72910700000000        3.27258100000000        1.00514900000000
C           45.63706899999999        2.38429400000000        0.61547000000000
N           43.65020700000000        1.31261100000000        0.69615900000000
C           44.97471600000000        1.11135900000000        0.41298200000000
C           45.63851400000000       -0.00346800000000        0.00924700000000
C           44.84487700000000       -1.35939100000000       -0.19763200000000
C           45.35164400000000       -2.63760200000000       -0.07767100000000
C           44.31474200000000       -3.53909900000000       -0.42975000000000
C           43.20526000000000       -2.78362200000000       -0.74623700000000
C           41.81560799999999       -3.33034400000000       -1.27431000000000
C           41.82473400000000       -4.60856400000000       -2.02413800000000
C           42.30279500000000       -4.64881800000000       -3.33902300000000
C           42.32780000000000       -5.85381000000000       -4.04404300000000
C           41.87701200000000       -7.02673200000000       -3.43701600000000
C           41.40206900000000       -6.99622800000000       -2.12533200000000
C           41.37801199999999       -5.79118000000000       -1.42073700000000
C           40.68080999999999       -2.60964500000000       -1.07339700000000
C           39.39387200000000       -3.03368100000000       -1.58513500000000
C           38.48591399999999       -2.12794800000000       -1.23793300000000
C           39.14827400000000       -1.08020300000000       -0.48721500000000
N           40.47278600000000       -1.42238400000000       -0.42727100000000
N           43.51619500000000       -1.46457400000000       -0.52912000000000
C           42.29812200000000        4.70137600000000        1.79974300000000
C           41.81985899999999        5.65409100000000        0.89272300000000
C           41.79453899999999        7.00676100000000        1.23816100000000
C           42.24521599999999        7.41453400000000        2.49436600000000
C           42.72038899999999        6.47101300000000        3.40595100000000
C           42.74476499999999        5.11859800000000        3.06016900000000
H           37.76297000000000        1.91290500000000        2.18348200000000
H           39.74769599999999        3.61343600000000        2.91181000000000
H           41.26789500000000        0.89160900000000        0.08596300000000
H           44.92374500000000        4.30765900000000        1.22225800000000
H           46.68151100000000        2.59508700000000        0.47575700000000
H           46.36010400000000       -2.89484800000000        0.20842100000000
H           44.37537300000000       -4.61634500000000       -0.46883600000000
H           42.65311000000000       -3.72959400000000       -3.80353800000000
H           42.69954300000000       -5.86942300000000       -5.06356800000000
H           41.89579300000000       -7.96290600000000       -3.98576400000000
H           41.04908800000000       -7.90392400000000       -1.64663900000000
H           41.00851100000000       -5.75516500000000       -0.39807800000000
H           39.19922900000000       -3.92251700000000       -2.15828000000000
H           37.44147200000000       -2.17967200000000       -1.48547300000000
H           42.85507000000000       -0.69408200000000       -0.56521700000000
H           41.46959100000000        5.32663100000000       -0.08377900000000
H           41.42261100000000        7.73436200000000        0.52393000000000
H           42.22615300000000        8.46614500000000        2.76204300000000
H           43.07326700000000        6.78031300000000        4.38445500000000
H           43.11440100000000        4.37427700000000        3.76231800000000
178
 energy: -290.659960371761 gnorm: 0.598258445014 xtb: 6.5.1 (b24c23e)
C           24.28718313304251       -0.02423214257567       -0.04723218848236
C           25.00125371126611       -1.25515553617492        0.50471856585781
C           24.39878784370346       -2.43394910713893        0.92244740161203
C           25.41561385493425       -3.28055006575676        1.41498408470982
C           26.62889268282314       -2.60725189241135        1.29952204137604
N           26.35820285747281       -1.39717908354005        0.69768301192665
C           28.02204731664609       -3.09915309049363        1.77945779664202
C           29.17188727553676       -2.42810201817746        1.43983579979952
C           30.47455164077161       -2.83085223751993        1.93302642441132
C           31.38036569876379       -1.97835020560733        1.45624772764512
N           29.36231994904600       -1.32091723198561        0.65486183114319
C           30.70027048546877       -1.00088581357877        0.62799908182393
C           31.37046764421491        0.01224835674520       -0.01692036847921
C           30.59552131405618        1.02531202515166       -0.91705163168333
C           31.12635898322693        1.77353702773383       -1.96242927382902
C           30.10527006014157        2.60324966211665       -2.47309561773110
C           28.95057326482776        2.35028552989071       -1.74409266074326
C           27.56923457596091        3.04292299259298       -1.92415396254457
C           27.52809286014135        4.38865854054890       -2.56050418351898
C           27.15279823248011        4.53636844782919       -3.90176256986638
C           27.14222606734151        5.79705804775265       -4.49756432406019
C           27.50672815145982        6.92087939509658       -3.75729427019081
C           27.88150970945522        6.78362945460843       -2.42132409570074
C           27.89254585156713        5.52292075987355       -1.82537579544836
C           26.42460307303981        2.42881724074596       -1.48593174808456
C           25.10425615886111        3.02365850734506       -1.61319495909086
C           24.21610874913711        2.16976878105004       -1.10444802970537
C           24.94419336560402        1.01553850513394       -0.62875589191317
N           26.26691996332307        1.21763912513617       -0.87249723202785
N           29.25395620050172        1.35252848606409       -0.83822487830027
C           28.07424041346254       -4.29766260357018        2.66557518231078
C           27.82410879316872       -4.17096415772802        4.03731098206470
C           27.84921455168450       -5.29271609911427        4.86529815585843
C           28.12481937691175       -6.54982996247675        4.32875260581338
C           28.37641466406639       -6.68533512268287        2.96405083072947
C           28.35162803043741       -5.56386604234079        2.13570533518027
H           23.20237457033368        0.03701457086488        0.04404866347635
H           23.33922015197517       -2.63832070624156        0.88304803301033
H           25.29078264748890       -4.26831054560956        1.83339062736053
H           27.05872899078890       -0.70867821372722        0.43754428571382
H           30.68370116490101       -3.66111712688398        2.58039948536559
H           32.43206785868034       -2.02640148071546        1.65996922961911
H           32.14856798910753        1.72489413828975       -2.30607755943241
H           30.18751136784865        3.31500322476580       -3.28154349607228
H           26.86898304257581        3.65289359735392       -4.46954017488196
H           26.84793193344266        5.89595329243808       -5.53866019833244
H           27.49796008088173        7.90320696917499       -4.22065700184063
H           28.16686873079649        7.65460247127925       -1.83784327709920
H           28.18325686691106        5.40620272233939       -0.78355481348331
H           24.87830107591758        3.98243651541208       -2.03818558821603
H           23.15396256979591        2.31151299614525       -1.04562633873935
H           28.57033594456029        0.89157296430896       -0.24476452878367
H           27.61197517346399       -3.18538075298669        4.44618909036192
H           27.65370765528625       -5.17898414523925        5.92796523061916
H           28.14544938908730       -7.42310574149617        4.97432448461118
H           28.59420129399944       -7.66125422160438        2.53919315916923
H           28.54930937435761       -5.65744080499110        1.07007718109327
C           59.83571793350903       -0.02584705793588       -0.04618825207446
C           59.12160747784786        0.99893447115795       -0.92385620771318
C           59.72409964420500        1.87972158675417       -1.81135506990509
C           58.70711754335333        2.68664942503803       -2.36674967756245
C           57.49414480770980        2.29477748839109       -1.80717983777575
N           57.76468205602346        1.23400080683117       -0.96980964346526
C           56.10052588230297        2.93875785355758       -2.04707894454432
C           54.95105705667056        2.34533415137945       -1.58544995953313
C           53.64837332186418        2.96319009851774       -1.73895934824623
C           52.74255287499344        2.16810564913426       -1.17156535692915
N           54.76002807151762        1.16234907695144       -0.91884108058333
C           53.42266019353260        1.00229391346866       -0.64115311038534
C           52.74826385948609       -0.01396001460470       -0.00021524418193
C           53.52718443982960       -1.26083516138046        0.53141846580638
C           52.99649876877244       -2.52505992907643        0.76177573909765
C           54.01775783877073       -3.34115044755739        1.29421785208278
C           55.17213389103836       -2.57395662914436        1.37660067789030
C           56.55374963920517       -3.03242850357161        1.92615775778910
C           56.59477614690302       -4.18234618586208        2.87141852817301
C           56.97006151791231       -5.45831588142837        2.43241135923077
C           56.98063395136595       -6.53528560941788        3.31810384781370
C           56.61613200524763       -6.34561642233289        4.65039642989500
C           56.24134787175035       -5.07890364470769        5.09660175310980
C           56.23031438264103       -4.00180167243591        4.21095229360854
C           57.69823507105421       -2.37403604727696        1.55787132010497
C           59.01860925448579       -2.74299550900904        2.04144437064728
C           59.90674933914351       -1.91841909746231        1.48645675399347
C           59.17870739398037       -0.99548996231886        0.64573539775623
N           57.85591790119013       -1.30218515667531        0.72443817569129
N           54.86877257417682       -1.32873687769536        0.86101725934276
C           56.04860551154301        4.25173937588857       -2.75262488777128
C           56.29875019844118        5.43811526030012       -2.05248283625212
C           56.27364689053558        6.66573733182517       -2.71341330460902
C           55.99804038593915        6.71719633815157       -4.07927428768065
C           55.74644777088202        5.54093974188521       -4.78439615436550
C           55.77123816320091        4.31311759569230       -4.12386138834828
H           60.92049529311821        0.03063414659590        0.04810343004605
H           60.78364651172927        1.93142787202932       -2.01304314650969
H           58.83206438249216        3.48667523792261       -3.08135405351129
H           57.06413771651849        0.70481252603363       -0.45826038125618
H           53.43915668445786        3.90299496252012       -2.21337942437715
H           51.69076652306317        2.37274894515364       -1.12802098048213
H           51.97426644937710       -2.81509885151870        0.57118665491473
H           53.93535946179284       -4.37605723313280        1.59271050652213
H           57.25387747209376       -5.59460888250777        1.39109937848077
H           57.27492832473931       -7.51897200132163        2.96309587889554
H           56.62489988568902       -7.18398903451317        5.34090870109127
H           55.95599178985123       -4.92307939851329        6.13331069064084
H           55.93960422728335       -3.00985293366111        4.55015130236237
H           59.24456214382725       -3.53661719390814        2.72704357873960
H           60.96890185725437       -1.92573281773298        1.63974380199391
H           55.55250425595013       -0.59533847832605        0.69756632779757
H           56.51088422613692        5.38712447786500       -0.98666748549145
H           56.46915297552577        7.57816033999134       -2.15691927361373
H           55.97741077723940        7.67378781523845       -4.59338713788081
H           55.52865808373783        5.57336012446990       -5.84829316018454
H           55.57354975185292        3.38941662690605       -4.66340054764078
C           34.71263011232359        0.01434482892493       -0.00188329923341
C           33.45036265522578       -0.00403931522887       -0.00637841314630
C           36.03224344634265        0.01547563021981        0.00039567163711
C           37.34962318567221        0.00658645533558       -0.00517361739713
C           47.97363657640803        0.01324188379849       -0.00298109918648
C           46.76808147083772       -0.01272564645040       -0.01120756839578
C           49.28664341438366        0.01380482741368        0.00043978385969
C           50.72012404446384       -0.00420179969376       -0.00581184174633
C           38.61663041161702        0.00621652177242        0.02046169154118
C           39.29275006699905        1.10754444248243        0.81845733688626
C           38.77288935278069        1.93287029743008        1.79814803009078
C           39.80723072293662        2.82009929493642        2.18067437045944
C           40.92834299133861        2.51033143705724        1.42699512332645
N           40.61051319517149        1.41793925511495        0.65294365612319
C           42.29385514945368        3.25584966089163        1.43359132661693
C           43.44351678613091        2.61263693405308        1.07094883195883
C           44.72927878867583        3.27782449669112        1.00665160257185
C           45.63917199759273        2.38438882082196        0.61507841779020
N           43.64359179210960        1.30996822209323        0.69554125773825
C           44.94402947309940        1.12894110525914        0.41808624939036
C           45.53700769179171       -0.01818202213640        0.01015576436458
C           44.83496611850396       -1.35892139797099       -0.19579534951615
C           45.35016034177162       -2.63846442302143       -0.07968845223191
C           44.31617690232303       -3.53810472024882       -0.43112021907206
C           43.19458646728792       -2.78776762402909       -0.74940722336285
C           41.82961199416539       -3.32293884446307       -1.26857595068629
C           41.82690379269248       -4.60767010209386       -2.02228067693219
C           42.30297584383273       -4.64958402685926       -3.33823193977482
C           42.32708305189950       -5.85315975256224       -4.04217845653331
C           41.87699350680129       -7.02544430591809       -3.43628376043059
C           41.40246875696784       -6.99421799100860       -2.12578057092798
C           41.37791356395186       -5.79080736674888       -1.42164927587561
C           40.67939722005208       -2.61112388238891       -1.07491698503664
C           39.39418471897860       -3.03872147150721       -1.58779793216026
C           38.48414922883040       -2.12710127194055       -1.23794884757924
C           39.18536790011831       -1.10006385399137       -0.49731377353303
N           40.48017700533445       -1.42082809027676       -0.42577503633953
N           43.51363442436710       -1.46632229573835       -0.53142527047971
C           42.29593398621411        4.69945150023777        1.80039644078145
C           41.81967672357939        5.65411202384083        0.89383548587040
C           41.79524593462529        7.00500015464101        1.23902521463066
C           42.24523455585171        7.41310779854615        2.49398378587892
C           42.72000048432788        6.46989732760134        3.40422136208599
C           42.74485024344001        5.11898702992371        3.05924625038686
H           37.76355148941714        1.91286516723373        2.18295164743811
H           39.74700461418335        3.61287873286084        2.91138920081069
H           41.26766860404041        0.89227290619968        0.08634652717241
H           44.92303326118412        4.30998895906719        1.22307519721953
H           46.68348399565645        2.59315809899780        0.47488847370445
H           46.35944576336396       -2.89467625290370        0.20807405186888
H           44.37603253863952       -4.61568239777484       -0.46873023865117
H           42.65290988687751       -3.73055292457475       -3.80337877782373
H           42.69920945581181       -5.86952150900011       -5.06283790011210
H           41.89581347594062       -7.96236816134140       -3.98542867093808
H           41.04940735606860       -7.90333538516164       -1.64706282166949
H           41.00888824083258       -5.75553613673440       -0.39895404183001
H           39.19993500524419       -3.92474830766109       -2.15932932121786
H           37.43951889560098       -2.17734930174462       -1.48452461626746
H           42.85553286965112       -0.69477540846071       -0.56538898859282
H           41.46979283278601        5.32720542424278       -0.08299315171377
H           41.42294323413051        7.73393419322240        0.52451419781454
H           42.22613283255299        8.46553284188414        2.76190473702084
H           43.07294949733377        6.78019856825272        4.38374367621002
H           43.11402525790948        4.37515834854528        3.76194900347823
178
 energy: -290.848209509085 gnorm: 0.319768230060 xtb: 6.5.1 (b24c23e)
C           24.31814415048309       -0.05432183298124       -0.03401931593568
C           25.00102901206025       -1.24152836939248        0.49832081449991
C           24.40587646951042       -2.43595678215770        0.92979503177486
C           25.41451949211160       -3.27423087684987        1.41891583298941
C           26.64704390204834       -2.60748974995825        1.30186964247160
N           26.36072840039514       -1.39552411567549        0.69931145377455
C           27.99096329117731       -3.07602513362288        1.76124214216394
C           29.17371781108818       -2.41432425481518        1.43397709796895
C           30.47581148520106       -2.83331370388438        1.93567961321933
C           31.39146182769789       -1.97919441569755        1.45710592678944
N           29.36687412476705       -1.30362038779075        0.65092552934152
C           30.71705141880523       -0.99426699180770        0.62509969359232
C           31.39284758920320        0.02455347412564       -0.05027793201025
C           30.61566865652959        1.00960396710794       -0.90490252225905
C           31.12715577245283        1.78109620888782       -1.95809559255643
C           30.10986630179479        2.60266342839126       -2.46384692424303
C           28.93806538739114        2.34974400618657       -1.73948678324985
C           27.60321450951118        3.01848623644661       -1.91405883572870
C           27.54344392064892        4.37518424222215       -2.55942083031239
C           27.15429475876028        4.53363877399107       -3.89658848872343
C           27.14207588104372        5.79335796616278       -4.49125196316472
C           27.50670501994424        6.91644504548845       -3.75521180629748
C           27.87941098374968        6.77696880209911       -2.42192886886953
C           27.89498614169989        5.51724792408759       -1.82803119681074
C           26.42789304495415        2.42386005256108       -1.47944407168091