114
 energy: -192.362996595040 gnorm: 0.362633964550 xtb: 6.5.1 (b24c23e)
Co          15.22859300000000        0.04847700000000        0.00429200000000
C           11.89203000000000       -0.10759300000000       -0.00612100000000
C           12.55613900000000       -1.25979700000000       -0.13394900000000
C           11.90646100000000       -2.55653900000000       -0.28433900000000
C           12.84829000000000       -3.48025100000000       -0.33173100000000
C           14.15311900000000       -2.81583000000000       -0.21226300000000
N           13.97483200000000       -1.40425100000000       -0.09182700000000
C           15.34332200000000       -3.44755700000000       -0.16708400000000
C           16.63695500000000       -2.73151900000000       -0.01661600000000
C           17.92749800000000       -3.40631700000000        0.16829600000000
C           18.86221400000000       -2.47984100000000        0.22609000000000
N           16.77757300000000       -1.44246500000000       -0.07658400000000
C           18.17707800000000       -1.20242800000000        0.07068900000000
C           18.77165200000000        0.00000000000000        0.00000000000000
C           18.01063800000000        1.25758400000000       -0.17891000000000
C           18.54760600000000        2.40265400000000       -0.58111400000000
C           17.50387100000000        3.40740500000000       -0.53905700000000
C           16.39785300000000        2.81096000000000       -0.10976300000000
C           15.11274500000000        3.51297400000000        0.14144000000000
C           15.13186500000000        4.98777400000000        0.29940100000000
C           14.47260100000000        5.81372600000000       -0.62684700000000
C           14.51130400000000        7.20384000000000       -0.48175000000000
C           15.21285900000000        7.77779900000000        0.58222500000000
C           15.87890200000000        6.96256500000000        1.50172400000000
C           15.84210800000000        5.57191200000000        1.36080000000000
C           13.94769700000000        2.84297100000000        0.23014300000000
C           12.63533800000000        3.42390700000000        0.50892600000000
C           11.77374500000000        2.42683500000000        0.45644200000000
C           12.52672700000000        1.20988700000000        0.15815900000000
N           13.79487800000000        1.43999400000000        0.02472600000000
N           16.62761200000000        1.42233400000000        0.13726000000000
C           15.38210300000000       -4.92246600000000       -0.25899100000000
C           15.28111500000000       -5.55461800000000       -1.50788700000000
C           15.31920700000000       -6.94986700000000       -1.59247900000000
C           15.45912300000000       -7.71840000000000       -0.43287900000000
C           15.56097100000000       -7.09281800000000        0.81337100000000
C           15.52259000000000       -5.69786700000000        0.90222300000000
H           10.80862800000000       -0.13619400000000       -0.00911000000000
H           10.84213500000000       -2.74625500000000       -0.33886300000000
H           12.66285600000000       -4.54211800000000       -0.42951600000000
H           18.10491700000000       -4.47116800000000        0.24040100000000
H           19.92088400000000       -2.66432500000000        0.35094200000000
H           19.57694600000000        2.57033700000000       -0.86827500000000
H           17.61672099999999        4.45404800000000       -0.79047500000000
H           13.93374200000000        5.38041500000000       -1.46052800000000
H           14.00003200000000        7.83627900000000       -1.19590400000000
H           15.24275900000000        8.85406800000000        0.69252000000000
H           16.42470300000000        7.40832600000000        2.32319600000000
H           16.36319700000000        4.95001900000000        2.07841900000000
H           12.39049300000000        4.45611600000000        0.72186400000000
H           10.70646900000000        2.50830400000000        0.61531700000000
H           15.17304000000000       -4.96706900000000       -2.41134600000000
H           15.24064300000000       -7.43532900000000       -2.55660200000000
H           15.48876100000000       -8.79821800000000       -0.50001700000000
H           15.66956800000000       -7.68882700000000        1.71022900000000
H           15.60222700000000       -5.22158200000000        1.87173300000000
Co          26.31053199999999       -0.04861700000000        0.00218300000000
C           29.64709500000000        0.10775800000000       -0.00144300000000
C           28.98298500000000        1.26442600000000       -0.07912000000000
C           29.63266400000000        2.56647400000000       -0.17306100000000
C           28.69083500000000        3.49137300000000       -0.18029900000000
C           27.38600600000000        2.82239200000000       -0.08979500000000
N           27.56429200000000        1.40691400000000       -0.03076500000000
C           26.19580200000000        3.45156000000000       -0.01722700000000
C           24.90217000000000        2.72966400000000        0.10200800000000
C           23.61162600000000        3.39579700000000        0.31604600000000
C           22.67691100000000        2.46768500000000        0.33355600000000
N           24.76155200000000        1.44442900000000       -0.01387700000000
C           23.36204600000000        1.19822500000000        0.12283400000000
C           22.76747300000000        0.00000000000000        0.00000000000000
C           23.52848700000000       -1.24862900000000       -0.23334800000000
C           22.99151900000000       -2.37515500000000       -0.68489400000000
C           24.03525400000000       -3.38078400000000       -0.68650400000000
C           25.14127200000000       -2.80354300000000       -0.23171700000000
C           26.42638000000000       -3.51580200000000       -0.01123300000000
C           26.40726000000000       -4.99607000000000        0.08254000000000
C           27.06652300000000       -5.78102400000000       -0.87869900000000
C           27.02782100000000       -7.17612700000000       -0.79410000000000
C           26.32626600000000       -7.79574400000000        0.24394900000000
C           25.66022200000000       -7.02120600000000        1.19798000000000
C           25.69701700000000       -5.62574600000000        1.11757400000000
C           27.59142800000000       -2.85028300000000        0.10647800000000
C           28.90378700000000       -3.44277700000000        0.35977300000000
C           29.76538000000000       -2.44436600000000        0.35063400000000
C           29.01239800000000       -1.21561300000000        0.10547400000000
N           27.74424700000000       -1.43971000000000       -0.03782500000000
N           24.91151300000000       -1.42695200000000        0.07537000000000
C           26.15702100000000        4.92907000000000       -0.04500400000000
C           26.25801000000000        5.61485400000000       -1.26527300000000
C           26.21991800000000        7.01246000000000       -1.28920100000000
C           26.08000200000000        7.72991600000000       -0.09732300000000
C           25.97815400000000        7.05081000000000        1.12058800000000
C           26.01653500000000        5.65331600000000        1.14878400000000
H           30.73049600000000        0.13646100000000       -0.00318700000000
H           30.69699000000000        2.75837900000000       -0.21929600000000
H           28.87626800000000        4.55648400000000       -0.23188400000000
H           23.43420700000000        4.45651200000000        0.43432100000000
H           21.61824100000000        2.64657400000000        0.46630100000000
H           21.96217900000000       -2.53021000000000       -0.97906500000000
H           23.92240400000000       -4.41552300000000       -0.98313300000000
H           27.60538300000000       -5.31192200000000       -1.69277800000000
H           27.53909300000000       -7.77695900000000       -1.53504100000000
H           26.29636600000000       -8.87578800000000        0.30740600000000
H           25.11442100000000       -7.50221600000000        1.99932100000000
H           25.17592700000000       -5.03559900000000        1.86152000000000
H           29.14863200000000       -4.48325800000000        0.52769000000000
H           30.83265600000000       -2.53265600000000        0.50582200000000
H           26.36608500000000        5.06708900000000       -2.19339300000000
H           26.29848100000000        7.53932900000000       -2.23133400000000
H           26.05036400000000        8.81163200000000       -0.11751000000000
H           25.86955600000000        7.60731300000000        2.04247900000000
H           25.93689800000000        5.13538300000000        2.09669900000000
C           20.15860400000000        0.00000000000000        0.00000000000000
C           21.38052100000000        0.00000000000000        0.00000000000000
114
 energy: -192.433549091329 gnorm: 0.212681465425 xtb: 6.5.1 (b24c23e)
Co          15.24329686249727        0.02619347439410        0.00298666750647
C           11.89210148030192       -0.08497337648665       -0.00228361492480
C           12.56479103900436       -1.25279216818672       -0.13298562182612
C           11.91315746449130       -2.54212120307831       -0.28377683730607
C           12.86912232413148       -3.47496891761128       -0.33146848043983
C           14.15915527920948       -2.79996892328685       -0.21309652920641
N           13.96016683475113       -1.40975208086694       -0.09486448071866
C           15.36224755863485       -3.44224102142147       -0.16572402065432
C           16.62021078236463       -2.74948966157488       -0.01513259187889
C           17.90015963140486       -3.42226843512322        0.16275249882477
C           18.84307359879099       -2.46938094976868        0.22355629435769
N           16.77099061886470       -1.43613238442674       -0.05424847093312
C           18.15510455015262       -1.20168474485874        0.07427739213931
C           18.75411183109018        0.02299298429468       -0.00355672162268
C           17.99163182746823        1.25400849196355       -0.16832981515225
C           18.54852385301352        2.43177538460337       -0.57828138841641
C           17.52813781503938        3.41410766323833       -0.53526178500457
C           16.38766995287545        2.79671897713556       -0.09905921222240
C           15.13334557267676        3.49741954102257        0.14235591240437
C           15.15010478570762        4.98059819719632        0.29042793494082
C           14.47737120832310        5.80919383863110       -0.61904796621583
C           14.51441845995655        7.19383720286123       -0.47528849985548
C           15.21250045912374        7.76879604084623        0.58149185803657
C           15.87424538364190        6.95583135243638        1.49573617814154
C           15.84584048254180        5.57184635883366        1.35145035421371
C           13.95548360183833        2.82987532358710        0.23274893352484
C           12.65039321322670        3.41174655822259        0.50478098750035
C           11.76401973085646        2.40565563606224        0.45070979754094
C           12.51038082511350        1.19470004242296        0.15892408604560
N           13.80596499175180        1.43243361642397        0.04646515535892
N           16.61264207947172        1.41592898454734        0.10037669998053
C           15.39211074432944       -4.92521261354916       -0.25859503789433
C           15.28223770642628       -5.55797775776453       -1.50053039947835
C           15.31914687815133       -6.94621136054982       -1.58500976678275
C           15.45914785682639       -7.71238263320148       -0.43240684899660
C           15.56046519677492       -7.08914640417321        0.80709481537771
C           15.52664538589064       -5.70137776644974        0.89578646670897
H           10.80895197691600       -0.11901662130969       -0.00575674500833
H           10.84774646914420       -2.72321313504956       -0.33748675264119
H           12.69541973310538       -4.53852218252043       -0.42896564386696
H           18.07806184187326       -4.48362558649141        0.23652336125562
H           19.90556391760940       -2.63705374786724        0.34894388379144
H           19.57577467936699        2.58591238912321       -0.87044513124769
H           17.63105744815133        4.45638713141269       -0.79292749722115
H           13.93843306872675        5.37594868883417       -1.45468361253662
H           14.00246838698149        7.82791399235440       -1.19195769065376
H           15.24218962638216        8.84763211390042        0.69160956686675
H           16.42070002816290        7.40302575328700        2.31935243696939
H           16.36174210830061        4.94901402091272        2.07355351797598
H           12.41930788350418        4.44769333429985        0.71589533765014
H           10.69956182020155        2.48667228729352        0.61036246755777
H           15.17456505979491       -4.96725125025183       -2.40401101956537
H           15.24085653028699       -7.43173147513041       -2.55180043743390
H           15.48873549580403       -8.79420618510122       -0.49988765596910
H           15.66857316697512       -7.68568153115745        1.70633852349784
H           15.60241929683558       -5.22191662866996        1.86573794073922
Co          26.29582784254337       -0.02629783555365        0.00184630140083
C           29.64702334814488        0.08499271770375        0.00140856434893
C           28.97433332877535        1.25738547187386       -0.07846163731536
C           29.62596739476781        2.55204553097464       -0.17312547101278
C           28.67000257671628        3.48608455501154       -0.18026635486740
C           27.37996965966196        2.80658192261557       -0.09131612583762
N           27.57895775174454        1.41254204116047       -0.03356071570525
C           26.17687668226708        3.44619019044374       -0.01609915136192
C           24.91891404705752        2.74755350799325        0.10426997453998
C           23.63896473243140        3.41197390492807        0.31120045844615
C           22.69605118445476        2.45734471928142        0.33057054822619
N           24.76813405084007        1.43713311055624        0.00816243190113
C           23.38401964929349        1.19732635230806        0.12638678485262
C           22.78501308583015       -0.02281700146287       -0.00455187782072
C           23.54749310097897       -1.24551646633995       -0.22262257491804
C           22.99060103941004       -2.40437194827909       -0.68332844829212
C           24.01098692070689       -3.38764536121918       -0.68300374063764
C           25.15145497553917       -2.78978009969702       -0.22040471915868
C           26.40577933610917       -3.50030211216760       -0.00964267518392
C           26.38902003497329       -4.98851143729620        0.07388711674940
C           27.06175321123830       -5.77683456392704       -0.87071019317016
C           27.02470638989480       -7.16641424585594       -0.78721007998611
C           26.32662431811039       -7.78671803577430        0.24360755396687
C           25.66487885596839       -7.01421864508488        1.19229015927236
C           25.69328423870988       -5.62527406602914        1.10823580204579
C           27.58364149576738       -2.83731275509753        0.10965029422358
C           28.88873189357969       -3.43044759192175        0.35616005877082
C           29.77510528892806       -2.42295755217134        0.34582674369183
C           29.02874422361354       -1.20047382534846        0.10689794694073
N           27.73316008954238       -1.43310059077819       -0.01577805595635
N           24.92648257363622       -1.41895193835901        0.03879984072553
C           26.14701361904133        4.93179635608342       -0.04448916525105
C           26.25688712234905        5.61789125641328       -1.25777750300379
C           26.21997800469251        7.00848368993526       -1.28189736243980
C           26.07997708415141        7.72388398970848       -0.09711260602269
C           25.97865966186732        7.04741438696317        1.11415799699628
C           26.01247946089936        5.65710318229831        1.14250608242755
H           30.73017249452590        0.11915427919619       -0.00058275929829
H           30.69137836822998        2.73529910608297       -0.21892147415166
H           28.84370452413832        4.55286807820811       -0.23149033188012
H           23.46106241569072        4.46912647393501        0.43098796999014
H           21.63356088563680        2.61941514130033        0.46312054649503
H           21.96335018443027       -2.54567660616607       -0.98190944144865
H           23.90806740870979       -4.41775343750555       -0.98568472070647
H           27.60069177669342       -5.30771344296329       -1.68674527024418
H           27.53665677057014       -7.76877358224934       -1.53073559187178
H           26.29693530629323       -8.86931840427840        0.30677603889341
H           25.11842394921138       -7.49675403802401        1.99571127763745
H           25.17738228570966       -5.03438383221583        1.85670242508282
H           29.11981723421688       -4.47458408959395        0.52209266643871
H           30.83956317558191       -2.51082963902919        0.50181140072640
H           26.36455983850540        5.06695276543842       -2.18605668199013
H           26.29826769134944        7.53552646904185       -2.22669341408860
H           26.05038947752563        8.80761774985169       -0.11755499139869
H           25.87055103185007        7.60433971894832        2.03845592819487
H           25.93670562875606        5.13597764651730        2.09072397888487
C           20.15882388126587        0.00806559604014       -0.00376693124774
C           21.38030099203452       -0.00789440063768       -0.00411361883593
114
 energy: -192.476620491280 gnorm: 0.060072168261 xtb: 6.5.1 (b24c23e)
Co          15.26930521139092        0.00508767307705        0.00577801309498
C           11.89970766896469       -0.06189744904171        0.00294043229334
C           12.58168117478686       -1.25084537788279       -0.13602760674535
C           11.92382378579886       -2.52605774198504       -0.28336454707389
C           12.89207059046476       -3.46585706542581       -0.33205804350315
C           14.16063971983733       -2.77875371360911       -0.21560646291587
N           13.94601342418736       -1.41887151522205       -0.09873677257867
C           15.38342812545145       -3.43111557947489       -0.16193365995923
C           16.59790776053616       -2.76803445323922       -0.01223613259573
C           17.86859535456141       -3.42839859749802        0.15453779541078
C           18.81456367136993       -2.45489563648791        0.22140186499952
N           16.76273599074088       -1.41856360152552       -0.02847670488481
C           18.12286497033680       -1.20497967120918        0.08353059121865
C           18.73330828096316        0.04271591623095       -0.01733763100084
C           17.97247183643598        1.23825499720648       -0.16667015647648
C           18.54662592829845        2.46449528802113       -0.56585876692281
C           17.56297626514112        3.41196653257018       -0.52144162688791
C           16.37566669747829        2.77288087005818       -0.09439947184736
C           15.16573979788058        3.47179213787799        0.13763027959394
C           15.17042335304800        4.96580132189258        0.27823091925035
C           14.48578357966275        5.79913154971507       -0.61566014873529
C           14.51767437507019        7.18021903915047       -0.47090895946225
C           15.21296948487701        7.75907353312688        0.58037953165011
C           15.87286158304284        6.94625967882207        1.48955914192740
C           15.85207567717471        5.56649939058831        1.34101720511928
C           13.96426161145209        2.80434290790701        0.24301691418485
C           12.67276868245835        3.39156600235535        0.49990555258715
C           11.76405211651276        2.38413442738484        0.44078809614160
C           12.49404453870577        1.17567835704750        0.16122892929858
N           13.82468338440134        1.42442304523919        0.07349890627738
N           16.61218595062228        1.41236160988449        0.06198180458679
C           15.39613014569577       -4.92347587974722       -0.25673761094138
C           15.28325646106578       -5.55742161213510       -1.49431529153921
C           15.31915237493227       -6.94132820103971       -1.57931784018652
C           15.45900044291542       -7.70763113744561       -0.43196517846660
C           15.56036464611329       -7.08522396158953        0.80301532008327
C           15.52907923392423       -5.70194981077475        0.89194313778173
H           10.81557553205334       -0.10836445114381        0.00088762460574
H           10.85720009936554       -2.69518222869141       -0.33502842134449
H           12.73287135763111       -4.53068389036875       -0.42822118053507
H           18.04810643269426       -4.48753847786665        0.22916669503455
H           19.88076672743913       -2.60455168121271        0.34500535580874
H           19.57345966114044        2.59686346573413       -0.86527999029847
H           17.64360367701707        4.45354237019927       -0.78606761845776
H           13.94316524596257        5.36736414651438       -1.45087772545423
H           14.00245279638444        7.81508159005233       -1.18767516257130
H           15.24128176036668        8.83963842557428        0.69071835156781
H           16.41630844425475        7.39430137816509        2.31717172567691
H           16.36475549462262        4.94393972316468        2.06698169590660
H           12.45650761900663        4.43212778413350        0.70683098837271
H           10.70114551780943        2.46608658733785        0.60071876908230
H           15.17578188669090       -4.96394920175332       -2.39722877264667
H           15.23965553342628       -7.42631755869681       -2.54809987461148
H           15.48830134641173       -8.79073474407644       -0.49994113887568
H           15.66701870606163       -7.68182807144606        1.70416667818876
H           15.60402161384941       -5.21950619760891        1.86146192985876
Co          26.26981947795938       -0.00533345723983        0.00555167008273
C           29.63941682715884        0.06171144928957        0.00562569548673
C           28.95744332660971        1.25557219467941       -0.08158510847244
C           29.61530084872452        2.53597946472080       -0.17341112078558
C           28.64705411354363        3.47700683532282       -0.18125107423678
C           27.37848500895904        2.78549519669479       -0.09474451415089
N           27.59311119725332        1.42182087653494       -0.03703377325507
C           26.15569650293889        3.43491090506022       -0.01279519849182
C           24.94121686102641        2.76595501794180        0.10796897741692
C           23.67052935212073        3.41845466036072        0.30325970219485
C           22.72456094657814        2.44296657631708        0.32778920554147
N           24.77638855778047        1.41846217715045        0.03314708656991
C           23.41625963478396        1.20021612594906        0.13577423601568
C           22.80581654049608       -0.04192283300138       -0.01917652547769
C           23.56665313023208       -1.22984987313402       -0.22028040468909
C           22.99249901326989       -2.43760011080604       -0.67233819789032
C           23.97614865038504       -3.38610642388081       -0.66910384754315
C           25.16345823145568       -2.76616652079934       -0.21471404541072
C           26.37338505401131       -3.47449382031417       -0.01325126747119
C           26.36870134799647       -4.97319903147351        0.06234426002599
C           27.05334110418533       -5.76692874586382       -0.86688850265413
C           27.02145040520350       -7.15299906577667       -0.78224313623361
C           26.32615515559930       -7.77695667413975        0.24291861349985
C           25.66626282044995       -7.00438768613560        1.18653445069022
C           25.68704889771267       -5.61947870065466        1.09804458758680
C           27.57486341229998       -2.81225022890905        0.12101728235023
C           28.86635634613382       -3.41007398966579        0.35216553876569
C           29.77507277715793       -2.40102557766564        0.33684880758385
C           29.04508033502811       -1.18157037526419        0.11002657790208
N           27.71444163356874       -1.42627122684073        0.01157756241858
N           24.92693886330188       -1.41372078769460        0.00059574969504
C           26.14299452135608        4.92998010314387       -0.04270889858643
C           26.25586827159485        5.61706587513801       -1.25159236258317
C           26.21997240060434        7.00335817798458       -1.27642262813067
C           26.08012441392729        7.71911807413090       -0.09687774005579
C           25.97876014436508        7.04367274770589        1.10991173089384
C           26.01004554048016        5.65784187803731        1.13869134313220
H           30.72354913097646        0.10822386730195        0.00559279822685
H           30.68192455632814        2.70718782024395       -0.21768259660342
H           28.80625314825394        4.54500502809738       -0.23108689308353
H           23.49101800470798        4.47335514832845        0.42380809682581
H           21.65835794788051        2.58711469415066        0.45777442093845
H           21.96566523014168       -2.55684166950349       -0.97722474023752
H           23.89552139596882       -4.41520920396016       -0.97870761168404
H           27.59595958235553       -5.29930210970658       -1.68257021719108
H           27.53667244123553       -7.75613943642874       -1.52590015759688
H           26.29784306432893       -8.86129340265486        0.30623295563239
H           25.12281558247625       -7.48794330381491        1.99391149135679
H           25.17436905600917       -5.02902907979016        1.85035696142583
H           29.08261742045067       -4.45863956974913        0.51371273160228
H           30.83797935442561       -2.48984465079188        0.49307065196619
H           26.36334290330014        5.06335944063493       -2.17942386892529
H           26.29946887784733        7.52995685803373       -2.22323166089416
H           26.05082359167950        8.80415161021920       -0.11775921175684
H           25.87210565240652        7.60058437064543        2.03611899145830
H           25.93510324729027        5.13375508209125        2.08634714954640
C           20.15773680355928        0.02631323634313       -0.01380204836084
C           21.38138799363691       -0.02568917742583       -0.01493172646388
114
 energy: -192.487962548124 gnorm: 0.035218319158 xtb: 6.5.1 (b24c23e)
Co          15.28771434302652       -0.00407224294507        0.00581658585036
C           11.90455448846707       -0.06286557282225        0.00989477162841
C           12.58937792475371       -1.25433298030889       -0.13943394293429
C           11.93089590937088       -2.52010211585914       -0.28824120181251
C           12.90288927000993       -3.46108453469858       -0.33821606629102
C           14.15808989546292       -2.77192592909990       -0.22060179994736
N           13.94705148900520       -1.42133112814780       -0.10385702693570
C           15.38348139749937       -3.42642619129165       -0.15803912010591
C           16.58483145135306       -2.76170675478856        0.00355988022731
C           17.85081112856932       -3.41673305583956        0.15297486429007
C           18.79258517270265       -2.43841366303112        0.22234202236098
N           16.75189807683440       -1.39787622114787       -0.00245031837252
C           18.10322672825059       -1.19204724203174        0.09391685422727
C           18.73109041043414        0.05697104327728       -0.02897212919723
C           17.98247344677129        1.23951759358517       -0.18225913083578
C           18.56914734543319        2.48765270117787       -0.55248712899774
C           17.59285200271037        3.42442211229556       -0.50227959657619
C           16.38797261615863        2.76424283636941       -0.10236412958392
C           15.19139124944427        3.44863092247468        0.13603717062009
C           15.19285353559479        4.94244903519475        0.26740109557798
C           14.49995661143437        5.77223892315556       -0.62154297656414
C           14.52038256757118        7.15314572635276       -0.47267741214832
C           15.21372054668556        7.73721388553273        0.57760184694215
C           15.87878923396878        6.92584648634797        1.48470847406219
C           15.87116927671725        5.54648748681542        1.32994422992206
C           13.98441173746077        2.77566426650548        0.26014025260279
C           12.70067341532273        3.37311197185482        0.50022419209613
C           11.78129440040708        2.37499599054042        0.43655806061474
C           12.50279959329654        1.16405401829941        0.17737408637705
N           13.84694440484772        1.40945328642166        0.10186077201394
N           16.62514710317475        1.40535512477736        0.01102715132741
C           15.39645375805868       -4.91823530921771       -0.25340281985082
C           15.28468788520071       -5.55033461786651       -1.49116854486317
C           15.31845736578706       -6.93437890977759       -1.57747544671964
C           15.45837451628596       -7.70293173698748       -0.43107170905943
C           15.56082269075988       -7.08090026603357        0.80448581428302
C           15.53179551396260       -5.69728670140211        0.89419497183316
H           10.82053503067297       -0.10956690684653        0.01177824435505