304
 energy: -528.930843773112 gnorm: 0.000682835828 xtb: 6.5.1 (b24c23e)
C           39.38589908147795        0.03678007327797        0.19065629598148
C           39.99183530038361        1.27118445872175        0.38594204058810
C           39.33661153181324        2.51733568530360        0.59421236471625
C           40.29641807058949        3.47912038107106        0.73817763976073
C           41.56960231046330        2.84893183592487        0.63600115668947
N           41.33473054766353        1.52183987456604        0.41425418171411
C           42.83225497161581        3.44639036832516        0.72307220315756
C           42.86152907970659        4.90568017595509        0.97990442782173
C           43.44532986907729        5.78720264195885        0.07047288941774
C           43.44250138178767        7.14499392615420        0.34781624054958
N           42.90857065167953        7.65780725220934        1.45182746558671
C           42.35385772249739        6.82444891074122        2.32599403656522
C           42.30365950872181        5.45250174242141        2.13510128692241
C           44.04922978463138        2.77375351967934        0.59057210036429
C           45.34622384817226        3.40363856969444        0.76253566642805
C           46.26829081148059        2.43771495545413        0.57171901747216
N           44.20549800508515        1.44933602356815        0.31594234827820
C           45.53353047621493        1.21994105640830        0.28780560889469
C           46.17219978217529       -0.00680568960343        0.01367056001240
C           45.53780112090011       -1.23381526423218       -0.25946899379575
C           46.18333377366315       -2.45497584312416       -0.58916976813276
C           45.21804886937471       -3.40400347480552       -0.78183884544025
C           43.95236260557769       -2.79297513420842       -0.56198642368018
N           44.19754110978699       -1.47945251630428       -0.25940939710461
C           42.69088823240855       -3.39083165720868       -0.65093329014111
C           42.65750326757767       -4.83478568728861       -0.97976681411391
C           43.27189924853568       -5.78278747356104       -0.16184303134281
C           43.21252754694194       -7.12151442185876       -0.51577630003587
N           42.59666696235200       -7.55490617183764       -1.61095324669109
C           42.00896817203201       -6.65812347546646       -2.39664122378301
C           42.01028554294736       -5.29928880474971       -2.12467341770395
C           41.47460508057754       -2.72868762730851       -0.45131713929370
C           40.17444426720830       -3.38107999091770       -0.47508206144213
C           39.26047317062540       -2.42001738890889       -0.23354462662002
C           40.00111168773297       -1.18316905266420       -0.05670980384547
N           41.33193370154439       -1.40930139222598       -0.18373418610003
H           38.30128058996497        0.03640103965979        0.23085985002594
H           38.26662833284808        2.64853092862803        0.62022467955527
H           40.14171240686456        4.53442288475586        0.89383852546690
H           42.06179749580512        0.82623230908796        0.28471453802117
H           43.88097322127309        5.41538377945358       -0.84924099846899
H           43.88705932468854        7.85101557953298       -0.34751675487231
H           41.92974694060697        7.27269881974248        3.21978544588724
H           41.85324779998788        4.81092140385973        2.88319526217542
H           45.50706904427164        4.43984541133924        1.01201406728120
H           47.34276800792338        2.51447310819552        0.61785285723459
H           47.25079632753537       -2.57940375958585       -0.67416290128597
H           45.36667340797408       -4.43440072644748       -1.06050007280807
H           43.47438060087860       -0.79335366203677       -0.06965760560151
H           43.77312172031220       -5.47830321992871        0.74929617841811
H           43.68006978695715       -7.87798709714590        0.10777353259594
H           41.51558339950336       -7.04243891370058       -3.28461272307733
H           41.52960159038167       -4.60336770673930       -2.80186492455102
H           40.00989735275786       -4.43373069960773       -0.63975204368208
H           38.18733142142870       -2.50894886593757       -0.16945823430510
C          120.48534334140717       -0.06054317055726        0.01633881080286
C          119.87617139669545       -1.25710629455638       -0.33879325456172
C          120.52767004381258       -2.46361427164723       -0.72036845909831
C          119.56535748753988       -3.39870336746871       -0.97827395472968
C          118.29473429980361       -2.79620547324003       -0.75240224759832
N          118.53290811809102       -1.50416456089938       -0.37920760024658
C          117.03106215980796       -3.38028651860360       -0.89627946969518
C          116.99986936465780       -4.80811726285700       -1.29230791697599
C          116.38960167712051       -5.21710875558293       -2.47765671203413
C          116.39065757332156       -6.56269709440454       -2.80928665989784
N          116.94694214115120       -7.49691113288857       -2.04467843203966
C          117.52766622258513       -7.11628889869062       -0.91144061037609
C          117.58216496968345       -5.79473733251211       -0.49719249193091
C          115.81539247548673       -2.72280074175112       -0.69483345094673
C          114.51854155142667       -3.36908264857698       -0.78893540309146
C          113.59794438573005       -2.41746841047129       -0.53092273079435
N          115.66094211751435       -1.41045755493128       -0.36611964984591
C          114.33376377649262       -1.19485750277741       -0.27162697973846
C          113.69625520713896        0.02815252253181        0.02176601628181
C          114.33194976420626        1.24841470673364        0.32039308665833
C          113.68782844881257        2.48498222436189        0.58991448332062
C          114.65459027372725        3.41686970622872        0.84785362578532
C          115.91995540021688        2.77400419675990        0.75197428998487
N          115.67302275083627        1.46768331223690        0.42153144104430
C          117.18220150924687        3.34977833640163        0.93041282062933
C          117.21372308857785        4.78014595392772        1.31466834603838
C          116.62273085599337        5.22691448349963        2.49634858630624
C          116.67931294889651        6.57494108744249        2.81321458991238
N          117.27013158155626        7.47746255291053        2.03673920603717
C          117.83414434626522        7.06066525899517        0.90759324578800
C          117.83419628222967        5.73368478282698        0.50795557991517
C          118.39907661448662        2.67762658297005        0.77373058082069
C          119.70265186813521        3.27677358715919        1.01501064314974
C          120.61641165258547        2.31997813743677        0.75647386672591
C          119.87219344762104        1.13458348828375        0.36824532177989
N          118.53998718554550        1.38415217625305        0.39945592477585
H          121.57065702740522       -0.07003885612995        0.01660314882750
H          121.59680157824693       -2.58520905255964       -0.79047652203902
H          119.71610531647076       -4.41494516720718       -1.30444638001795
H          117.80775470173054       -0.82732284336818       -0.16640208918938
H          115.93468336503409       -4.48897460835995       -3.13851948309825
H          115.92556461598669       -6.90446535784280       -3.72931312429151
H          117.96979623855724       -7.90251779235924       -0.30645783594070
H          118.05484549047185       -5.53349872801235        0.44220153280552
H          114.35688863298709       -4.41198340938235       -1.00810920235693
H          112.52399921124891       -2.50954750933070       -0.50481812860307
H          112.62016421480716        2.63388360569921        0.57989838769151
H          114.50766405134947        4.46014608217649        1.07477354814804
H          116.39506305633087        0.77098321836659        0.27013729067159
H          116.14160821601018        4.52547030666679        3.16763269360169
H          116.23057936077444        6.94518021756632        3.73038098259386
H          118.30666566658043        7.82165713794596        0.29342488281409
H          118.29508073066283        5.44233770677160       -0.42830100669663
H          119.87002129600783        4.28798918561741        1.34918858816615
H          121.69166684114529        2.37751381392396        0.82095856636584
C           47.57722380322319       -0.01971796892622        0.00321708838923
C           48.80198340652603       -0.03227410711403        0.00209162269481
C           50.14399713193997       -0.04373397230897        0.00266292815340
C           51.37490928611206       -0.05372311089307        0.00554501445966
C           52.71211159950859       -0.06212090897274        0.00679483026317
C           53.94312261224954       -0.06777698462605        0.00949683870549
C           55.28491372970361       -0.07169711653665        0.00629469222799
C           56.50993702645463       -0.07185987236165       -0.00127911934488
C           66.17449688926079       -0.04088280144472       -0.00845040338363
C           67.39956847136824       -0.03220085971470        0.00512219984673
C           68.74074183360960       -0.02545696801500        0.02070689251273
C           69.97183488743866       -0.01462434530270        0.03477622618458
C           71.30841641534168       -0.00698192861995        0.04767934444373
C           72.53963704564011       -0.00034873885021        0.05925451251073
C           73.88089594334305        0.00319508918264        0.06257618549102
C           75.10594457428901        0.01015169111958        0.05535697424474
C           84.76506623434433       -0.00848239921061       -0.01462260374712
C           85.99023154314386       -0.00494718588991       -0.01400723450889
C           87.33150763855699       -0.00376077034198       -0.01339785768204
C           88.56271766876164        0.00143125852443       -0.01352014353746
C           89.89931960869066        0.00293440924812       -0.01721965821894
C           91.13054750195160        0.00533448724175       -0.01701325116580
C           92.47183093471044        0.00737225868795       -0.02082005416380
C           93.69698793774587        0.01369468203426       -0.02555885705724
C          103.35886627246782        0.05195012211957       -0.01548041182859
C          104.58388602441900        0.05829289989707       -0.01106128411096
C          105.92559708075875        0.06375604683978       -0.00559514702479
C          107.15658770325041        0.06781423196049        0.00120713390718
C          108.49373354348702        0.06830158409649        0.00635053280805
C          109.72466186725235        0.06630982393252        0.01170831878941
C          111.06662832351107        0.05960469113372        0.01637849599372
C          112.29135248997081        0.04436418223272        0.01840083751687
C           57.91392292255442       -0.07050663571622       -0.01205046105294
C           58.54350427761186       -1.30389421751211        0.24560690929299
C           57.89671790790453       -2.53180364941494        0.54033820035696
C           58.86248929823145       -3.48613693883841        0.70906288874202
C           60.12761556110016       -2.86836864471023        0.51361114054175
N           59.88424823885025       -1.54783473540660        0.24587610416856
C           61.38840338970764       -3.47205634800615        0.59728506176752
C           61.40411742895336       -4.92942097167132        0.86937822422559
C           62.00837466416097       -5.44470405970252        2.01565790802018
C           61.99470611017542       -6.81390392468384        2.22963061475934
N           61.43143116436469       -7.67323912034218        1.38647659919681
C           60.85566938857075       -7.19085141581551        0.29009056952694
C           60.81392673290412       -5.83798410741005       -0.00853348141112
C           62.61254763859593       -2.81835474355717        0.44992059770971
C           63.89962243606035       -3.48936339621263        0.49229295782870
C           64.83520458815961       -2.53228429857872        0.32366134749106
N           62.78711181715626       -1.48480010181747        0.23581971516442
C           64.11789097998117       -1.28229538762216        0.16699713668335
C           64.77110006437205       -0.04746878238507       -0.02339500564480
C           64.14189128034657        1.19513734910477       -0.23313160888362
C           64.78880719853692        2.44491921667676       -0.41402082078555
C           63.82287420442200        3.39449242297740       -0.60647778542462
C           62.55757276984653        2.74883001933284       -0.55503066834498
N           62.80114632052104        1.42229599708675       -0.31852123249526
C           61.29698863479873        3.34222594517091       -0.69162952713404
C           61.28296242280449        4.79771773399788       -0.97519511729728
C           60.70034642974367        5.70264300286370       -0.08874878836223
C           60.71765748637878        7.05430531768304       -0.39469567938451
N           61.26355882453851        7.53866338235408       -1.50556275356969
C           61.81790637383007        6.68253370625289       -2.35761594690785
C           61.85537065286714        5.31467775052420       -2.13688216166983
C           60.07247950060577        2.68188531187816       -0.58156637767895
C           58.78533032569054        3.32483237151129       -0.77681317167468
C           57.84949713180232        2.37267475353815       -0.58348744332145
C           58.56668982301732        1.14948459958177       -0.28165694375678
N           59.89790491813766        1.36184429879750       -0.29661991319852
H           56.82897479112726       -2.65878366288718        0.61695964615483
H           58.71359846828035       -4.52434798322312        0.95678665441615
H           60.60435819094719       -0.85323884567316        0.07781962068940
H           62.46861076807684       -4.78043372053320        2.73727935270837
H           62.45538520120667       -7.23813047460865        3.11693899195927
H           60.40697801226180       -7.91773234789679       -0.38064292400558
H           60.34446348497430       -5.49198445319786       -0.92176051220402
H           64.04548535720900       -4.54961910606771        0.62001242929917
H           65.90797806727866       -2.63658544761730        0.29503508382170
H           65.85671670214320        2.59060711205044       -0.39380835849911
H           63.97140468925300        4.45065589457604       -0.76109358062897
H           62.08126041636420        0.71477443147734       -0.21639553893011
H           60.25436008007657        5.35389462943402        0.83499224112929
H           60.27479608360274        7.77881004263103        0.28240991111211
H           62.25247580086408        7.10810013946977       -3.25742005701371
H           62.30819136860305        4.65324576983878       -2.86597386863264
H           58.63990898444639        4.36029695169965       -1.03840151706443
H           56.77652338835620        2.46126671892248       -0.64154957158083
C           76.50944522245896        0.00775500229310        0.04652105730481
C           77.13368733411818       -1.22578394089963        0.31707388689182
C           76.48153374356386       -2.44718288806016        0.62667240373210
C           77.44269118287009       -3.40585390789480        0.79715139383883
C           78.70999498661297       -2.79740576998415        0.58755933375681
N           78.47282260154738       -1.47727426531069        0.31214063109603
C           79.96762450357056       -3.40871769590703        0.66153796678081
C           79.97681193582936       -4.86603741772679        0.93351389867622
C           80.59191883261435       -5.38821513539295        2.07075211604401
C           80.57214439095411       -6.75801753715686        2.28095041666075
N           79.99302449631696       -7.61145055607065        1.44259237138137
C           79.40629168077125       -7.12239799439364        0.35501057278123
C           79.36954213888984       -5.76850594266325        0.06081119293286
C           81.19373342850123       -2.76270908069275        0.49761446456621
C           82.47748608306472       -3.44051330622142        0.52708531669142
C           83.41597918159327       -2.48935791159574        0.34209017829439
N           81.37271638470963       -1.43103493169446        0.27542950067892
C           82.70354542066026       -1.23610959814262        0.18894013331252
C           83.36156861492871       -0.00571780670764       -0.01302556271400
C           82.73815623200032        1.24057271476984       -0.21884111970542
C           83.39141083946359        2.48618230540682       -0.40512805959089
C           82.43004209397432        3.44159124062465       -0.59184312027802
C           81.16130343050801        2.80359155349489       -0.53247281110333
N           81.39824535235368        1.47614209878212       -0.29478577667208
C           79.90305751987485        3.40286188644155       -0.66822788619069
C           79.89453981161942        4.85552183092723       -0.96454843333461
C           79.30571238254645        5.77088589950825       -0.09299172729499
C           79.32703665005847        7.11910248685583       -0.41374259715171
N           79.88306171021578        7.59085889394862       -1.52496619034935
C           80.44405240030636        6.72489388413760       -2.36266281651086
C           80.47756311246874        5.35955856866557       -2.12682181715165
C           78.67633870526734        2.74784301243806       -0.55165241945828
C           77.39091590193824        3.39228317933085       -0.75330893957906
C           76.45254851177667        2.44441082820700       -0.55146300673888
C           77.16646897634892        1.22235761228156       -0.23740497323182
N           78.49798519720470        1.43081762222917       -0.25441258379458
H           75.41360340729867       -2.56738680654632        0.71107639323145
H           77.28922357054805       -4.44102809319720        1.05457958532633
H           79.19626718127269       -0.78914459392615        0.13220683305675
H           81.06538437994043       -4.72920425863325        2.78863442648450
H           81.04135920805531       -7.18776313035241        3.16108422010176
H           78.94453014603508       -7.84442046842501       -0.31208467049324
H           78.89092267011463       -5.41673389909751       -0.84542135815515
H           82.61920974394923       -4.50089654210085        0.65828126309625
H           84.48768706682000       -2.59972187635719        0.30017059787844
H           84.46027656238577        2.62548327855458       -0.39228610864264
H           82.58430541662105        4.49679058965681       -0.74727919761055
H           80.67420043533119        0.77362186440950       -0.18759102643376
H           78.85168577810177        5.43327870801952        0.83096626257670
H           78.87872476676669        7.85140916765395        0.25128182315190
H           80.88714936638505        7.14004975079359       -3.26314803674171
H           80.93511744679904        4.68964072816314       -2.84512171459565
H           77.24805673762857        4.42536077409366       -1.02547127153670
H           75.37981607062304        2.53503463213268       -0.61096916380481
C           95.10048552928220        0.01674262796202       -0.02857706850093
C           95.72962691709922       -1.21353955031194        0.24476907800107
C           95.08238800159504       -2.43907555389264        0.54851160516707
C           96.04815205602738       -3.39042680238058        0.73286089705657
C           97.31371733339689       -2.77353018656105        0.53705365859972
N           97.07039320172296       -1.45591379513364        0.25468123523667
C           98.57460759056218       -3.37520053561497        0.62834531075811
C           98.59171731391316       -4.82946796462402        0.91609064334428
C           99.19682196924653       -5.33168079903224        2.06768680623403
C           99.18345480389530       -6.69841598426731        2.29702089061586
N           98.62008406531925       -7.56729207916655        1.46377559182260
C           98.04397647064522       -7.09743234128254        0.36214914453341
C           98.00164919470232       -5.74799935239701        0.04851266956771
C           99.79826459769913       -2.72214736965667        0.47196377331774
C          101.08520640750162       -3.39338645296146        0.51178285438200
C          102.02010530938539       -2.43815856394649        0.32939684666987
N           99.97182613735180       -1.39034590806412        0.24816696476959
C          101.30257507090947       -1.18862997405411        0.17036599719624
C          101.95493970174499        0.04624830606319       -0.02068537538709
C          101.32527680485867        1.29088978405930       -0.21679738155809
C          101.97217173271936        2.54291906849933       -0.38080492657749
C          101.00642113939438        3.49480955891773       -0.56288504666476
C           99.74131639710916        2.84805306747851       -0.52439263164326
N           99.98454716933253        1.51911970795089       -0.30207488440188
C           98.48045633120542        3.44046348346097       -0.66658040613537
C           98.46374074600364        4.89846649197835       -0.93479630607651
C           97.85391908803980        5.78938768224999       -0.05223351494824
C           97.86761163968191        7.14442655810723       -0.34278949434355
N           98.43571158863821        7.64541997207936       -1.43499112639754
C           99.01638976861902        6.80297217003395       -2.28315342303808
C           99.05868358431518        5.43298495334740       -2.07713216661271
C           97.25712355849090        2.77501576900661       -0.57697316806963
C           95.97033758381048        3.41293691066821       -0.79077004547277
C           95.03564351111088        2.45677600221779       -0.61249099921774
C           95.75328960914950        1.23662097416346       -0.29952650887168
N           97.08349478184201        1.45363529089286       -0.29682217070812
H           94.01436912081238       -2.56658835512140        0.62018203378747
H           95.89883026290427       -4.42608015001453        0.99077072054469
H           97.79081175918837       -0.76234024997076        0.08374889777071
H           99.65735863005753       -4.65933909804705        2.78161939315735
H           99.64442895084299       -7.11258011133051        3.18891598578559
H           97.59540673467525       -7.83187977968969       -0.30037151561228
H           97.53186896927964       -5.41232512495988       -0.86838610202722
H          101.23107785454901       -4.45275215951783        0.64669248608056
H          103.09258968945375       -2.54329076349051        0.29462212531699
H          103.03997815477899        2.68865585203560       -0.35617767649489
H          101.15547734971464        4.55295001230662       -0.70259432647760
H           99.26425744132293        0.81055356791928       -0.21038864482465
H           97.38942667366214        5.42724460221637        0.85712680745833
H           97.40293730295669        7.85784272303682        0.33147165009384
H           99.46878963857152        7.24182560899380       -3.16763374339324
H           99.53224461161854        4.78333083096535       -2.80361128092365
H           95.82440423838946        4.44768931733886       -1.05484190942197
H           93.96331643099015        2.54085951577443       -0.68707062835031
