201
 energy: -398.933238170705 gnorm: 1.535701443132 xtb: 6.5.1 (b24c23e)
Co          27.26844200000000       -0.04764100000000       -0.01838700000000
C           23.93530300000000        0.10337100000000        0.08802300000000
C           24.60211500000000        1.26031600000000        0.06662300000000
C           23.95374400000000        2.56593500000000        0.06541900000000
C           24.89738400000000        3.48800500000000        0.05745800000000
C           26.20253100000000        2.81295500000000        0.05539000000000
N           26.02254900000000        1.39673000000000        0.06042500000000
C           27.39648100000000        3.43784700000000        0.08530700000000
C           27.43400500000000        4.91655000000000        0.09282200000000
C           27.22466600000000        5.63182500000000       -1.09415200000000
C           27.24632000000000        7.03016400000000       -1.09121500000000
O           27.03204300000000        7.71134200000000       -2.28960300000000
C           27.47938400000000        7.72582300000000        0.10893700000000
O           27.49501200000000        9.12135600000000        0.10487100000000
C           27.69315900000000        7.00980900000000        1.30102900000000
O           27.92600500000000        7.69250700000000        2.49367000000000
C           27.67068300000000        5.60857900000000        1.28763600000000
C           28.69468800000000        2.71374200000000        0.12366200000000
C           29.99396200000000        3.38326800000000        0.25508600000000
C           30.92828700000000        2.45609800000000        0.24043200000000
N           28.82931200000000        1.42596700000000        0.02307700000000
C           30.23518300000000        1.18219600000000        0.08890400000000
C           30.83039200000000       -0.01851200000000       -0.01949200000000
C           30.07743200000000       -1.28404300000000       -0.19964300000000
C           30.64272200000000       -2.44598500000000       -0.50477100000000
C           29.59522600000000       -3.44504500000000       -0.53496900000000
C           28.45353600000000       -2.83087700000000       -0.24891200000000
N           28.66728700000000       -1.43416000000000       -0.02262300000000
C           27.14442600000000       -3.52459200000000       -0.13044300000000
C           27.12561000000000       -5.00337300000000       -0.14904900000000
C           27.27224000000000       -5.72137500000000        1.04435900000000
C           27.25095600000000       -7.11983700000000        1.03550100000000
O           27.39268400000000       -7.80512100000000        2.24223300000000
C           27.08762900000000       -7.81180300000000       -0.17848300000000
O           27.07079800000000       -9.20723700000000       -0.17950000000000
C           26.94572500000000       -7.09202200000000       -1.37902800000000
O           26.78828500000000       -7.77142600000000       -2.58623700000000
C           26.96389700000000       -5.69071000000000       -1.35901400000000
C           25.98175200000000       -2.85941600000000       -0.00834900000000
C           24.65782200000000       -3.46758700000000        0.11036600000000
C           23.79881100000000       -2.46894400000000        0.16210100000000
C           24.56492200000000       -1.22631300000000        0.08210800000000
N           25.83965500000000       -1.44106500000000       -0.01833600000000
H           22.85241900000000        0.13615500000000        0.11264300000000
H           22.88911700000000        2.76169500000000        0.07453200000000
H           24.71370400000000        4.55465500000000        0.06401600000000
H           27.04093400000000        5.10150300000000       -2.02084400000000
H           27.03701700000000        8.72278100000000       -2.34257800000000
H           27.64538600000000        9.66161100000000        0.94787800000000
H           28.08231800000000        7.20018200000000        3.36559100000000
H           27.83340900000000        5.05798000000000        2.20629500000000
H           30.17752800000000        4.44582700000000        0.34500000000000
H           31.99207600000000        2.63927400000000        0.31518700000000
H           31.69237400000000       -2.63089300000000       -0.68674400000000
H           29.73011900000000       -4.49981000000000       -0.73791200000000
H           27.39941500000000       -5.19362000000000        1.98180800000000
H           27.37436800000000       -8.81618800000000        2.29260000000000
H           26.95690500000000       -9.74535500000000       -1.02992700000000
H           26.68844600000000       -7.27712600000000       -3.46565500000000
H           26.85355800000000       -5.13722700000000       -2.28405800000000
H           24.40593000000000       -4.51974600000000        0.14486000000000
H           22.72381300000000       -2.56674700000000        0.24554600000000
Co          66.19040099999999        0.01030400000000       -0.01509200000000
C           69.52354099999999       -0.15179600000000        0.07351500000000
C           68.85672900000000       -1.29886000000000       -0.07888100000000
C           69.50510000000000       -2.59592800000000       -0.22806400000000
C           68.56145900000000       -3.51115400000000       -0.34048600000000
C           67.25631300000001       -2.84022000000000       -0.26602700000000
N           67.43629500000000       -1.43369200000000       -0.10050100000000
C           66.06236300000000       -3.46447500000000       -0.30713100000000
C           66.02483800000000       -4.93450100000000       -0.46726900000000
C           66.23417800000000       -5.51062800000000       -1.72766700000000
C           66.21252400000000       -6.90028900000000       -1.88324400000000
O           66.42680000000000       -7.44124500000000       -3.15111800000000
C           65.97945900000001       -7.72749600000000       -0.76967700000000
O           65.96383100000000       -9.11357500000000       -0.93189400000000
C           65.76568399999999       -7.15121600000000        0.49589000000000
O           65.53283900000000       -7.96469500000000        1.60346400000000
C           65.78816100000000       -5.75749700000000        0.64140600000000
C           64.76415500000000       -2.74938400000000       -0.18694900000000
C           63.46488200000000       -3.42949200000000       -0.13226000000000
C           62.53055600000000       -2.50663600000000       -0.04172900000000
N           64.62953200000000       -1.45850800000000       -0.14092300000000
C           63.22366099999999       -1.22376900000000       -0.04789000000000
C           62.62845200000000       -0.01851200000000       -0.01949200000000
C           63.38141100000000        1.25928300000000       -0.05504000000000
C           62.81612199999999        2.44832100000000       -0.22650100000000
C           63.86361800000000        3.44436600000000       -0.14326500000000
C           65.00530700000000        2.80173300000000        0.07133500000000
N           64.79155600000000        1.38836700000000        0.13785400000000
C           66.31441800000000        3.47754900000000        0.26767000000000
C           66.33323400000000        4.94890900000000        0.41679700000000
C           66.18660400000000        5.52701700000000        1.68389700000000
C           66.20788800000000        6.91747000000000        1.83360600000000
O           66.06615900000000        7.46156100000000        3.11023500000000
C           66.37121500000001        7.74257700000000        0.70587600000000
O           66.38804500000001        9.12913400000000        0.86303300000000
C           66.51311900000000        7.16351100000000       -0.56851600000000
O           66.67055900000000        7.97536800000000       -1.69093800000000
C           66.49494600000000        5.76896100000000       -0.70746300000000
C           67.47709200000000        2.80282100000000        0.31358300000000
C           68.80102200000000        3.39361700000000        0.50046700000000
C           69.66003200000000        2.39554600000000        0.43867700000000
C           68.89392200000000        1.16998900000000        0.21835200000000
N           67.61918900000001        1.39474300000000        0.14289600000000
H           70.60642400000000       -0.18716000000000        0.09426100000000
H           70.56972700000000       -2.79145900000000       -0.24119800000000
H           68.74514000000001       -4.57167300000000       -0.45487100000000
H           66.41790899999999       -4.87868700000000       -2.58827700000000
H           66.42182699999999       -8.44016200000000       -3.31839300000000
H           65.81345700000000       -9.74590000000000       -0.15555500000000
H           65.37652600000000       -7.57437100000000        2.52556900000000
H           65.62543500000000       -5.31457200000000        1.61655400000000
H           63.28131499999999       -4.49539500000000       -0.16336200000000
H           61.46676800000000       -2.69710500000000        0.01178200000000
H           61.76646999999999        2.65266400000000       -0.38634200000000
H           63.72872400000000        4.51533700000000       -0.22534700000000
H           66.05942899999999        4.89640700000000        2.55548600000000
H           66.08447600000000        8.46040300000000        3.27487800000000
H           66.50193800000000        9.76017500000000        0.07907900000000
H           66.77039700000000        7.58393200000000       -2.62071500000000
H           66.60528600000001        5.32389500000000       -1.68928100000000
H           69.05291400000000        4.43508600000000        0.65399500000000
H           70.73503100000001        2.48326000000000        0.53267000000000
C           33.18140400000000       -0.00382200000000       -0.00921700000000
C           34.63963000000000       -0.02565800000000       -0.02709000000000
C           35.77355799999999       -0.04641200000000       -0.02858100000000
C           37.13493999999999       -0.05900200000000       -0.03077200000000
C           38.40915900000000       -0.04869500000000       -0.03553700000000
C           39.59762099999999       -0.02989700000000       -0.04169300000000
C           40.94998200000000       -0.00511300000000       -0.02582500000000
C           42.05024900000000       -0.00382200000000       -0.00921700000000
C           51.28455799999999       -0.00382200000000       -0.00921700000000
C           52.74278400000000       -0.02565800000000       -0.02709000000000
C           53.87671199999999       -0.04641200000000       -0.02858100000000
C           55.23809399999999       -0.05900200000000       -0.03077200000000
C           56.51231299999999       -0.04869500000000       -0.03553700000000
C           57.70077499999999       -0.02989700000000       -0.04169300000000
C           59.05313600000000       -0.00511300000000       -0.02582500000000
C           60.15340300000000       -0.00382200000000       -0.00921700000000
Co          46.68801600000000       -0.04623900000000       -0.05468600000000
C           43.27838500000000        0.03863400000000        0.04204100000000
C           43.93485199999999        1.20727100000000        0.16161200000000
C           43.29326300000000        2.50632700000000        0.37404300000000
C           44.23132199999999        3.43273900000000        0.39629300000000
C           45.53013500000000        2.78124700000000        0.19899400000000
N           45.35220300000000        1.36963800000000        0.05757500000000
C           46.71508900000000        3.42547000000000        0.14695700000000
C           46.74480899999999        4.90113400000000        0.25023000000000
C           47.20730499999999        5.51409000000000        1.42366000000000
C           47.24994000000000        6.91124400000000        1.52245000000000
O           47.70287800000000        7.52182400000000        2.69237500000000
C           46.83493500000000        7.70208100000000        0.44160700000000
O           46.88745500000000        9.09147300000000        0.55736600000000
C           46.37255000000000        7.09108800000000       -0.73948800000000
O           45.96108799999999        7.87412300000000       -1.81692000000000
C           46.32843900000000        5.69298700000000       -0.82980100000000
C           48.01614800000000        2.72703100000000       -0.00628400000000
C           49.28952700000000        3.41874300000000       -0.24134800000000
C           50.24330300000000        2.50992400000000       -0.27082800000000
N           48.18226800000000        1.44517000000000        0.09960500000000
C           49.58465799999999        1.22762900000000       -0.05892800000000
C           50.19970500000000        0.03863400000000        0.04204100000000
C           49.45075599999999       -1.22020700000000        0.24043000000000
C           49.98893600000000       -2.35177800000000        0.67680200000000
C           48.95647499999999       -3.36873400000000        0.61768100000000
C           47.85823200000000       -2.78894900000000        0.14698300000000
N           48.07991400000000       -1.40370400000000       -0.11262900000000
C           46.59953399999999       -3.50737300000000       -0.16523500000000
C           46.66146100000000       -4.97224700000000       -0.38817200000000
C           47.39623700000000       -5.48630900000000       -1.46351900000000
C           47.46760999999999       -6.86497700000000       -1.67891600000000
O           48.19884999999999       -7.33513000000000       -2.77039600000000
C           46.80890100000000       -7.75369600000000       -0.80706800000000
O           46.90316100000000       -9.12474500000000       -1.06040100000000
C           46.07671999999999       -7.23723000000000        0.29059100000000
O           45.40498099999999       -8.05452300000000        1.20319700000000
C           46.01263299999999       -5.85330100000000        0.48803900000000
C           45.42322100000000       -2.85890400000000       -0.26883900000000
C           44.14179900000000       -3.46080800000000       -0.62254000000000
C           43.25254000000000       -2.49049000000000       -0.56455000000000
C           43.95461099999999       -1.26124100000000       -0.17958700000000
N           45.22372299999999       -1.46922900000000       -0.00714300000000
H           42.23686100000000        2.70499400000000        0.49895600000000
H           44.04646100000000        4.48868300000000        0.54422100000000
H           47.53254700000000        4.90644800000000        2.26001700000000
H           47.99363500000000        6.97737000000000        3.50057800000000
H           46.59484499999999        9.70646300000000       -0.19582500000000
H           45.60124800000000        7.45990300000000       -2.66924500000000
H           45.97471800000000        5.22302300000000       -1.74118000000000
H           49.44102399999999        4.48296400000000       -0.36696600000000
H           51.29670000000000        2.70793000000000       -0.42044600000000
H           51.01399300000000       -2.50316900000000        0.98942700000000
H           49.07376599999999       -4.41358200000000        0.87460400000000
H           47.90954300000000       -4.81374300000000       -2.14141800000000
H           48.28180700000000       -8.32276800000000       -2.98109600000000
H           46.45310200000000       -9.83824500000000       -0.50329900000000
H           45.39606400000000       -9.06299800000000        1.16050900000000
H           45.45635899999999       -5.46249800000000        1.33223200000000
H           43.93458900000000       -4.48861300000000       -0.88928900000000
H           42.19763900000000       -2.60469700000000       -0.77801300000000
201
 energy: -399.409503381432 gnorm: 0.583793373382 xtb: 6.5.1 (b24c23e)
Co          27.27803606706702       -0.04275982098251       -0.01620591247432
C           23.93604621840282        0.08946819756603        0.08821730547440
C           24.60884746741518        1.26063674566896        0.06619196748436
C           23.95336811484758        2.56019092400427        0.06548604642746
C           24.90549291110053        3.48915264984699        0.05737055113979
C           26.20221934667139        2.80464981242145        0.05469087974351
N           26.01237701554766        1.40323635512013        0.06000696741360
C           27.40970432604704        3.43432843641510        0.08560375545504
C           27.43639376133011        4.92071676191334        0.09194352587220
C           27.22448750450116        5.63723923054667       -1.09294497515811
C           27.24637129032699        7.03977856510113       -1.09068852441102
O           27.03255923003053        7.71100482629470       -2.28656721182138
C           27.48089524790948        7.73231785004896        0.11711397818345
O           27.49477824990911        9.12294185347732        0.10380376054047
C           27.69425240552851        7.00768135686768        1.30690136090829
O           27.92587219325896        7.69382428725462        2.49343918732345
C           27.67112717006659        5.61009664963420        1.28618241172340
C           28.68766259261867        2.72484909967828        0.12397586928307
C           29.98356156508330        3.39045607159373        0.25436348925772
C           30.92867181296472        2.45022902295927        0.24044275862243
N           28.83319680476303        1.41729866065627        0.02352755884974
C           30.24319885837349        1.17850215269816        0.08876135715058
C           30.83089170766146       -0.03027666277833       -0.02147143800333
C           30.07606154166853       -1.26885101821780       -0.19471854753549
C           30.64417044099470       -2.46368524325696       -0.50768057148850
C           29.61251092018331       -3.44578728801817       -0.53645511147894
C           28.44179999889745       -2.81922226595022       -0.24385858322384
N           28.66634430480802       -1.43316173482044       -0.02607381663780
C           27.15602263450544       -3.51723857753316       -0.13066746404457
C           27.12982227505405       -5.00619285906429       -0.14884206680805
C           27.27224696676527       -5.72657667579019        1.04324775613639
C           27.25049370446457       -7.12938492042163        1.03491775079808
O           27.39215335858032       -7.80465371879888        2.23912270557380
C           27.08663938179441       -7.81820527974817       -0.18675939918396
O           27.07082425773881       -9.20881855362023       -0.17843367229662
C           26.94502398058995       -7.08967716710682       -1.38486361706883
O           26.78818686161990       -7.77255408526317       -2.58586289682872
C           26.96426557010390       -5.69166501306692       -1.35754910183319
C           25.98219835851966       -2.85578516375073       -0.00805261985742
C           24.66495090648814       -3.46725232717515        0.10980642278390
C           23.79279395237876       -2.45923406238503        0.16208031041502
C           24.55176018510619       -1.21704810762288        0.08235453176198
N           25.84500301930584       -1.44353238558321       -0.01704421916496
H           22.85280631630592        0.13298758807286        0.11283001741339
H           22.88945432300837        2.75683345750266        0.07451069227814
H           24.71977739898998        4.55471388416623        0.06379709840483
H           27.04130356609823        5.10343651179803       -2.01993475965276
H           27.03901688556819        8.70744450255782       -2.33082845881428
H           27.64399884946380        9.64400813552852        0.94032931105599
H           28.07882028629744        7.20076089491954        3.34686578887275
H           27.83329822561163        5.05847392684146        2.20569773234824
H           30.17258058008785        4.44812879589710        0.34490122252168
H           31.99171839341191        2.63322130159775        0.31474442116990
H           31.69303164857455       -2.63356895614186       -0.68711654800001
H           29.73293088795375       -4.49940930036535       -0.73845076143410
H           27.39937018616767       -5.19560034080004        1.98095970329678
H           27.37331815625123       -8.80085404956120        2.28078092398705
H           26.95811874855867       -9.72770109420638       -1.02223951037121
H           26.69077741246613       -7.27773970164911       -3.44664168074047
H           26.85369557642554       -5.13765947950351       -2.28336696984950
H           24.41171969055384       -4.51899734842195        0.14447136919318
H           22.72227616786409       -2.56243283805698        0.24567141599441
Co          66.18085600030514        0.00522878153331       -0.01354042167502
C           69.52284275434674       -0.13805620027635        0.07528722159805
C           68.85008026033103       -1.29908786218265       -0.07930380834599
C           69.50544000940064       -2.59015959263914       -0.22733585057451
C           68.55328455275686       -3.51227292654088       -0.34070651909302
C           67.25652088953292       -2.83218497661107       -0.26580660796804
N           67.44621386534428       -1.43972685356772       -0.10162483985026
C           66.04950037889338       -3.46114831926605       -0.30650997680435
C           66.02251668644142       -4.93856398788023       -0.46861574672973
C           66.23436512469885       -5.51615278540647       -1.72708193336982
C           66.21245975175901       -6.90989325532014       -1.88380459563596
O           66.42629343920883       -7.44126601690498       -3.14807742275099
C           65.97794439046419       -7.73485205557095       -0.76228920142458
O           65.96406768415115       -9.11506814310824       -0.93313997957849
C           65.76458411611240       -7.14975258109505        0.50195055108794
O           65.53297177500970       -7.96600430424942        1.60310702774097
C           65.78772009411928       -5.75884240669476        0.63978722895159
C           64.77106820709344       -2.76031489123504       -0.18792484193253
C           63.47524393370146       -3.43647815254754       -0.13375167340705
C           62.53025724144418       -2.50054395397417       -0.04113178424200
N           64.62602359667986       -1.45054750305523       -0.13931422260593
C           63.21628921697203       -1.21963585554942       -0.04753689647910
C           62.62933470115856       -0.00643559130015       -0.02011400976498
C           63.38372652483901        1.24346804411246       -0.05175017104795
C           62.81484292075925        2.46561353669418       -0.22724785259942
C           63.84677178868341        3.44537112930083       -0.14465279336743
C           65.01715478260388        2.78992020128614        0.07508981380848
N           64.79287675368475        1.38788272604262        0.13398424222845
C           66.30296665994946        3.47042061624082        0.26665023048321
C           66.32906951301621        4.95173140785670        0.41734828940321
C           66.18660110148022        5.53232434693367        1.68339244528751
C           66.20834097921885        6.92703031878318        1.83411129031798
O           66.06670278365002        7.46144767202229        3.10709381443761
C           66.37219948854023        7.74988153306542        0.69837813064032
O           66.38803506171205        9.13057827154700        0.86427179884633
C           66.51381172748604        7.16184738720776       -0.57457892824123
O           66.67066918802060        7.97644471271816       -1.69043881622463
C           66.49458327752981        5.76974923042284       -0.70589869178496
C           67.47663992132262        2.79930550136201        0.31345981699071
C           68.79388383718693        3.39335636021745        0.49987170544753
C           69.66604619722860        2.38589925312736        0.43755201171509
C           68.90708423122624        1.16080165241730        0.21756013977375
N           67.61393783674883        1.39706374476198        0.14445789856318
H           70.60605119681357       -0.18404170374275        0.09479638457969
H           70.56937418746666       -2.78661144347645       -0.24067155805472
H           68.73906847200745       -4.57169778168463       -0.45509647257365
H           66.41754040764744       -4.88071301708307       -2.58759142164721
H           66.41982340302090       -8.42625462887563       -3.30497978253022
H           65.81484423755090       -9.72754743718083       -0.16105534101401
H           65.38002241271282       -7.57280983193872        2.50689362271179
H           65.62554691271619       -5.31499734378095        1.61590296048794
H           63.28628802972916       -4.49766511463262       -0.16371116699529
H           61.46727142636664       -2.69116857358390        0.01203288798124
H           61.76595063949986        2.65525684091181       -0.38641014653362
H           63.72597509050940        4.51503783391228       -0.22594372522306
H           66.05947430881129        4.89847139245130        2.55486774389557
H           66.08551534582867        8.44650989598852        3.26139516579167
H           66.50071318586596        9.74176608063576        0.08471688674868
H           66.76805760281698        7.58238703389367       -2.60175513838565
H           66.60514936722173        5.32424506639193       -1.68854449962373
H           69.04712703638678        4.43438717616567        0.65352366752747
H           70.73656634980101        2.47895321567804        0.53230721832428
C           33.19157977153385       -0.00458387321961       -0.00993590230039
C           34.54848184277028       -0.02572332896190       -0.02682982151076
C           35.81266647452080       -0.04683894287462       -0.02839799166840
C           37.10208604338332       -0.05875179733657       -0.03071568073527
C           38.38038848544121       -0.04905549898225       -0.03581856012054
C           39.59464087588320       -0.02983369038742       -0.04234970026477
C           40.87742233202641       -0.00576674538501       -0.02625509203130
C           42.06571609165123       -0.00795402786169       -0.00988533617623
C           51.39732397837474       -0.01723609632026       -0.01268601791888
C           52.69575870539981       -0.02603771343078       -0.02738236855888
C           53.92971161742808       -0.04738021072307       -0.02900149583384
C           55.21758342425692       -0.05924739390378       -0.03091586048359
C           56.49349525959267       -0.04893531381066       -0.03547018942205
C           57.71241384431983       -0.02957672959500       -0.04173136346474
C           59.03505391237987       -0.00512633438284       -0.02649479815311
C           60.24989629976483       -0.00320789801903       -0.00889524340714
Co          46.68938299994529       -0.04029511552075       -0.05216375508154
C           43.33964286164159        0.02685443381327        0.03895242279465
C           43.96330718332710        1.21984232118607        0.16359061913064
C           43.29400317605440        2.49818491494554        0.37319132838819
C           44.24035072871239        3.43481324703903        0.39576459396908
C           45.52952479694857        2.77571658338169        0.19846239014719
N           45.34925317021658        1.37870234396765        0.06199334188532
C           46.72758091904895        3.42409593640142        0.14518983471188
C           46.74731935533274        4.90443138010060        0.24978295489541
C           47.20752342181947        5.51682680198708        1.42159146805605
C           47.25137164560714        6.91217719767773        1.52700046666874
O           47.70217027898614        7.52017910986972        2.69109351752837
C           46.83327916664369        7.71048448701663        0.43747524188979
O           46.88693245879681        9.09171846753977        0.55617678448330
C           46.37056033135999        7.08950464076111       -0.74392836891543
O           45.96130928287992        7.87493786416950       -1.81570591210676
C           46.32835914243696        5.69419239759889       -0.82791260248290
C           48.00764200275184        2.74545498475176       -0.00556521766694
C           49.27542361964257        3.42895412180034       -0.23906639191777
C           50.23914190363114        2.50165417971448       -0.26974917342476
N           48.18107178765339        1.44154566949220        0.09450240684130
C           49.55270923362910        1.24985776956607       -0.06090773223107
C           50.13666674035503        0.02940129611048        0.04553685074582
C           49.42111546113425       -1.22297121356147        0.23772423950911
C           49.98739475868037       -2.36780153600195        0.67930463271423
C           48.97076061465776       -3.37151499993447        0.61977395146489
C           47.84724494702427       -2.78211886594224        0.13889466520898
N           48.07169130215130       -1.40660425111963       -0.10538358813451
C           46.60871931593637       -3.50375174842235       -0.16455002224564
C           46.66535596465752       -4.97518829147049       -0.38658545742490
C           47.39718183332172       -5.49134135761893       -1.46329332448694
C           47.46812188806150       -6.87413691825650       -1.68108090061655
O           48.19710764666274       -7.33533768779307       -2.76802428801954
C           46.80572202823310       -7.76009113041445       -0.80344782914502
O           46.90362139259859       -9.12680600617378       -1.06115418556946
C           46.07667048864725       -7.24367782021172        0.29028107252894
O           45.40610051338604       -8.05462795186934        1.20139680659040
C           46.01228279826488       -5.85691237956076        0.48646522309627
C           45.42386218849535       -2.85919756645625       -0.26898241014295
C           44.14855293347153       -3.46124361310720       -0.62142069182831
C           43.24686992180604       -2.48023678034151       -0.56234135755998