      -----------------------------------------------------------      
     |                   =====================                   |     
     |                           x T B                           |     
     |                   =====================                   |     
     |                         S. Grimme                         |     
     |          Mulliken Center for Theoretical Chemistry        |     
     |                    University of Bonn                     |     
      -----------------------------------------------------------      

   * xtb version 6.5.1 (b24c23e) compiled by 'conda@728c89f4b128' on 2022-07-12

   xtb is free software: you can redistribute it and/or modify it under
   the terms of the GNU Lesser General Public License as published by
   the Free Software Foundation, either version 3 of the License, or
   (at your option) any later version.
   
   xtb is distributed in the hope that it will be useful,
   but WITHOUT ANY WARRANTY; without even the implied warranty of
   MERCHANTABILITY or FITNESS FOR A PARTICULAR PURPOSE.  See the
   GNU Lesser General Public License for more details.
   
   Cite this work as:
   * C. Bannwarth, E. Caldeweyher, S. Ehlert, A. Hansen, P. Pracht,
     J. Seibert, S. Spicher, S. Grimme, WIREs Comput. Mol. Sci., 2020, 11,
     e01493. DOI: 10.1002/wcms.1493
   
   for GFN2-xTB:
   * C. Bannwarth, S. Ehlert and S. Grimme., J. Chem. Theory Comput., 2019,
     15, 1652-1671. DOI: 10.1021/acs.jctc.8b01176
   for GFN1-xTB:
   * S. Grimme, C. Bannwarth, P. Shushkov, J. Chem. Theory Comput., 2017,
     13, 1989-2009. DOI: 10.1021/acs.jctc.7b00118
   for GFN0-xTB:
   * P. Pracht, E. Caldeweyher, S. Ehlert, S. Grimme, ChemRxiv, 2019, preprint.
     DOI: 10.26434/chemrxiv.8326202.v1
   for GFN-FF:
   * S. Spicher and S. Grimme, Angew. Chem. Int. Ed., 2020, 59, 15665-15673.
     DOI: 10.1002/anie.202004239
   
   for ALPB and GBSA implicit solvation:
   * S. Ehlert, M. Stahn, S. Spicher, S. Grimme, J. Chem. Theory Comput.,
     2021, 17, 4250-4261. DOI: 10.1021/acs.jctc.1c00471
   
   for DFT-D4:
   * E. Caldeweyher, C. Bannwarth and S. Grimme, J. Chem. Phys., 2017,
     147, 034112. DOI: 10.1063/1.4993215
   * E. Caldeweyher, S. Ehlert, A. Hansen, H. Neugebauer, S. Spicher,
     C. Bannwarth and S. Grimme, J. Chem. Phys., 2019, 150, 154122.
     DOI: 10.1063/1.5090222
   * E. Caldeweyher, J.-M. Mewes, S. Ehlert and S. Grimme, Phys. Chem. Chem. Phys.
     2020, 22, 8499-8512. DOI: 10.1039/D0CP00502A
   
   for sTDA-xTB:
   * S. Grimme and C. Bannwarth, J. Chem. Phys., 2016, 145, 054103.
     DOI: 10.1063/1.4959605
   
   in the mass-spec context:
   * V. Asgeirsson, C. Bauer and S. Grimme, Chem. Sci., 2017, 8, 4879.
     DOI: 10.1039/c7sc00601b
   * J. Koopman and S. Grimme, ACS Omega 2019, 4, 12, 15120-15133.
     DOI: 10.1021/acsomega.9b02011
   
   for metadynamics refer to:
   * S. Grimme, J. Chem. Theory Comput., 2019, 155, 2847-2862
     DOI: 10.1021/acs.jctc.9b00143
   
   for SPH calculations refer to:
   * S. Spicher and S. Grimme, J. Chem. Theory Comput., 2021, 17, 1701-1714
     DOI: 10.1021/acs.jctc.0c01306
   
   with help from (in alphabetical order)
   P. Atkinson, C. Bannwarth, F. Bohle, G. Brandenburg, E. Caldeweyher
   M. Checinski, S. Dohm, S. Ehlert, S. Ehrlich, I. Gerasimov, C. Hölzer
   A. Katbashev, J. Koopman, C. Lavigne, S. Lehtola, F. März, M. Müller,
   F. Musil, H. Neugebauer, J. Pisarek, C. Plett, P. Pracht, F. Pultar,
   J. Seibert, P. Shushkov, S. Spicher, M. Stahn, M. Steiner, T. Strunk,
   J. Stückrath, T. Rose, and J. Unsleber
   
 * started run on 2022/07/30 at 11:18:41.304     

           -------------------------------------------------
          |                Calculation Setup                |
           -------------------------------------------------

          program call               : xtb xtbopt.xyz --gfn 1 --vipea
          hostname                   : cx3-14-28.cx3.hpc.ic.ac.uk
          coordinate file            : xtbopt.xyz
          omp threads                :                     1

   ID    Z sym.   atoms
    1   30 Zn     1, 57, 117
    2    6 C      2-6, 8-11, 13-29, 32-37, 58-62, 64-67, 69-85, 88-93,
                  113-116, 118-122, 124-127, 129-145, 148-153
    3    7 N      7, 12, 30, 31, 63, 68, 86, 87, 123, 128, 146, 147
    4    1 H      38-56, 94-112, 154-171

           -------------------------------------------------
          |                 I P E A - x T B                 |
           -------------------------------------------------

        Reference                      10.1039/c7sc00601b
      * Hamiltonian:
        H0-scaling (s, p, d)           2.150000    2.300000    2.000000
        zeta-weighting                 0.000000
      * Dispersion:
        s8                             2.400000
        a1                             0.630000
        a2                             5.000000
        s9                             0.000000
      * Repulsion:
        kExp                           1.500000
        rExp                           1.000000
      * Coulomb:
        alpha                          1.000000
        third order                    atomic
        anisotropic                    false
      * Halogen bond correction:
        rad-scale                      1.300000
        damping                        0.440000


          ...................................................
          :                      SETUP                      :
          :.................................................:
          :  # basis functions                 684          :
          :  # atomic orbitals                 684          :
          :  # shells                          454          :
          :  # electrons                       522          :
          :  # halogen bonds                     0          :
          :  max. iterations                   250          :
          :  Hamiltonian                  GFN1-xTB          :
          :  restarted?                      false          :
          :  GBSA solvation                  false          :
          :  PC potential                    false          :
          :  electronic temp.          300.0000000     K    :
          :  accuracy                    1.0000000          :
          :  -> integral cutoff          0.2500000E+02      :
          :  -> integral neglect         0.1000000E-07      :
          :  -> SCF convergence          0.1000000E-05 Eh   :
          :  -> wf. convergence          0.2000000E-04 e    :
          :  Broyden damping             0.4000000          :
          ...................................................

 iter      E             dE          RMSdq      gap      omega  full diag
   1   -324.9122711 -0.324912E+03  0.103E+01    1.33       0.0  T
   2   -325.3273393 -0.415068E+00  0.659E+00    1.39       1.0  T
   3   -322.4150449  0.291229E+01  0.473E+00    0.94       1.0  T
   4   -326.4605154 -0.404547E+01  0.142E+00    1.46       1.0  T
   5   -327.2482880 -0.787773E+00  0.329E-01    1.18       1.0  T
   6   -327.2848473 -0.365593E-01  0.102E-01    1.23       1.0  T
   7   -327.2866528 -0.180550E-02  0.567E-02    1.22       1.0  T
   8   -327.2874270 -0.774200E-03  0.265E-02    1.23       1.0  T
   9   -327.2874063  0.207004E-04  0.172E-02    1.23       1.0  T
  10   -327.2875082 -0.101848E-03  0.453E-03    1.23       1.7  T
  11   -327.2875143 -0.615979E-05  0.200E-03    1.23       3.8  T
  12   -327.2875160 -0.168144E-05  0.390E-04    1.23      19.6  T
  13   -327.2875161 -0.506130E-07  0.125E-04    1.23      61.0  T
  14   -327.2875161 -0.346523E-08  0.551E-05    1.23     138.8  T

   *** convergence criteria satisfied after 14 iterations ***

         #    Occupation            Energy/Eh            Energy/eV
      -------------------------------------------------------------
         1        2.0000           -1.0112680             -27.5180
       ...           ...                  ...                  ...
       255        2.0000           -0.4237601             -11.5311
       256        2.0000           -0.3923432             -10.6762
       257        2.0000           -0.3895552             -10.6003
       258        2.0000           -0.3886985             -10.5770
       259        2.0000           -0.3886971             -10.5770
       260        2.0000           -0.3805702             -10.3558
       261        2.0000           -0.3675111             -10.0005 (HOMO)
       262                         -0.3223785              -8.7724 (LUMO)
       263                         -0.3072645              -8.3611
       264                         -0.3045883              -8.2883
       265                         -0.3036753              -8.2634
       266                         -0.3036744              -8.2634
       ...                                ...                  ...
       684                        544.2810854           14810.6422
      -------------------------------------------------------------
                  HL-Gap            0.0451326 Eh            1.2281 eV
             Fermi-level           -0.3449448 Eh           -9.3864 eV

 SCC (total)                   0 d,  0 h,  0 min,  3.552 sec
 SCC setup                      ...        0 min,  0.004 sec (  0.109%)
 Dispersion                     ...        0 min,  0.006 sec (  0.171%)
 classical contributions        ...        0 min,  0.002 sec (  0.067%)
 integral evaluation            ...        0 min,  0.470 sec ( 13.218%)
 iterations                     ...        0 min,  1.975 sec ( 55.601%)
 molecular gradient             ...        0 min,  1.066 sec ( 30.005%)
 printout                       ...        0 min,  0.029 sec (  0.827%)

         :::::::::::::::::::::::::::::::::::::::::::::::::::::
         ::                     SUMMARY                     ::
         :::::::::::::::::::::::::::::::::::::::::::::::::::::
         :: total energy            -320.746594090731 Eh    ::
         :: gradient norm              0.056789422592 Eh/a0 ::
         :: HOMO-LUMO gap              1.228120500317 eV    ::
         ::.................................................::
         :: SCC energy              -327.287516064876 Eh    ::
         :: -> electrostatic           0.236512480156 Eh    ::
         :: repulsion energy           6.700870376400 Eh    ::
         :: dispersion energy         -0.159948402254 Eh    ::
         :: halogen bond corr.         0.000000000000 Eh    ::
         :: add. restraining           0.000000000000 Eh    ::
         :: total charge              -0.000000000000 e     ::
         :::::::::::::::::::::::::::::::::::::::::::::::::::::

           ------------------------------------------------- 
          |        vertical delta SCC IP calculation        |
           ------------------------------------------------- 
   1   -326.8802219 -0.326880E+03  0.121E-01    1.23       0.0  T
   2   -326.8846463 -0.442442E-02  0.977E-02    1.21       1.0  T
   3   -326.8887912 -0.414481E-02  0.573E-02    1.21       1.0  T
   4   -326.8893057 -0.514585E-03  0.338E-02    1.21       1.0  T
   5   -326.8893192 -0.134716E-04  0.224E-02    1.21       1.0  T
   6   -326.8893790 -0.597772E-04  0.128E-02    1.21       1.0  T
   7   -326.8894327 -0.537494E-04  0.435E-03    1.21       1.8  T
   8   -326.8894392 -0.647705E-05  0.170E-03    1.21       4.5  T
   9   -326.8894399 -0.729358E-06  0.857E-04    1.21       8.9  T
  10   -326.8894401 -0.207594E-06  0.402E-04    1.21      19.0  T
  11   -326.8894402 -0.718899E-07  0.224E-04    1.21      34.2  T
  12   -326.8894402 -0.271427E-07  0.834E-05    1.21      91.7  T
  13   -326.8894402 -0.290225E-08  0.406E-05    1.21     188.3  T
     SCC iter.                  ...        0 min,  1.806 sec
     gradient                   ...        0 min,  1.066 sec
------------------------------------------------------------------------
empirical IP shift (eV):    4.8455
delta SCC IP (eV):    5.9867
------------------------------------------------------------------------
           ------------------------------------------------- 
          |        vertical delta SCC EA calculation        |
           ------------------------------------------------- 
   1   -327.5445621 -0.327545E+03  0.218E-01    0.44       0.0  T
   2   -327.5638754 -0.193133E-01  0.182E-01    0.27       1.0  T
   3   -327.5767299 -0.128545E-01  0.101E-01    0.36       1.0  T
   4   -327.5779726 -0.124270E-02  0.666E-02    0.33       1.0  T
   5   -327.5780772 -0.104634E-03  0.408E-02    0.33       1.0  T
   6   -327.5783385 -0.261325E-03  0.186E-02    0.33       1.0  T
   7   -327.5784524 -0.113869E-03  0.719E-03    0.34       1.1  T
   8   -327.5784658 -0.133512E-04  0.363E-03    0.34       2.1  T
   9   -327.5784697 -0.396039E-05  0.150E-03    0.34       5.1  T
  10   -327.5784704 -0.724882E-06  0.531E-04    0.34      14.4  T
  11   -327.5784705 -0.640827E-07  0.292E-04    0.34      26.2  T
  12   -327.5784705 -0.284569E-07  0.169E-04    0.34      45.2  T
  13   -327.5784706 -0.139061E-07  0.854E-05    0.34      89.5  T
     SCC iter.                  ...        0 min,  1.726 sec
     gradient                   ...        0 min,  1.013 sec
------------------------------------------------------------------------
empirical EA shift (eV):    4.8455
delta SCC EA (eV):    3.0718
------------------------------------------------------------------------
           -------------------------------------------------
          |                Property Printout                |
           -------------------------------------------------

    * Orbital Energies and Occupations

         #    Occupation            Energy/Eh            Energy/eV
      -------------------------------------------------------------
         1        2.0000           -0.9517557             -25.8986
       ...           ...                  ...                  ...
       250        2.0000           -0.3708018             -10.0900
       251        2.0000           -0.3701756             -10.0730
       252        2.0000           -0.3672587              -9.9936
       253        2.0000           -0.3661031              -9.9622
       254        2.0000           -0.3652477              -9.9389
       255        2.0000           -0.3613496              -9.8328
       256        2.0000           -0.3322601              -9.0413
       257        2.0000           -0.3307795              -9.0010
       258        2.0000           -0.3307787              -9.0009
       259        2.0000           -0.3241138              -8.8196
       260        2.0000           -0.3217533              -8.7554
       261        2.0000           -0.3055885              -8.3155
       262        0.9977           -0.2598357              -7.0705 (HOMO)
       263        0.0010           -0.2474744              -6.7341 (LUMO)
       264        0.0007           -0.2471798              -6.7261
       265        0.0007           -0.2471758              -6.7260
       266        0.0000           -0.2410929              -6.5605
       267                         -0.2309523              -6.2845
       268                         -0.2060458              -5.6068
       269                         -0.1972225              -5.3667
       270                         -0.1932219              -5.2578
       271                         -0.1892500              -5.1498
       272                         -0.1871387              -5.0923
       273                         -0.1704704              -4.6387
       ...                                ...                  ...
       684                        544.3437982           14812.3487
      -------------------------------------------------------------
                  HL-Gap            0.0123613 Eh            0.3364 eV
             Fermi-level           -0.2683982 Eh           -7.3035 eV

  Mulliken/CM5 charges         n(s)   n(p)   n(d)
     1Zn    0.36113  0.68679   0.762  0.876  0.000
     2C    -0.03101 -0.07212   1.084  2.947  0.000
     3C     0.05513  0.11691   1.118  2.827  0.000
     4C    -0.04221 -0.08824   1.088  2.954  0.000
     5C    -0.03773 -0.08340   1.085  2.953  0.000
     6C     0.05475  0.12015   1.110  2.835  0.000
     7N    -0.24069 -0.48445   1.350  3.891  0.000
     8C     0.00677  0.01208   1.094  2.899  0.000
     9C     0.05396  0.11844   1.108  2.838  0.000
    10C    -0.03714 -0.08285   1.079  2.958  0.000
    11C    -0.03644 -0.08209   1.081  2.955  0.000
    12N    -0.23707 -0.48014   1.352  3.885  0.000
    13C     0.06038  0.12666   1.122  2.817  0.000
    14C     0.01285  0.01964   1.085  2.902  0.000
    15C     0.06037  0.12667   1.122  2.817  0.000
    16C    -0.03645 -0.08209   1.081  2.955  0.000
    17C    -0.03721 -0.08289   1.079  2.958  0.000
    18C     0.05401  0.11848   1.108  2.838  0.000
    19C     0.00689  0.01220   1.094  2.899  0.000
    20C     0.00710 -0.00173   1.088  2.905  0.000
    21C    -0.02324 -0.07662   1.078  2.945  0.000
    22C    -0.02908 -0.08486   1.086  2.943  0.000
    23C    -0.03127 -0.08710   1.086  2.945  0.000
    24C    -0.02843 -0.08422   1.086  2.942  0.000
    25C    -0.02242 -0.07588   1.078  2.944  0.000
    26C     0.05471  0.12014   1.110  2.836  0.000
    27C    -0.03779 -0.08339   1.085  2.953  0.000
    28C    -0.04223 -0.08825   1.088  2.954  0.000
    29C     0.05514  0.11691   1.118  2.827  0.000
    30N    -0.24056 -0.48456   1.350  3.891  0.000
    31N    -0.23726 -0.48011   1.352  3.885  0.000
    32C     0.00695 -0.00185   1.088  2.905  0.000
    33C    -0.02317 -0.07663   1.078  2.945  0.000
    34C    -0.02917 -0.08497   1.086  2.943  0.000
    35C    -0.03116 -0.08698   1.086  2.945  0.000
    36C    -0.02832 -0.08411   1.086  2.942  0.000
    37C    -0.02216 -0.07555   1.079  2.943  0.000
    38H     0.01941  0.07824   0.981  0.000  0.000
    39H     0.02548  0.08197   0.975  0.000  0.000
    40H     0.01827  0.07699   0.982  0.000  0.000
    41H     0.02009  0.07888   0.980  0.000  0.000
    42H     0.02087  0.07946   0.979  0.000  0.000
    43H     0.02121  0.07980   0.979  0.000  0.000
    44H     0.02058  0.07941   0.979  0.000  0.000
    45H     0.01940  0.07714   0.981  0.000  0.000
    46H     0.02499  0.08084   0.975  0.000  0.000
    47H     0.02486  0.08068   0.975  0.000  0.000
    48H     0.02617  0.08202   0.974  0.000  0.000
    49H     0.02050  0.07823   0.980  0.000  0.000
    50H     0.01842  0.07710   0.982  0.000  0.000
    51H     0.02547  0.08195   0.975  0.000  0.000
    52H     0.01932  0.07714   0.981  0.000  0.000
    53H     0.02491  0.08076   0.975  0.000  0.000
    54H     0.02492  0.08074   0.975  0.000  0.000
    55H     0.02650  0.08234   0.974  0.000  0.000
    56H     0.02094  0.07880   0.979  0.000  0.000
    57Zn    0.36114  0.68680   0.762  0.876  0.000
    58C    -0.03106 -0.07217   1.084  2.947  0.000
    59C     0.05514  0.11692   1.118  2.827  0.000
    60C    -0.04223 -0.08826   1.088  2.954  0.000
    61C    -0.03772 -0.08339   1.085  2.953  0.000
    62C     0.05472  0.12012   1.110  2.835  0.000
    63N    -0.24069 -0.48446   1.350  3.891  0.000
    64C     0.00678  0.01209   1.094  2.899  0.000
    65C     0.05394  0.11842   1.108  2.838  0.000
    66C    -0.03712 -0.08284   1.079  2.958  0.000
    67C    -0.03645 -0.08210   1.081  2.955  0.000
    68N    -0.23708 -0.48013   1.352  3.885  0.000
    69C     0.06039  0.12667   1.122  2.817  0.000
    70C     0.01280  0.01959   1.085  2.902  0.000
    71C     0.06036  0.12667   1.122  2.817  0.000
    72C    -0.03648 -0.08211   1.081  2.955  0.000
    73C    -0.03721 -0.08289   1.079  2.958  0.000
    74C     0.05398  0.11845   1.108  2.838  0.000
    75C     0.00690  0.01221   1.094  2.899  0.000
    76C     0.00709 -0.00173   1.088  2.905  0.000
    77C    -0.02323 -0.07661   1.079  2.945  0.000
    78C    -0.02907 -0.08486   1.086  2.943  0.000
    79C    -0.03127 -0.08710   1.086  2.945  0.000
    80C    -0.02844 -0.08423   1.086  2.942  0.000
    81C    -0.02243 -0.07589   1.078  2.944  0.000
    82C     0.05469  0.12012   1.110  2.836  0.000
    83C    -0.03778 -0.08338   1.085  2.953  0.000
    84C    -0.04225 -0.08828   1.088  2.954  0.000
    85C     0.05514  0.11692   1.118  2.827  0.000
    86N    -0.24057 -0.48456   1.350  3.891  0.000
    87N    -0.23725 -0.48013   1.352  3.885  0.000
    88C     0.00695 -0.00185   1.088  2.905  0.000
    89C    -0.02316 -0.07662   1.078  2.945  0.000
    90C    -0.02916 -0.08496   1.086  2.943  0.000
    91C    -0.03115 -0.08698   1.086  2.945  0.000
    92C    -0.02832 -0.08411   1.086  2.942  0.000
    93C    -0.02217 -0.07557   1.079  2.943  0.000
    94H     0.01942  0.07825   0.981  0.000  0.000
    95H     0.02549  0.08197   0.975  0.000  0.000
    96H     0.01826  0.07698   0.982  0.000  0.000
    97H     0.02010  0.07890   0.980  0.000  0.000
    98H     0.02086  0.07947   0.979  0.000  0.000
    99H     0.02122  0.07980   0.979  0.000  0.000
   100H     0.02059  0.07942   0.979  0.000  0.000
   101H     0.01941  0.07715   0.981  0.000  0.000
   102H     0.02500  0.08084   0.975  0.000  0.000
   103H     0.02485  0.08068   0.975  0.000  0.000
   104H     0.02616  0.08201   0.974  0.000  0.000
   105H     0.02050  0.07823   0.979  0.000  0.000
   106H     0.01841  0.07709   0.982  0.000  0.000
   107H     0.02546  0.08195   0.975  0.000  0.000
   108H     0.01934  0.07716   0.981  0.000  0.000
   109H     0.02492  0.08077   0.975  0.000  0.000
   110H     0.02492  0.08074   0.975  0.000  0.000
   111H     0.02649  0.08234   0.974  0.000  0.000
   112H     0.02092  0.07877   0.979  0.000  0.000
   113C    -0.03306 -0.03522   1.068  2.965  0.000
   114C    -0.02884 -0.03098   1.073  2.956  0.000
   115C    -0.02886 -0.03100   1.073  2.956  0.000
   116C    -0.03306 -0.03522   1.068  2.965  0.000
   117Zn    0.36254  0.68829   0.764  0.873  0.000
   118C     0.00742  0.01428   1.080  2.913  0.000
   119C     0.06005  0.12638   1.123  2.817  0.000
   120C    -0.03918 -0.08484   1.079  2.960  0.000
   121C    -0.03743 -0.08319   1.080  2.957  0.000
   122C     0.05169  0.11613   1.106  2.842  0.000
   123N    -0.23838 -0.48160   1.351  3.888  0.000
   124C     0.00893  0.01415   1.096  2.895  0.000
   125C     0.05169  0.11616   1.106  2.842  0.000
   126C    -0.03748 -0.08323   1.080  2.957  0.000
   127C    -0.03922 -0.08487   1.079  2.960  0.000
   128N    -0.23841 -0.48167   1.351  3.888  0.000
   129C     0.05995  0.12626   1.123  2.817  0.000
   130C     0.00741  0.01428   1.080  2.913  0.000
   131C     0.06006  0.12640   1.123  2.817  0.000
   132C    -0.03918 -0.08485   1.079  2.960  0.000
   133C    -0.03742 -0.08317   1.080  2.957  0.000
   134C     0.05166  0.11610   1.106  2.842  0.000
   135C     0.00897  0.01419   1.096  2.895  0.000
   136C     0.00755 -0.00125   1.088  2.904  0.000
   137C    -0.02206 -0.07549   1.079  2.943  0.000
   138C    -0.02878 -0.08457   1.086  2.943  0.000
   139C    -0.03124 -0.08706   1.086  2.945  0.000
   140C    -0.02875 -0.08454   1.086  2.943  0.000
   141C    -0.02203 -0.07546   1.079  2.944  0.000
   142C     0.05168  0.11614   1.106  2.842  0.000
   143C    -0.03746 -0.08321   1.080  2.957  0.000
   144C    -0.03921 -0.08487   1.079  2.960  0.000
   145C     0.06000  0.12634   1.123  2.817  0.000
   146N    -0.23840 -0.48163   1.351  3.888  0.000
   147N    -0.23835 -0.48163   1.351  3.888  0.000
   148C     0.00754 -0.00126   1.088  2.904  0.000
   149C    -0.02203 -0.07546   1.079  2.943  0.000
   150C    -0.02876 -0.08455   1.086  2.943  0.000
   151C    -0.03124 -0.08707   1.086  2.945  0.000
   152C    -0.02879 -0.08459   1.086  2.943  0.000
   153C    -0.02207 -0.07550   1.079  2.943  0.000
   154H     0.01784  0.07637   0.982  0.000  0.000
   155H     0.01789  0.07667   0.982  0.000  0.000
   156H     0.01799  0.07678   0.982  0.000  0.000
   157H     0.01788  0.07637   0.982  0.000  0.000
   158H     0.01782  0.07636   0.982  0.000  0.000
   159H     0.01791  0.07667   0.982  0.000  0.000
   160H     0.02005  0.07796   0.980  0.000  0.000
   161H     0.02510  0.08095   0.975  0.000  0.000
   162H     0.02404  0.07986   0.976  0.000  0.000
   163H     0.02519  0.08104   0.975  0.000  0.000
   164H     0.02019  0.07809   0.980  0.000  0.000
   165H     0.01799  0.07677   0.982  0.000  0.000
   166H     0.01785  0.07635   0.982  0.000  0.000
   167H     0.02017  0.07808   0.980  0.000  0.000
   168H     0.02519  0.08104   0.975  0.000  0.000
   169H     0.02403  0.07985   0.976  0.000  0.000
   170H     0.02509  0.08094   0.975  0.000  0.000
   171H     0.02003  0.07795   0.980  0.000  0.000

Wiberg/Mayer (AO) data.
largest (>0.10) Wiberg bond orders for each atom

 ---------------------------------------------------------------------------
     #   Z sym  total        # sym  WBO       # sym  WBO       # sym  WBO
 ---------------------------------------------------------------------------
     1  30 Zn   2.430 --    30 N    0.569     7 N    0.567    31 N    0.563
                            12 N    0.563
     2   6 C    3.796 --    29 C    1.386     3 C    1.385    38 H    0.999
     3   6 C    3.946 --     2 C    1.385     7 N    1.285     4 C    1.199
     4   6 C    3.846 --     5 C    1.643     3 C    1.199    39 H    0.995
     5   6 C    3.836 --     4 C    1.643     6 C    1.207    40 H    1.001
     6   6 C    3.915 --     8 C    1.370     7 N    1.275     5 C    1.207
     7   7 N    2.996 --     3 C    1.285     6 C    1.275     1 Zn   0.567
     8   6 C    3.835 --     6 C    1.370     9 C    1.360    32 C    1.049
     9   6 C    3.903 --     8 C    1.360    12 N    1.268    10 C    1.221
    10   6 C    3.818 --    11 C    1.618     9 C    1.221    41 H    1.000
    11   6 C    3.819 --    10 C    1.618    13 C    1.232    42 H    0.998
    12   7 N    3.010 --    13 C    1.312     9 C    1.268     1 Zn   0.563
    13   6 C    3.915 --    12 N    1.312    14 C    1.288    11 C    1.232
    14   6 C    3.817 --    15 C    1.290    13 C    1.288   113 C    1.227
    15   6 C    3.916 --    31 N    1.312    14 C    1.290    16 C    1.231
    16   6 C    3.819 --    17 C    1.620    15 C    1.231    43 H    0.998
    17   6 C    3.819 --    16 C    1.620    18 C    1.220    44 H    1.000
    18   6 C    3.902 --    19 C    1.363    31 N    1.267    17 C    1.220
    19   6 C    3.835 --    26 C    1.370    18 C    1.363    20 C    1.045
    20   6 C    3.897 --    25 C    1.427    21 C    1.427    19 C    1.045
    21   6 C    3.868 --    22 C    1.446    20 C    1.427    45 H    0.990
    22   6 C    3.911 --    21 C    1.446    23 C    1.441    46 H    0.982
    23   6 C    3.905 --    24 C    1.442    22 C    1.441    47 H    0.984
    24   6 C    3.911 --    25 C    1.447    23 C    1.442    48 H    0.982
    25   6 C    3.867 --    24 C    1.447    20 C    1.427    49 H    0.990
    26   6 C    3.915 --    19 C    1.370    30 N    1.275    27 C    1.207
    27   6 C    3.838 --    28 C    1.643    26 C    1.207    50 H    1.001
    28   6 C    3.846 --    27 C    1.643    29 C    1.199    51 H    0.995
    29   6 C    3.946 --     2 C    1.386    30 N    1.284    28 C    1.199
    30   7 N    2.997 --    29 C    1.284    26 C    1.275     1 Zn   0.569
    31   7 N    3.010 --    15 C    1.312    18 C    1.267     1 Zn   0.563
    32   6 C    3.897 --    33 C    1.426    37 C    1.425     8 C    1.049
    33   6 C    3.866 --    34 C    1.447    32 C    1.426    52 H    0.990
    34   6 C    3.911 --    33 C    1.447    35 C    1.442    53 H    0.982
    35   6 C    3.904 --    34 C    1.442    36 C    1.441    54 H    0.984
    36   6 C    3.911 --    37 C    1.448    35 C    1.441    55 H    0.982
    37   6 C    3.867 --    36 C    1.448    32 C    1.425    56 H    0.989
    38   1 H    1.034 --     2 C    0.999
    39   1 H    1.023 --     4 C    0.995
    40   1 H    1.040 --     5 C    1.001
    41   1 H    1.038 --    10 C    1.000
    42   1 H    1.040 --    11 C    0.998
    43   1 H    1.037 --    16 C    0.998
    44   1 H    1.039 --    17 C    1.000
    45   1 H    1.057 --    21 C    0.990
    46   1 H    1.036 --    22 C    0.982
    47   1 H    1.030 --    23 C    0.984
    48   1 H    1.036 --    24 C    0.982
    49   1 H    1.057 --    25 C    0.990
    50   1 H    1.041 --    27 C    1.001
    51   1 H    1.023 --    28 C    0.995
    52   1 H    1.057 --    33 C    0.990
    53   1 H    1.036 --    34 C    0.982
    54   1 H    1.030 --    35 C    0.984
    55   1 H    1.036 --    36 C    0.982
    56   1 H    1.057 --    37 C    0.989
    57  30 Zn   2.430 --    86 N    0.568    63 N    0.567    87 N    0.563
                            68 N    0.563
    58   6 C    3.796 --    85 C    1.386    59 C    1.385    94 H    0.999
    59   6 C    3.946 --    58 C    1.385    63 N    1.285    60 C    1.199
    60   6 C    3.846 --    61 C    1.643    59 C    1.199    95 H    0.995
    61   6 C    3.838 --    60 C    1.643    62 C    1.207    96 H    1.001
    62   6 C    3.915 --    64 C    1.370    63 N    1.275    61 C    1.207
    63   7 N    2.996 --    59 C    1.285    62 C    1.275    57 Zn   0.567
    64   6 C    3.835 --    62 C    1.370    65 C    1.360    88 C    1.049
    65   6 C    3.903 --    64 C    1.360    68 N    1.268    66 C    1.221
    66   6 C    3.818 --    67 C    1.618    65 C    1.221    97 H    1.000
    67   6 C    3.819 --    66 C    1.618    69 C    1.232    98 H    0.998
    68   7 N    3.010 --    69 C    1.312    65 C    1.268    57 Zn   0.563
    69   6 C    3.915 --    68 N    1.312    70 C    1.288    67 C    1.232
    70   6 C    3.817 --    71 C    1.289    69 C    1.288   116 C    1.227
    71   6 C    3.916 --    87 N    1.312    70 C    1.289    72 C    1.231
    72   6 C    3.819 --    73 C    1.620    71 C    1.231    99 H    0.998
    73   6 C    3.819 --    72 C    1.620    74 C    1.220   100 H    1.000
    74   6 C    3.902 --    75 C    1.363    87 N    1.267    73 C    1.220
    75   6 C    3.835 --    82 C    1.370    74 C    1.363    76 C    1.045
    76   6 C    3.897 --    81 C    1.427    77 C    1.426    75 C    1.045
    77   6 C    3.868 --    78 C    1.447    76 C    1.426   101 H    0.990
    78   6 C    3.911 --    77 C    1.447    79 C    1.441   102 H    0.982
    79   6 C    3.905 --    80 C    1.442    78 C    1.441   103 H    0.984
    80   6 C    3.911 --    81 C    1.446    79 C    1.442   104 H    0.982
    81   6 C    3.867 --    80 C    1.446    76 C    1.427   105 H    0.990
    82   6 C    3.915 --    75 C    1.370    86 N    1.275    83 C    1.207
    83   6 C    3.838 --    84 C    1.643    82 C    1.207   106 H    1.001
    84   6 C    3.846 --    83 C    1.643    85 C    1.199   107 H    0.995
    85   6 C    3.946 --    58 C    1.386    86 N    1.284    84 C    1.199
    86   7 N    2.997 --    85 C    1.284    82 C    1.275    57 Zn   0.568
    87   7 N    3.010 --    71 C    1.312    74 C    1.267    57 Zn   0.563
    88   6 C    3.897 --    89 C    1.426    93 C    1.425    64 C    1.049
    89   6 C    3.866 --    90 C    1.447    88 C    1.426   108 H    0.990
    90   6 C    3.911 --    89 C    1.447    91 C    1.442   109 H    0.982
    91   6 C    3.904 --    90 C    1.442    92 C    1.441   110 H    0.984
    92   6 C    3.911 --    93 C    1.448    91 C    1.441   111 H    0.982
    93   6 C    3.867 --    92 C    1.448    88 C    1.425   112 H    0.989
    94   1 H    1.034 --    58 C    0.999
    95   1 H    1.023 --    60 C    0.995
    96   1 H    1.040 --    61 C    1.001
    97   1 H    1.040 --    66 C    1.000
    98   1 H    1.040 --    67 C    0.998
    99   1 H    1.037 --    72 C    0.998
   100   1 H    1.039 --    73 C    1.000
   101   1 H    1.057 --    77 C    0.990
   102   1 H    1.036 --    78 C    0.982
   103   1 H    1.030 --    79 C    0.984
   104   1 H    1.036 --    80 C    0.982
   105   1 H    1.057 --    81 C    0.990
   106   1 H    1.041 --    83 C    1.001
   107   1 H    1.023 --    84 C    0.995
   108   1 H    1.057 --    89 C    0.990
   109   1 H    1.036 --    90 C    0.982
   110   1 H    1.030 --    91 C    0.984
   111   1 H    1.036 --    92 C    0.982
   112   1 H    1.057 --    93 C    0.989
   113   6 C    3.760 --   114 C    2.599    14 C    1.227
   114   6 C    3.763 --   113 C    2.599   118 C    1.228
   115   6 C    3.763 --   116 C    2.599   130 C    1.228
   116   6 C    3.760 --   115 C    2.599    70 C    1.227
   117  30 Zn   2.419 --   128 N    0.564   147 N    0.563   123 N    0.563
                           146 N    0.563
   118   6 C    3.804 --   145 C    1.285   119 C    1.284   114 C    1.228
   119   6 C    3.918 --   123 N    1.314   118 C    1.284   120 C    1.233
   120   6 C    3.815 --   121 C    1.616   119 C    1.233   154 H    0.998
   121   6 C    3.823 --   120 C    1.616   122 C    1.223   155 H    1.001
   122   6 C    3.903 --   124 C    1.365   123 N    1.263   121 C    1.223
   123   7 N    2.997 --   119 C    1.314   122 C    1.263   117 Zn   0.563
   124   6 C    3.831 --   122 C    1.365   125 C    1.365   148 C    1.053
   125   6 C    3.903 --   124 C    1.365   128 N    1.263   126 C    1.223
   126   6 C    3.823 --   127 C    1.617   125 C    1.223   156 H    1.001
   127   6 C    3.815 --   126 C    1.617   129 C    1.233   157 H    0.998
   128   7 N    2.997 --   129 C    1.314   125 C    1.263   117 Zn   0.564
   129   6 C    3.920 --   128 N    1.314   130 C    1.285   127 C    1.233
   130   6 C    3.804 --   129 C    1.285   131 C    1.284   115 C    1.228
   131   6 C    3.918 --   147 N    1.314   130 C    1.284   132 C    1.233
   132   6 C    3.815 --   133 C    1.616   131 C    1.233   158 H    0.998
   133   6 C    3.823 --   132 C    1.616   134 C    1.223   159 H    1.001
   134   6 C    3.903 --   135 C    1.365   147 N    1.263   133 C    1.223
   135   6 C    3.831 --   134 C    1.365   142 C    1.365   136 C    1.052
   136   6 C    3.896 --   141 C    1.424   137 C    1.424   135 C    1.052
   137   6 C    3.866 --   138 C    1.448   136 C    1.424   160 H    0.990
   138   6 C    3.911 --   137 C    1.448   139 C    1.441   161 H    0.982
   139   6 C    3.903 --   140 C    1.441   138 C    1.441   162 H    0.984
   140   6 C    3.911 --   141 C    1.448   139 C    1.441   163 H    0.982
   141   6 C    3.866 --   140 C    1.448   136 C    1.424   164 H    0.990
   142   6 C    3.903 --   135 C    1.365   146 N    1.263   143 C    1.223
   143   6 C    3.823 --   144 C    1.617   142 C    1.223   165 H    1.001
   144   6 C    3.815 --   143 C    1.617   145 C    1.233   166 H    0.998
   145   6 C    3.920 --   146 N    1.314   118 C    1.285   144 C    1.233
   146   7 N    2.997 --   145 C    1.314   142 C    1.263   117 Zn   0.563
   147   7 N    2.997 --   131 C    1.314   134 C    1.263   117 Zn   0.563
   148   6 C    3.896 --   153 C    1.424   149 C    1.424   124 C    1.053
   149   6 C    3.866 --   150 C    1.448   148 C    1.424   167 H    0.990
   150   6 C    3.911 --   149 C    1.448   151 C    1.441   168 H    0.982
   151   6 C    3.903 --   152 C    1.441   150 C    1.441   169 H    0.985
   152   6 C    3.911 --   153 C    1.448   151 C    1.441   170 H    0.982
   153   6 C    3.866 --   152 C    1.448   148 C    1.424   171 H    0.990
   154   1 H    1.038 --   120 C    0.998
   155   1 H    1.041 --   121 C    1.001
   156   1 H    1.041 --   126 C    1.001
   157   1 H    1.038 --   127 C    0.998
   158   1 H    1.038 --   132 C    0.998
   159   1 H    1.041 --   133 C    1.001
   160   1 H    1.057 --   137 C    0.990
   161   1 H    1.036 --   138 C    0.982
   162   1 H    1.031 --   139 C    0.984
   163   1 H    1.036 --   140 C    0.982
   164   1 H    1.057 --   141 C    0.990
   165   1 H    1.041 --   143 C    1.001
   166   1 H    1.038 --   144 C    0.998
   167   1 H    1.057 --   149 C    0.990
   168   1 H    1.036 --   150 C    0.982
   169   1 H    1.031 --   151 C    0.985
   170   1 H    1.036 --   152 C    0.982
   171   1 H    1.057 --   153 C    0.990
 ---------------------------------------------------------------------------

Topologies differ in total number of bonds
Writing topology from bond orders to xtbtopo.mol

 dipole moment from electron density (au)
     X       Y       Z   
 -79.9567  -0.0406   0.0182  total (Debye):  203.230


           -------------------------------------------------
          | TOTAL ENERGY             -321.037548576546 Eh   |
          | GRADIENT NORM               0.067766666403 Eh/α |
          | HOMO-LUMO GAP               0.336369332057 eV   |
           -------------------------------------------------
########################################################################
[WARNING] Runtime exception occurred
-1- restart_readRestart: Dimension missmatch in restart file.
########################################################################

------------------------------------------------------------------------
 * finished run on 2022/07/30 at 11:18:51.944     
------------------------------------------------------------------------
 total:
 * wall-time:     0 d,  0 h,  0 min, 10.640 sec
 *  cpu-time:     0 d,  0 h,  0 min, 10.580 sec
 * ratio c/w:     0.994 speedup
 SCF:
 * wall-time:     0 d,  0 h,  0 min, 10.192 sec
 *  cpu-time:     0 d,  0 h,  0 min, 10.137 sec
 * ratio c/w:     0.995 speedup

