236
 energy: -423.692663846814 gnorm: 0.000550848599 xtb: 6.5.1 (b24c23e)
Fe          52.71558613052326       -0.33180910878304       -0.62484855943501
C           49.52674446998127       -0.25294707228237       -1.74067817131626
C           50.02466921821983        0.88743459007329       -1.14162854828437
C           49.25791373651048        2.07467930049941       -0.91058005821639
C           50.05289516664013        2.92004414635457       -0.21009782240475
C           51.31652629969873        2.26402993932466       -0.05778697154217
N           51.28297262331738        1.02029439770313       -0.61320683512772
C           52.45434355498742        2.88134226061443        0.47255891879717
C           52.32847445112440        4.17120222758127        1.02982582649794
C           52.21924746819526        5.27083369083509        1.53161269431516
C           52.09849826194166        6.55250125955739        2.11569077507528
C           53.20148189390937        7.19104519859995        2.69486758579933
C           53.03207857407073        8.44487393109164        3.25449259295939
N           51.86421122386426        9.08239758104072        3.27034522822618
C           50.81087348742337        8.48197787673536        2.72221907440968
C           50.87345795389312        7.22932653738565        2.13810954922973
C           53.72491855694675        2.30809864485669        0.39293833399048
C           54.93451494066145        3.01107316746010        0.68776938678307
C           55.95489203167471        2.16438851143074        0.40250709861949
N           54.00045543189762        1.04029912216836       -0.04076208626020
C           55.36133061353924        0.93395084685016       -0.02061371323966
C           56.08652448473951       -0.24951314318503       -0.20768075478923
C           55.46934334087393       -1.49598737708326       -0.37410155345818
C           56.17037496271589       -2.74147189682246       -0.34233756051811
C           55.23794569700986       -3.71677118236198       -0.47970371281016
C           53.97825330279591       -3.05873336993237       -0.63968264947780
N           54.13215424889343       -1.70140110246379       -0.55039210109568
C           52.79599895751316       -3.72026679600216       -0.97449057451057
C           52.80431091411692       -5.12946955024988       -1.04351652454636
C           52.80789438273121       -6.34191702919993       -1.09727764422097
C           52.81552336976427       -7.75378436126103       -1.16778809104412
C           53.98219320550575       -8.48622430055630       -0.91892100673197
C           53.93797648249843       -9.86630329444563       -1.00533391967385
N           52.83336388482435      -10.54060809798561       -1.31459388958052
C           51.71997595534352       -9.85167686409639       -1.55182705507814
C           51.65804413232436       -8.47082632518359       -1.49264658387658
C           51.62694250349035       -3.04045755143765       -1.33483889842307
C           50.47549343382558       -3.67775366313375       -1.89886341346833
C           49.59046099344460       -2.69396624795322       -2.19181096452624
C           50.18844288890745       -1.46430528929304       -1.76529493094788
N           51.44461889209805       -1.69290193596803       -1.26236119741378
H           48.51976242597011       -0.21722460290274       -2.14129254147598
H           48.23825991365567        2.21709304400890       -1.23158702030290
H           49.82907447327759        3.90968223657467        0.15502032535981
H           54.17070483418631        6.70716798115618        2.70369151422687
H           53.87020857813057        8.96323279551288        3.71133135977993
H           49.87378214236235        9.03038573293831        2.75293855212199
H           49.99050527107524        6.77663413231320        1.70343146793967
H           54.98247159695055        4.02672054756911        1.04645069521025
H           57.01508925732259        2.33542947522641        0.49626109500092
H           57.23610765918978       -2.84411569023754       -0.21656691198764
H           55.37903355450044       -4.78552390556842       -0.49866856179899
H           54.90363136854751       -7.97672512218738       -0.66412112924593
H           54.82823391846780      -10.45979914535163       -0.81813025281871
H           50.83736380405509      -10.43355603457403       -1.80131199010480
H           50.73016639788523       -7.94922038416660       -1.69388018300682
H           50.38087638489823       -4.73987083368276       -2.05928669594400
H           48.60979886732265       -2.77701561183793       -2.63271202106198
Fe          84.24413144778178       -0.16673276786022        1.01912852111395
C           86.94333802373654        0.34905107649310        2.98272356272646
C           86.61228389260626       -0.95634407021014        2.67669740549000
C           87.37332780979239       -2.09649757859530        3.09126051571833
C           86.82018500222838       -3.17426505468189        2.48299912158913
C           85.69570081794403       -2.69352344073266        1.73834274429521
N           85.58418279695393       -1.34114000895195        1.85460809797540
C           84.78124130334247       -3.52659884264925        1.08361886660166
C           85.05063345853793       -4.91009870096404        1.02295564354445
C           85.28880140658104       -6.09816912237667        0.95485918615375
C           85.56058287165843       -7.48341922479522        0.87975145264192
C           84.65630363968772       -8.36774583988976        0.27983637835094
C           84.96804979061039       -9.71480765878541        0.23237247304865
N           86.09355312638252      -10.21876474162775        0.73211977258070
C           86.95845157319994       -9.38470364819897        1.30373318053685
C           86.74220748120381       -8.02173094609910        1.40254100679323
C           83.56800914125672       -3.05794798068544        0.57715857674307
C           82.50884317255355       -3.91060349483308        0.13511402415912
C           81.45427691713698       -3.10505556726290       -0.14530589517341
N           83.17881462018789       -1.74660471046965        0.52877030391180
C           81.89001435911871       -1.76260748650943        0.08242166416249
C           81.12815626303632       -0.63333340027799       -0.24994769072255
C           81.67325202525730        0.65811488876853       -0.28316218707592
C           81.00787073676429        1.78746872166477       -0.85360611633734
C           81.88261059083422        2.82274204651255       -0.80122330889568
C           83.05818534229870        2.33212710182637       -0.15123653310517
N           82.92132273814872        1.00277185537056        0.14552163836779
C           84.12646579706397        3.14367563907836        0.23324564187654
C           84.12805991584194        4.49645151916904       -0.16732866232133
C           84.13563662435067        5.65776877770949       -0.51969612394007
C           84.13929829409867        7.01214032843807       -0.92484740731256
C           83.15362369386649        7.51553908371671       -1.78189941341323
C           83.19994441017474        8.84956529170407       -2.14569860848420
N           84.14113771620609        9.68755606236318       -1.71866008061282
C           85.08179330653155        9.21673396445795       -0.90380648385265
C           85.12638059687234        7.90005841593210       -0.48128153238524
C           85.14395554088566        2.69681957195686        1.08461053197854
C           86.10829278051324        3.56052385852640        1.69640061163732
C           86.84076300776513        2.79124358043942        2.53844389558507
C           86.35076745064454        1.45243275830418        2.40136947707003
N           85.30123573018579        1.41585342643559        1.51848107076252
H           87.77929824429756        0.51644722578274        3.65277508458233
H           88.23041996566529       -2.05602161144559        3.74451802033315
H           87.11889179407235       -4.20875069334632        2.54129694391809
H           83.72787353704898       -7.99923641335167       -0.13942482203789
H           84.28494204397019      -10.42358322020999       -0.22679980015397
H           87.86634084862668       -9.82969094883130        1.70063097717235
H           87.47353675627923       -7.37819296398099        1.87637135184561
H           82.57022226876586       -4.98529168895767        0.07390346202553
H           80.47665882188930       -3.38144800853701       -0.50513023298948
H           80.00831036605685        1.77341973818798       -1.25662421182622
H           81.74720002671046        3.83668795963854       -1.14190452885244
H           82.36859695439558        6.86758758194398       -2.15263602711273
H           82.44823381377149        9.26701039626322       -2.80938990145084
H           85.83394994827233        9.92785457814265       -0.57454663210001
H           85.91049206337466        7.55825676191913        0.18347171564863
H           86.18611087843146        4.61996067655318        1.51116697719830
H           87.65616277939397        3.08185888583565        3.18161464009268
C           57.48741853352663       -0.19871866092808       -0.11849760527354
C           58.70161611732983       -0.14499579801315       -0.03471551720467
C           68.14153187698501       -0.58177477332386       -0.80683344105679
C           69.29198698924706       -0.79635750994206       -1.15433995603483
C           78.63410065053768       -0.97297903469552       -0.98428616450551
C           79.79750111440894       -0.81421389048230       -0.65548957766488
Fe          63.49407161600255       -0.02719084340065        0.21989183038816
C           60.09919121069536       -0.08822722999010        0.08723677836634
C           60.75780233166494        1.09871147551144       -0.26328353113415
C           60.08630490586879        2.30555607406602       -0.62902815987102
C           61.04848998445019        3.24293143327845       -0.82281495846792
C           62.30253938960475        2.58822128697276       -0.61914869908011
N           62.10940919295624        1.28399440344822       -0.25695697856634
C           63.53972221664419        3.17208979487348       -0.91010735420376
C           63.56629814217050        4.52632247329738       -1.30559348711824
C           63.58562286203677        5.69177542371847       -1.64357811892878
C           63.60529552589814        7.04639216556241       -2.04795373516541
C           64.80060513440019        7.67945403629385       -2.40795362677958
C           64.76330156547830        9.00461115925354       -2.80421871063512
N           63.63970397808984        9.71481808063828       -2.86142345918351
C           62.49930306123989        9.12041580557026       -2.52029323707936
C           62.42797346598131        7.80091534302286       -2.11025170806811
C           64.73325862940951        2.44642869399633       -0.93707171219846
C           65.95843336410333        2.94368516788940       -1.47926084323187
C           66.84666627529913        1.91853272313090       -1.43346355633921
N           64.87931269654979        1.14690460216198       -0.53605883942949
C           66.17186294907815        0.81873062174018       -0.81937138200489
C           66.81270265031873       -0.36723462967557       -0.42716584617011
C           66.19930778190489       -1.29741126921168        0.42931067707186
C           66.90397714870306       -2.33572827385231        1.11255742047285
C           66.00189073563593       -2.95643442080220        1.91444766622751
C           64.74266259589869       -2.32326022667272        1.67720384805400
N           64.88628421577280       -1.29083616691072        0.78902484218583
C           63.52502784921397       -2.81170643871664        2.15408439994538
C           63.53687378340085       -3.90510722789082        3.04547105563946
C           63.54288395407656       -4.83433545596913        3.82603039340322
C           63.54892483049651       -5.92105023445554        4.73030685968546
C           62.35449083852031       -6.49107710064209        5.18611675243466
C           62.41442709127249       -7.55324692659453        6.07066919193614
N           63.55931192004406       -8.06565228523631        6.51453882482874
C           64.69896386687540       -7.52949644505195        6.08588896956878
C           64.74869552649099       -6.46622299266926        5.20185967638918
C           62.28936689475072       -2.33340203132770        1.70336034296548
C           61.04241643987780       -2.98461620149475        1.95224275970407
C           60.09593902868923       -2.27713442956328        1.28450076038572
C           60.76592512594996       -1.17332189254991        0.67155927129184
N           62.10839404538843       -1.23340157902278        0.91463526328925
H           59.01697408486314        2.41416198842584       -0.71064458377571
H           60.93351743866916        4.27715034871172       -1.10477525089542
H           65.73780275537897        7.13710898284591       -2.37641721270592
H           65.67505405169420        9.52135302921585       -3.08953330316344
H           61.60201511033569        9.72960945990646       -2.57881927445764
H           61.47785494744047        7.35500751199625       -1.84208525006014
H           66.10178329328339        3.94187223036839       -1.86070111190033
H           67.87603299839380        1.90795770042611       -1.75275398214356
H           67.95790609301541       -2.53568411297400        1.00900057288788
H           66.15660463317833       -3.78450961606719        2.58728996537318
H           61.40048703890782       -6.10401244310120        4.84919527600689
H           61.50398818959474       -8.01548281788177        6.44093780858807
H           65.61391776487991       -7.97240088096459        6.46851263944515
H           65.69898741611384       -6.05942266361245        4.87792096246059
H           60.92189934770919       -3.87624383819048        2.54624466304982
H           59.03478186002700       -2.45911030238372        1.23213916099077
Fe          73.96478149825521       -1.35455894043744       -1.91144150873641
C           70.62850517013180       -1.02200268176502       -1.49597015135042
C           71.29504807195579       -0.09084297899083       -2.31140767526627
C           70.64030093904211        0.94809048646627       -3.04146673220176
C           71.57782672303536        1.50771710148038       -3.84936524133201
C           72.81173724020452        0.84722643507476       -3.56097911240582
N           72.61728978403771       -0.13866180524496       -2.63320055282139
C           74.05758538544357        1.26182791345153       -4.04137277226287
C           74.10142269142986        2.26294090780529       -5.03362739149639
C           74.14193617722245        3.10356927697401       -5.90811227355050
C           74.18767386067911        4.08429775352544       -6.92530107946365
C           75.40667678564130        4.52991550122153       -7.44934344634895
C           75.39585566958789        5.48957210981064       -8.44606659928412
N           74.27651958885524        6.01623594130883       -8.93575368475989
C           73.11367167554486        5.59834323554975       -8.44245739310580
C           73.01486783947821        4.64328501450809       -7.44624500846214
C           75.26316375106029        0.81590715604435       -3.48682798961930
C           76.52693355326744        1.44602683470565       -3.70349175524256
C           77.40582475562456        0.85499547302189       -2.85328942743956
N           75.37963118341642       -0.17682111316697       -2.55523952499803
C           76.68620329562148       -0.16981465722943       -2.16520852895967
C           77.28928674210208       -1.13640397747542       -1.34412898021957
C           76.62822132564661       -2.32171751195749       -0.98415893933094
C           77.27904160763529       -3.47017981811082       -0.43821964823640
C           76.35053480352207       -4.46017308059110       -0.39140391770471
C           75.12379492495604       -3.89088055950282       -0.85217782118033
N           75.31200460480640       -2.58885895975707       -1.22119866159697
C           73.88417756994033       -4.53784089435144       -0.78469032555512
C           73.85382526564162       -5.90058227005396       -0.42223183386219
C           73.82683499747885       -7.07654737766584       -0.12326541880329
C           73.79454429179312       -8.44374511008155        0.23511937910500
C           72.58089491281235       -9.11730454679966        0.41576244170866
C           72.60379404725661      -10.45410387348863        0.77192706381544
N           73.73011201495891      -11.13882146000710        0.95266063186999
C           74.88792247007633      -10.50609342766670        0.78159292454878
C           74.97469616066932       -9.17164353555115        0.42644703882499
C           72.67166768065877       -3.85687153942496       -0.92786577197144
C           71.40086050515855       -4.39184299806895       -0.55242755499714
C           70.51023647444848       -3.36983626513990       -0.63458859657039
C           71.23154243739744       -2.23429656220899       -1.11594861547416
N           72.54633726759366       -2.54347008072795       -1.28882560622308
H           69.59149193776628        1.18544578178847       -2.96757311229377
H           71.46184909681446        2.31364032510494       -4.55612823237357
H           76.34142071412003        4.12676501689887       -7.07898161168796
H           76.32629309764799        5.85340673518298       -8.87218661937264
H           72.22070408211148        6.04939617295854       -8.86532464646026
H           72.04732459147803        4.33061500222265       -7.07264930314320
H           76.70114206099289        2.25350488978161       -4.39634641522934
H           78.45539584592238        1.06332119695793       -2.72372136208340
H           78.31777116789829       -3.51238763902640       -0.15420192944157
H           76.46724915394121       -5.47575801089748       -0.04878533091532
H           71.64080102889524       -8.59671143354443        0.27904607701754
H           71.67767483183701      -11.00187078075647        0.92008798016157
H           75.78679810163781      -11.09556071398757        0.93705334802573
H           75.93858628658327       -8.69432770976964        0.29788277463641
H           71.22943432308628       -5.40944406983234       -0.24010084916290
H           69.45262191967375       -3.38526146134940       -0.42769148053839
