124
 energy: -222.435332122615 gnorm: 1.043924317765 xtb: 6.5.1 (b24c23e)
Fe          13.73813300000000       -0.01305400000000       -0.01574700000000
C           10.35242700000000        0.12927000000000        0.03212900000000
C           11.01792200000000        0.91907200000000        0.87965000000000
C           10.37031700000000        1.80460100000000        1.84038500000000
C           11.31482800000000        2.45257600000000        2.49707200000000
C           12.61935100000000        2.01401200000000        1.98168500000000
N           12.43770500000000        1.03649600000000        0.95702600000000
C           13.81272200000000        2.48744200000000        2.38795400000000
C           13.85413500000000        3.50131800000000        3.41816100000000
C           13.89116400000000        4.34653600000000        4.27690200000000
C           13.93607400000000        5.35484900000000        5.30168300000000
C           15.14166700000000        6.00000900000000        5.60096100000000
C           15.16351800000000        6.97658800000000        6.60030800000000
N           14.02247200000000        7.29180200000000        7.27116200000000
C           12.83996100000000        6.67728000000000        6.99669600000000
C           12.77453400000000        5.69527000000000        6.00463600000000
C           15.10762300000000        2.03251400000000        1.82218000000000
C           16.39893800000000        2.65222500000000        2.14310200000000
C           17.33528799999999        1.99016200000000        1.49514900000000
N           15.24803900000000        1.02860800000000        1.01070700000000
C           16.64985200000000        0.93708300000000        0.75478400000000
C           17.24588500000000       -0.00100800000000       -0.00070500000000
C           16.48889600000000       -1.04824900000000       -0.72685700000000
C           17.04177900000000       -2.12912500000000       -1.26359100000000
C           15.99533200000000       -2.85134000000000       -1.95872800000000
C           14.86875500000000       -2.16546600000000       -1.80142200000000
N           15.09050300000000       -0.99284700000000       -1.01441000000000
C           13.57128900000000       -2.53655000000000       -2.42057600000000
C           13.56459200000000       -3.54676700000000       -3.45680500000000
C           13.55945500000000       -4.38850300000000       -4.31983100000000
C           13.55315700000000       -5.39284400000000       -5.34953100000000
C           14.74623400000000       -6.01708000000000       -5.73016800000000
C           14.71836800000000       -6.98969700000000       -6.73326900000000
N           13.54144700000000       -7.32161100000000       -7.32907700000000
C           12.37009800000000       -6.72788200000000       -6.97461200000000
C           12.35396300000000       -5.75027600000000       -5.97602000000000
C           12.40822600000000       -1.97397800000000       -2.04942600000000
C           11.08853300000000       -2.29047400000000       -2.59355900000000
C           10.22638600000000       -1.56273400000000       -1.91043400000000
C           10.98584400000000       -0.77948200000000       -0.93683100000000
N           12.25881300000000       -1.01207000000000       -1.00773700000000
H            9.26898200000000        0.15285100000000        0.05120000000000
H            9.30596800000000        1.92345500000000        1.99781100000000
H           11.13243300000000        3.18430800000000        3.27369700000000
H           16.05239800000000        5.75116300000000        5.06847800000000
H           16.08806600000000        7.48399900000000        6.84267700000000
H           11.95029100000000        6.95104000000000        7.54858900000000
H           11.83100300000000        5.20789600000000        5.78831000000000
H           16.57361100000000        3.50035000000000        2.79227400000000
H           18.39449600000000        2.20716400000000        1.53118400000000
H           18.08359400000000       -2.41623400000000       -1.21782100000000
H           16.12101700000000       -3.76759600000000       -2.52104800000000
H           15.68535900000000       -5.75518500000000       -5.25753600000000
H           15.63291100000000       -7.48083200000000       -7.03808200000000
H           11.45092300000000       -7.01459100000000       -7.46792700000000
H           11.41910700000000       -5.27940700000000       -5.69619200000000
H           10.84121400000000       -2.98419000000000       -3.38685800000000
H            9.15368500000000       -1.55931500000000       -2.05263700000000
Fe          32.05624700000000        0.01808500000000        0.00191100000000
C           35.44195300000000       -0.09606500000000       -0.09565000000000
C           34.77645800000000       -1.22883800000000       -0.33835100000000
C           35.42406300000000       -2.50791100000000       -0.60508200000000
C           34.47955100000000       -3.40410700000000       -0.82403800000000
C           33.17502900000000       -2.73667400000000       -0.71225500000000
N           33.35667500000000       -1.35552100000000       -0.39939800000000
C           31.98165700000000       -3.32836300000000       -0.90997600000000
C           31.94024500000000       -4.73294400000000       -1.25118700000000
C           31.90321600000000       -5.90379500000000       -1.53568400000000
C           31.85830600000000       -7.30086300000000       -1.87490600000000
C           30.65271299999999       -7.88889600000000       -2.27492700000000
C           30.63086200000000       -9.24784600000000       -2.59997300000000
N           31.77190800000000       -9.98537300000000       -2.52609000000000
C           32.95441900000000       -9.43436200000000       -2.13962500000000
C           33.01984600000000       -8.07887700000000       -1.80617700000000
C           30.68675600000000       -2.60929000000000       -0.81001600000000
C           29.39544100000000       -3.20283200000000       -1.17708600000000
C           28.45909200000000       -2.30689900000000       -0.94155600000000
N           30.54634100000000       -1.39753900000000       -0.36507200000000
C           29.14452800000000       -1.13092700000000       -0.41790800000000
C           28.54849500000000       -0.00100800000000       -0.00070500000000
C           29.30548300000000        1.15977000000000        0.52523000000000
C           28.75260100000000        2.17526100000000        1.17726800000000
C           29.79904800000000        3.14256600000000        1.44019600000000
C           30.92562500000000        2.65546800000000        0.93235300000000
N           30.70387600000000        1.37809900000000        0.33006600000000
C           32.22309100000000        3.37731000000000        0.93295700000000
C           32.22978700000000        4.78517900000000        1.26793600000000
C           32.23492400000000        5.95792000000000        1.54724500000000
C           32.24122300000000        7.35717000000000        1.88053400000000
C           31.04814600000000        8.00428100000000        2.22083100000000
C           31.07601200000000        9.36441900000000        2.54055000000000
N           32.25293300000000       10.04611700000000        2.51952400000000
C           33.42428200000000        9.43712700000000        2.19197100000000
C           33.44041700000000        8.07829800000000        1.86565600000000
C           33.38615400000000        2.76999500000000        0.64070800000000
C           34.70584700000000        3.39943200000000        0.63297800000000
C           35.56799400000000        2.43960000000000        0.35914300000000
C           34.80853600000000        1.20198900000000        0.18678800000000
N           33.53556700000000        1.38224000000000        0.34998800000000
H           36.52539700000000       -0.12453600000000       -0.10609600000000
H           36.48841200000000       -2.70402500000000       -0.62626300000000
H           34.66194699999999       -4.44622900000000       -1.05330000000000
H           29.74198200000000       -7.30418500000000       -2.33473100000000
H           29.70631300000000       -9.71632600000000       -2.91099600000000
H           33.84408800000000      -10.04851900000000       -2.09123700000000
H           33.96337700000000       -7.64303200000000       -1.49898000000000
H           29.22076900000000       -4.19532800000000       -1.57166300000000
H           27.39988400000000       -2.44922400000000       -1.10928300000000
H           27.71078600000000        2.28337300000000        1.44715400000000
H           29.67336300000000        4.09550500000000        1.93782700000000
H           30.10902100000000        7.46423500000000        2.23871200000000
H           30.16146800000000        9.87813200000000        2.80554900000000
H           34.34345699999999       10.00766200000000        2.18476800000000
H           34.37527299999999        7.59643000000000        1.60522300000000
H           34.95316500000000        4.43634700000000        0.82105600000000
H           36.64069400000000        2.55987900000000        0.28320700000000
C           18.39682600000000        0.01461200000000        0.01022100000000
C           19.85505300000000       -0.00722500000000       -0.00765200000000
C           20.98898100000000       -0.02797900000000       -0.00914300000000
C           22.35036300000000       -0.04056800000000       -0.01133400000000
C           23.62458100000000       -0.03026200000000       -0.01610000000000
C           24.81304400000000       -0.01146400000000       -0.02225600000000
C           26.16540500000000        0.01332100000000       -0.00638800000000
C           27.26567200000000        0.01461200000000        0.01022100000000
124
 energy: -222.685591471146 gnorm: 0.382125200935 xtb: 6.5.1 (b24c23e)
Fe          13.73923968161797       -0.00737433649475       -0.01244252145883
C           10.35419080187642        0.11870942376268        0.02024057821015
C           11.02533854214412        0.91879954972291        0.87932226589242
C           10.37057555894860        1.79895642435712        1.83451892744868
C           11.32528493697369        2.45288030915951        2.49714538713203
C           12.61651710924969        2.00748357670138        1.97589042232325
N           12.42890978397909        1.04090038451597        0.96626486435615
C           13.82795774569089        2.49168474509800        2.39024630052675
C           13.85846330586286        3.49704056674478        3.41171938528711
C           13.89163136048846        4.34775373451454        4.27861164198986
C           13.93570718840104        5.35097428645686        5.29772063898719
C           15.13807054267721        6.00050724936647        5.60274213443785
C           15.14766739650148        6.97092847597027        6.59927356056636
N           14.02243672466540        7.29086430590749        7.27020183839211
C           12.85546586058067        6.67569995783028        6.99034321946646
C           12.77806509983855        5.69694506186084        6.00502967892721
C           15.09812041934665        2.04941451064026        1.83845639174089
C           16.38082725520339        2.66107922070466        2.15438977544778
C           17.32678278411652        1.98325012122507        1.49018480806090
N           15.24547500973489        1.03347310164743        1.00669043005256
C           16.61809905649500        0.95535462849033        0.76664133734065
C           17.20315746089191       -0.01376741976543       -0.00892290691400
C           16.45928938553433       -1.04727135910736       -0.73155862413058
C           17.03993220890998       -2.14431993436814       -1.27523939714577
C           16.01140270898340       -2.85509812840717       -1.96068382541364
C           14.85701822834007       -2.15423250892310       -1.80141173363812
N           15.07991455978755       -1.00255340799595       -1.00885124603811
C           13.58407529083065       -2.53530841266925       -2.41926021141544
C           13.57095479424521       -3.54042989159924       -3.44789872884536
C           13.56095481389251       -4.38845069545161       -4.31982661765374
C           13.55301262992855       -5.38849172124540       -5.34508805320136
C           14.74258401923981       -6.01755783521639       -5.73147853102698
C           14.70263125715087       -6.98429004221063       -6.73109916415571
N           13.54144094243530       -7.32054884150872       -7.32797546343566
C           12.38584389005519       -6.72595892983232       -6.96922268194759
C           12.35746385328579       -5.75159681509464       -5.97655726672574
C           12.40639473288052       -1.97119012969609       -2.04722654160124
C           11.09620015251244       -2.28963372006348       -2.59161880844509
C           10.21793881380886       -1.55468418767848       -1.90128669672694
C           10.97101487324378       -0.77327972854518       -0.93019719548657
N           12.26350129340921       -1.01201548037047       -1.01449704423038
H            9.27013467847960        0.14927816507700        0.04680377160707
H            9.30670126134357        1.91742433843949        1.99149724889167
H           11.14323748467897        3.18421715437219        3.27341794806701
H           16.05036172781289        5.75167570239739        5.06963466313380
H           16.07716201558756        7.48348883441066        6.84544575357012
H           11.96126664476887        6.95334610744321        7.54765592149366
H           11.83297984879415        5.20890423244957        5.78877657137070
H           16.56483334103435        3.50455501946006        2.79702854057649
H           18.38972400592841        2.19694448210610        1.52329187106595
H           18.08281685523314       -2.41877846903280       -1.21888259212248
H           16.12588294214768       -3.76947806655782       -2.52026592561909
H           15.68349868189966       -5.75568991858742       -5.25847448818881
H           15.62197253948998       -7.48049635057734       -7.04011662880244
H           11.46182025226667       -7.01669749643131       -7.46772695403714
H           11.42089124708993       -5.28029789218278       -5.69674349713143
H           10.85114129705850       -2.98357438413836       -3.38520865724000
H            9.15002451523102       -1.55396883606478       -2.04727078256302
Fe          32.05508523181232        0.01286393495965       -0.00110814819596
C           35.44021813288759       -0.08018803736699       -0.09259997431877
C           34.76894024577431       -1.22830208797162       -0.33817892577778
C           35.42365297589066       -2.49995101584780       -0.60325662413009
C           34.46909569199823       -3.40440863450058       -0.82428217201802
C           33.17764672912403       -2.72853058459623       -0.70962405667617
N           33.36591612191787       -1.36591115749858       -0.39901255341155
C           31.96681814247438       -3.33263688459707       -0.91222926278354
C           31.93578474258956       -4.72532751598195       -1.25079765553662
C           31.90265526644292       -5.90592949183420       -1.53586169597397
C           31.85867469948350       -7.29544174092152       -1.87361280560177
C           30.65631861807359       -7.89070318888056       -2.27444539233952
C           30.64672192044023       -9.24405087638592       -2.59563740414246
N           31.77194051847345       -9.98411549605010       -2.52579079444802
C           32.93890601405418       -9.42808659372589       -2.14153396795171
C           33.01630886412420       -8.08008757517113       -1.80741608934005
C           30.69686158757920       -2.62941704859885       -0.81526464228018
C           29.41044439221693       -3.21520596355128       -1.17865715415938
C           28.46607494411306       -2.29961778837244       -0.93806784693177
N           30.55248711125481       -1.39716336289154       -0.37253528606026
C           29.17533291556001       -1.14243543484125       -0.42345744432762
C           28.61713782882207        0.00953281025731        0.00712953960016
C           29.33540803228959        1.15800036822227        0.51944989635385
C           28.75431447234429        2.19305295542057        1.18332461862028
C           29.78178525336816        3.14557006011165        1.44237135908797
C           30.93766305524513        2.64954628261028        0.92258673670812
N           30.71560988305924        1.37784058209733        0.34211453763218
C           32.20975650767080        3.37553128758892        0.93247643271818
C           32.22333585591534        4.77433697550873        1.26724934618307
C           32.23342576434581        5.95788934131395        1.54718424796413
C           32.24136679547816        7.35112036203647        1.87906509380971
C           31.05181063844861        8.00565975407055        2.22056937146752
C           31.09175755903854        9.35977696411650        2.53702366474771
N           32.25293887938069       10.04466227144085        2.51918547357993
C           33.40852811117277        9.43150992119293        2.19309034123665
C           33.43690299953781        8.07944454730783        1.86651652978466
C           33.38788062874703        2.76648536449967        0.63923542273524
C           34.69812482168468        3.39722003794634        0.63326432076258
C           35.57645340100846        2.42752156688480        0.35690875988195
C           34.82359245675849        1.19282717642801        0.18483309450606
N           33.53074479733900        1.38826722948299        0.34678566266701
H           36.52425965819689       -0.11886054348884       -0.10533037802539
H           36.48760859611478       -2.69551770504221       -0.62430680185521
H           34.65116705719999       -4.44599457224067       -1.05336440165880
H           29.74401469135666       -7.30544967753675       -2.33457911382811
H           29.71721601573180       -9.71843892333612       -2.90913727857217
H           33.83311144077609      -10.04889920972631       -2.09369396427513
H           33.96139755677628       -7.64395431300423       -1.49960947983119
H           29.22896695328652       -4.20089016623986       -1.57264155175349
H           27.40402004601929       -2.43810273960622       -1.10491445711332
H           27.71180877971992        2.28590105607497        1.44895662972638
H           29.66823186605427        4.09558132478985        1.93980758023885
H           30.11088709978224        7.46530352386980        2.23866224139285
H           30.17240658379195        9.87970601860951        2.80421634429648
H           34.33255970401253       10.00857210380397        2.18667850248745
H           34.37348276184318        7.59736397705120        1.60570524115140
H           34.94319749442295        4.43456521333764        0.82135870024163
H           36.64436103265819        2.55253033924578        0.28136821226386
C           18.49141811392149        0.00306721653511       -0.00072077961274
C           19.79126737757035       -0.00912385774308       -0.01048763074063
C           21.03900684580747       -0.02887799944735       -0.00811557848136
C           22.31849542787097       -0.04052952601488       -0.01149190050095
C           23.58798136314001       -0.03101974613161       -0.01641998845950
C           24.80788514656054       -0.01251838277826       -0.02205465723751
C           26.09600308785221        0.01804603253305       -0.00649478497494
C           27.30477227899020        0.02904651155730        0.01326365045823
124
 energy: -222.756041524593 gnorm: 0.163218083349 xtb: 6.5.1 (b24c23e)
Fe          13.74108231460281        0.00030675178909       -0.00766716610420
C           10.35966109129048        0.10640904298394        0.00663915714830
C           11.03474887011377        0.91613977299183        0.87898755263676
C           10.37650889481043        1.79042608450107        1.82577024730905
C           11.34085100686185        2.44968863153057        2.49393379297254
C           12.61615487064207        1.99901662615208        1.97121396675071
N           12.41810326681998        1.04821911988184        0.97917040350613
C           13.84353350922409        2.49533407519396        2.39242522930817
C           13.86416249169593        3.49492318856811        3.40425099006219
C           13.89277784101933        4.34398931481343        4.27466495482829
C           13.93524918552671        5.34171107801932        5.28879106910579
C           15.13239664184862        5.99809826753811        5.60249507411719
C           15.12870138887808        6.96333744974759        6.59722794798158
N           14.02239099007721        7.29065458810193        7.27000270619392
C           12.87385187097040        6.67303968476783        6.98186342296730
C           12.78338333103110        5.69643602243151        6.00240016472833
C           15.08636588397936        2.06641434794759        1.85193281605369
C           16.36077150220881        2.66587812502404        2.16536135444118
C           17.30865177436193        1.97639739422383        1.48540819298177
N           15.24408018466309        1.04523541100035        0.99138331247646
C           16.59909453359197        0.95797793640162        0.76439191902519
C           17.18634080676784       -0.03148525191185       -0.01646783122848
C           16.44073798516717       -1.03845524426986       -0.73086815845301
C           17.03653761519754       -2.15801476461944       -1.29334206819266
C           16.03263095664789       -2.85309010887588       -1.96481540383104
C           14.84934005460073       -2.14238259204129       -1.79881624592530
N           15.07527914912862       -1.02073684656262       -0.99266667775775
C           13.60486661901887       -2.52908885272576       -2.41444802865727
C           13.58564124684029       -3.53252494557418       -3.43431373411505
C           13.56658074329057       -4.38055579584394       -4.30951487503659
C           13.55337938932150       -5.37647390313133       -5.33285802492537
C           14.73669097075369       -6.01417018222982       -5.72938999435607
C           14.68362342885746       -6.97614317563008       -6.72678449279555
N           13.54131469701641       -7.31942954203132       -7.32683314243964
C           12.40482737065814       -6.72175421834973       -6.96074495630516
C           12.36347826045718       -5.74920444494137       -5.97270799111898
C           12.40754244622408       -1.96049595315999       -2.04181682712990
C           11.10737718143124       -2.28223370979442       -2.58196157331020
C           10.21226997026095       -1.54568854670372       -1.88786901200646
C           10.95641006780334       -0.76570643358614       -0.92334815372573
N           12.27026474886194       -1.00711721265893       -1.02510066658564
H            9.27494978630898        0.14372758442246        0.03769700553625
H            9.31182121690496        1.90413113113648        1.97732629487328
H           11.16749265588915        3.18193669394229        3.27050322115044
H           16.04641883024784        5.75222324215702        5.07152069666782
H           16.05576809856860        7.48162245345727        6.84996588633106
H           11.98266643971498        6.95699076689636        7.54495773494395
H           11.83677485416873        5.21048950385245        5.78922642473147
H           16.54699446825725        3.50954504705878        2.80638143260981
H           18.37329198687207        2.17957744664923        1.51077677494655
H           18.07942862326882       -2.42424355340872       -1.22328901420605
H           16.13403586485612       -3.77080854576213       -2.52005719136738
H           15.67999903143326       -5.75599338707119       -5.25958716311923
H           15.60021303424375       -7.47836091763297       -7.04263938132479
H           11.48348932631440       -7.01918550746453       -7.46558420993626
H           11.42444523942574       -5.28103704996858       -5.69676352260131
H           10.87325811524086       -2.97834796588665       -3.37717287021269
H            9.14523835795879       -1.54399544266443       -2.03551694043731
Fe          32.05592255097068        0.00455880149439       -0.00519676940763
C           35.43483075444882       -0.06227129030358       -0.08908556974046
C           34.75988962596725       -1.22689990360896       -0.33622914388981
C           35.41836543254514       -2.48821052683103       -0.60040839509674
C           34.45455064440261       -3.40035705475484       -0.82320647826121
C           33.17923818148409       -2.72103871755732       -0.70519430901187
N           33.37736231571550       -1.38146668552278       -0.39862518444993
C           31.95370499852933       -3.33889832615204       -0.91542765419725
C           31.93124691989882       -4.71926673492129       -1.25296972091820
C           31.90181630593316       -5.90162374353535       -1.53502820068459
C           31.85910976459737       -7.28360877278224       -1.87035732854265
C           30.66190862470438       -7.88949014112775       -2.27257170225077
C           30.66563579881598       -9.23857018135722       -2.59022648244270
N           31.77197326169966       -9.98397638389375       -2.52574902111733
C           32.92054670853724       -9.41963924680729       -2.14364168455327
C           33.01103824390882       -8.07784549396529       -1.80838023264306
C           30.71249301099578       -2.65501903486037       -0.82482095015064
C           29.43319162413540       -3.22954522666005       -1.17777832016329
C           28.48887125816259       -2.29199629342759       -0.93446310701443
N           30.56384800248234       -1.39632335154479       -0.39159609089893
C           29.20968717486177       -1.15031398171148       -0.43106194467200
C           28.66147812566792        0.02812618532242        0.02178514598691
C           29.37023255132536        1.15976448701098        0.51855761090793
C           28.76365890545160        2.21696363449062        1.18679274033007
C           29.76294040066881        3.15056172598760        1.43883472224425
C           30.94923428712467        2.64541076723244        0.91573634305427
N           30.73125785323685        1.37949796288379        0.36781548149468
C           32.19142616846072        3.37014264494356        0.93051421421912
C           32.20976166974017        4.75979054889544        1.26749718226040
C           32.22815912031592        5.94584052659589        1.54598915561820
C           32.24102284599361        7.33495156865794        1.87512548108321
C           31.05764929730671        8.00232182830812        2.21877722547699
C           31.11072933678230        9.35203401621190        2.53227889838172
N           32.25305532090365       10.04322793075984        2.51883596757729
C           33.38957446119866        9.42225162645767        2.19386141610821
C           33.43094699067981        8.07515815913326        1.86647582769427
C           33.38777740169586        2.75697597234244        0.63309870303685
C           34.68765647525276        3.38536445577937        0.63174036561692
C           35.58248214146935        2.41141080233900        0.35603760973906
C           34.83841447224588        1.18317257080652        0.18184303993092
N           33.52433532201142        1.39537538051188        0.33710040918292
H           36.51950999647119       -0.10822329828130       -0.10524014268105
H           36.48299053221581       -2.67650388256346       -0.62015985294487
H           34.62756594323209       -4.44261164949823       -1.05295924429922
H           29.74796685447512       -7.30742476960352       -2.33410420822759
H           29.73855781929096       -9.72147036943723       -2.90525485975194
H           33.81175038973081      -10.04857952146845       -2.09823471707723
H           33.95758241775736       -7.64524999616193       -1.50077685894984
H           29.24695554693670       -4.21262703251883       -1.57258300601110
H           27.42303388291045       -2.41527394032109       -1.09481849904024
H           27.71879777336829        2.29023486517729        1.44968082997585
H           29.65992476262549        4.09749878263517        1.94130922267911
H           30.11439971218120        7.46647195532879        2.23836360884014
H           30.19412679448035        9.88086270086519        2.80111463215279
H           34.31092583990038       10.00812601786503        2.18993289635758
H           34.36991936325773        7.59785594947391        1.60635136739290
H           34.92155984559962        4.42513882027622        0.82095657860758
H           36.64944018514297        2.53723780023056        0.27880849092676
C           18.54322148291099       -0.01722188474643       -0.01697028541390
C           19.72824124038908       -0.01851869879732       -0.01740888739657
C           21.03326533659014       -0.03029838668816       -0.00700010459711
C           22.25612523491303       -0.03888975381759       -0.01179244505039
C           23.55726962875775       -0.03115592397791       -0.01646317205737
C           24.79484921499963       -0.01456822922145       -0.02028286328979
C           26.08775961620542        0.02825747636598       -0.00483899842072
C           27.30724615313063        0.05539377536348        0.01776883925870
124
 energy: -222.782847916234 gnorm: 0.093631209491 xtb: 6.5.1 (b24c23e)
Fe          13.73214253759543        0.00573729718750       -0.00333885785854
C           10.36363548509808        0.09988883861400       -0.00172431940748
C           11.03969832023227        0.91380556860844        0.88136508647833
C           10.38062539174173        1.78251493451290        1.81958288070047
C           11.34953437914503        2.44527872509095        2.49216908844595
C           12.61003200442121        1.99358934431068        1.97114296497808
N           12.40758508555227        1.05439388084484        0.99125434700458
C           13.84168154849411        2.50379275804572        2.39581530631415