      -----------------------------------------------------------      
     |                   =====================                   |     
     |                           x T B                           |     
     |                   =====================                   |     
     |                         S. Grimme                         |     
     |          Mulliken Center for Theoretical Chemistry        |     
     |                    University of Bonn                     |     
      -----------------------------------------------------------      

   * xtb version 6.5.1 (b24c23e) compiled by 'conda@728c89f4b128' on 2022-07-12

   xtb is free software: you can redistribute it and/or modify it under
   the terms of the GNU Lesser General Public License as published by
   the Free Software Foundation, either version 3 of the License, or
   (at your option) any later version.
   
   xtb is distributed in the hope that it will be useful,
   but WITHOUT ANY WARRANTY; without even the implied warranty of
   MERCHANTABILITY or FITNESS FOR A PARTICULAR PURPOSE.  See the
   GNU Lesser General Public License for more details.
   
   Cite this work as:
   * C. Bannwarth, E. Caldeweyher, S. Ehlert, A. Hansen, P. Pracht,
     J. Seibert, S. Spicher, S. Grimme, WIREs Comput. Mol. Sci., 2020, 11,
     e01493. DOI: 10.1002/wcms.1493
   
   for GFN2-xTB:
   * C. Bannwarth, S. Ehlert and S. Grimme., J. Chem. Theory Comput., 2019,
     15, 1652-1671. DOI: 10.1021/acs.jctc.8b01176
   for GFN1-xTB:
   * S. Grimme, C. Bannwarth, P. Shushkov, J. Chem. Theory Comput., 2017,
     13, 1989-2009. DOI: 10.1021/acs.jctc.7b00118
   for GFN0-xTB:
   * P. Pracht, E. Caldeweyher, S. Ehlert, S. Grimme, ChemRxiv, 2019, preprint.
     DOI: 10.26434/chemrxiv.8326202.v1
   for GFN-FF:
   * S. Spicher and S. Grimme, Angew. Chem. Int. Ed., 2020, 59, 15665-15673.
     DOI: 10.1002/anie.202004239
   
   for ALPB and GBSA implicit solvation:
   * S. Ehlert, M. Stahn, S. Spicher, S. Grimme, J. Chem. Theory Comput.,
     2021, 17, 4250-4261. DOI: 10.1021/acs.jctc.1c00471
   
   for DFT-D4:
   * E. Caldeweyher, C. Bannwarth and S. Grimme, J. Chem. Phys., 2017,
     147, 034112. DOI: 10.1063/1.4993215
   * E. Caldeweyher, S. Ehlert, A. Hansen, H. Neugebauer, S. Spicher,
     C. Bannwarth and S. Grimme, J. Chem. Phys., 2019, 150, 154122.
     DOI: 10.1063/1.5090222
   * E. Caldeweyher, J.-M. Mewes, S. Ehlert and S. Grimme, Phys. Chem. Chem. Phys.
     2020, 22, 8499-8512. DOI: 10.1039/D0CP00502A
   
   for sTDA-xTB:
   * S. Grimme and C. Bannwarth, J. Chem. Phys., 2016, 145, 054103.
     DOI: 10.1063/1.4959605
   
   in the mass-spec context:
   * V. Asgeirsson, C. Bauer and S. Grimme, Chem. Sci., 2017, 8, 4879.
     DOI: 10.1039/c7sc00601b
   * J. Koopman and S. Grimme, ACS Omega 2019, 4, 12, 15120-15133.
     DOI: 10.1021/acsomega.9b02011
   
   for metadynamics refer to:
   * S. Grimme, J. Chem. Theory Comput., 2019, 155, 2847-2862
     DOI: 10.1021/acs.jctc.9b00143
   
   for SPH calculations refer to:
   * S. Spicher and S. Grimme, J. Chem. Theory Comput., 2021, 17, 1701-1714
     DOI: 10.1021/acs.jctc.0c01306
   
   with help from (in alphabetical order)
   P. Atkinson, C. Bannwarth, F. Bohle, G. Brandenburg, E. Caldeweyher
   M. Checinski, S. Dohm, S. Ehlert, S. Ehrlich, I. Gerasimov, C. Hölzer
   A. Katbashev, J. Koopman, C. Lavigne, S. Lehtola, F. März, M. Müller,
   F. Musil, H. Neugebauer, J. Pisarek, C. Plett, P. Pracht, F. Pultar,
   J. Seibert, P. Shushkov, S. Spicher, M. Stahn, M. Steiner, T. Strunk,
   J. Stückrath, T. Rose, and J. Unsleber
   
 * started run on 2022/07/30 at 09:12:13.913     

           -------------------------------------------------
          |                Calculation Setup                |
           -------------------------------------------------

          program call               : xtb Cu_PhOH_C8_2.xyz --gfn 1 --opt -T 48
          hostname                   : cx3-15-15.cx3.hpc.ic.ac.uk
          coordinate file            : Cu_PhOH_C8_2.xyz
          omp threads                :                     1

   ID    Z sym.   atoms
    1   29 Cu     1, 59
    2    6 C      2-6, 8-12, 14-18, 20-25, 27-31, 33-38, 60-64, 66-70, 72-76,
                  78-83, 85-89, 91-96, 117-124
    3    7 N      7, 19, 26, 39, 65, 77, 84, 97
    4    8 O      13, 32, 71, 90
    5    1 H      40-58, 98-116
########################################################################
[WARNING] Please study the warnings concerning your input carefully
-1- prog_main_parseArguments: Unknown option '-T' provided
########################################################################

           -------------------------------------------------
          |                 G F N 1 - x T B                 |
           -------------------------------------------------

        Reference                      10.1021/acs.jctc.7b00118
      * Hamiltonian:
        H0-scaling (s, p, d)           1.850000    2.250000    2.000000
        zeta-weighting                 0.000000
      * Dispersion:
        s8                             2.400000
        a1                             0.630000
        a2                             5.000000
        s9                             0.000000
      * Repulsion:
        kExp                           1.500000
        rExp                           1.000000
      * Coulomb:
        alpha                          2.000000
        third order                    atomic
        anisotropic                    false
      * Halogen bond correction:
        rad-scale                      1.300000
        damping                        0.440000


          ...................................................
          :                      SETUP                      :
          :.................................................:
          :  # basis functions                 432          :
          :  # atomic orbitals                 430          :
          :  # shells                          250          :
          :  # electrons                       412          :
          :  # halogen bonds                     0          :
          :  max. iterations                   250          :
          :  Hamiltonian                  GFN1-xTB          :
          :  restarted?                      false          :
          :  GBSA solvation                  false          :
          :  PC potential                    false          :
          :  electronic temp.          300.0000000     K    :
          :  accuracy                    1.0000000          :
          :  -> integral cutoff          0.2500000E+02      :
          :  -> integral neglect         0.1000000E-07      :
          :  -> SCF convergence          0.1000000E-05 Eh   :
          :  -> wf. convergence          0.2000000E-04 e    :
          :  Broyden damping             0.4000000          :
          ...................................................

 iter      E             dE          RMSdq      gap      omega  full diag
   1   -228.8928112 -0.228893E+03  0.108E+01    0.16       0.0  T
   2   -227.8764848  0.101633E+01  0.656E+00    0.78       1.0  T
   3   -181.5237000  0.463528E+02  0.113E+01    0.03       1.0  T
   4   -227.7703381 -0.462466E+02  0.252E+00    0.14       1.0  T
   5   -227.2344092  0.535929E+00  0.143E+00    0.13       1.0  T
   6   -228.3646903 -0.113028E+01  0.130E+00    0.28       1.0  T
   7   -228.8509005 -0.486210E+00  0.106E+00    0.31       1.0  T
   8   -228.9285167 -0.776162E-01  0.890E-01    0.29       1.0  T
   9   -229.0948372 -0.166320E+00  0.921E-01    0.14       1.0  T
  10   -229.0403753  0.544619E-01  0.895E-01    0.18       1.0  T
  11   -229.1715914 -0.131216E+00  0.668E-01    0.09       1.0  T
  12   -229.1813098 -0.971836E-02  0.535E-01    0.05       1.0  T
  13   -229.1980685 -0.167588E-01  0.573E-01    0.07       1.0  T
  14   -229.2593730 -0.613044E-01  0.318E-01    0.03       1.0  T
  15   -229.1801917  0.791813E-01  0.588E-01    0.06       1.0  T
  16   -229.2037036 -0.235119E-01  0.523E-01    0.05       1.0  T
  17   -229.2701901 -0.664864E-01  0.235E-01    0.03       1.0  T
  18   -229.2828456 -0.126555E-01  0.122E-01    0.02       1.0  T
  19   -229.2868370 -0.399144E-02  0.558E-02    0.02       1.0  T
  20   -229.2879176 -0.108064E-02  0.625E-03    0.02       1.4  T
  21   -229.2879197 -0.201502E-05  0.532E-03    0.02       1.7  T
  22   -229.2879215 -0.182605E-05  0.444E-03    0.02       2.0  T
  23   -229.2879251 -0.361483E-05  0.295E-03    0.02       3.0  T
  24   -229.2879277 -0.261920E-05  0.279E-04    0.02      32.2  T
  25   -229.2879277  0.405540E-07  0.416E-04    0.02      21.6  T
  26   -229.2879277 -0.509737E-07  0.198E-04    0.02      45.4  T
  27   -229.2879277 -0.110032E-07  0.441E-05    0.02     203.5  T

   *** convergence criteria satisfied after 27 iterations ***

         #    Occupation            Energy/Eh            Energy/eV
      -------------------------------------------------------------
         1        2.0000           -0.7922301             -21.5577
       ...           ...                  ...                  ...
       200        2.0000           -0.3976830             -10.8215
       201        2.0000           -0.3962263             -10.7819
       202        2.0000           -0.3921565             -10.6711
       203        2.0000           -0.3868702             -10.5273
       204        2.0000           -0.3663229              -9.9682
       205        1.9891           -0.3582926              -9.7496
       206        1.0136           -0.3533754              -9.6158 (HOMO)
       207        0.6885           -0.3527373              -9.5985 (LUMO)
       208        0.3088           -0.3517341              -9.5712
       209                         -0.3258927              -8.8680
       210                         -0.3237134              -8.8087
       211                         -0.3123591              -8.4997
       ...                                ...                  ...
       430                          4.9686155             135.2029
      -------------------------------------------------------------
                  HL-Gap            0.0006381 Eh            0.0174 eV
             Fermi-level           -0.3533495 Eh           -9.6151 eV

 SCC (total)                   0 d,  0 h,  0 min,  1.416 sec
 SCC setup                      ...        0 min,  0.004 sec (  0.298%)
 Dispersion                     ...        0 min,  0.003 sec (  0.206%)
 classical contributions        ...        0 min,  0.001 sec (  0.078%)
 integral evaluation            ...        0 min,  0.103 sec (  7.287%)
 iterations                     ...        0 min,  1.046 sec ( 73.862%)
 molecular gradient             ...        0 min,  0.250 sec ( 17.635%)
 printout                       ...        0 min,  0.009 sec (  0.633%)

         :::::::::::::::::::::::::::::::::::::::::::::::::::::
         ::                     SUMMARY                     ::
         :::::::::::::::::::::::::::::::::::::::::::::::::::::
         :: total energy            -224.941223006025 Eh    ::
         :: gradient norm              2.579672689091 Eh/a0 ::
         :: HOMO-LUMO gap              0.017363082149 eV    ::
         ::.................................................::
         :: SCC energy              -229.287927744898 Eh    ::
         :: -> electrostatic           0.284422955695 Eh    ::
         :: repulsion energy           4.454438881537 Eh    ::
         :: dispersion energy         -0.107734142664 Eh    ::
         :: halogen bond corr.         0.000000000000 Eh    ::
         :: add. restraining           0.000000000000 Eh    ::
         :: total charge              -0.000000000011 e     ::
         :::::::::::::::::::::::::::::::::::::::::::::::::::::

      ----------------------------------------------------------- 
     |                   =====================                   |
     |                        A N C O P T                        |
     |                   =====================                   |
     |               Approximate Normal Coordinate               |
     |                Rational Function Optimizer                |
      ----------------------------------------------------------- 

          ...................................................
          :                      SETUP                      :
          :.................................................:
          :   optimization level            normal          :
          :   max. optcycles                   372          :
          :   ANC micro-cycles                  20          :
          :   degrees of freedom               366          :
          :.................................................:
          :   RF solver                   davidson          :
          :   write xtbopt.log                true          :
          :   linear?                        false          :
          :   energy convergence         0.5000000E-05 Eh   :
          :   grad. convergence          0.1000000E-02 Eh/α :
          :   maximium RF displ.         1.0000000          :
          :   Hlow (freq-cutoff)         0.1000000E-01      :
          :   Hmax (freq-cutoff)         5.0000000          :
          :   S6 in model hess.         20.0000000          :
          ...................................................

generating ANC from model Hessian ...
Using Lindh-Hessian (1995)
 Shifting diagonal of input Hessian by    1.0025268073964911E-002
 Lowest  eigenvalues of input Hessian
    0.010000    0.010009    0.010022    0.000000    0.000000    0.000000
    0.000000    0.000000    0.000000    0.010043    0.010054    0.010161
    0.010175    0.010352    0.010474    0.010482    0.010547    0.010562
 Highest eigenvalues
    2.708865    2.811323    2.871362    3.126521    4.070328    4.082106


........................................................................
.............................. CYCLE    1 ..............................
........................................................................
   1   -229.2879277 -0.229288E+03  0.812E-05    0.02       0.0  T
   2   -229.2879253  0.240099E-05  0.255E-03    0.02       3.5  T
   3   -229.2879277 -0.239242E-05  0.201E-04    0.02      44.7  T
   4   -229.2879277 -0.794961E-08  0.902E-05    0.02      99.5  T
   5   -229.2879277 -0.270640E-08  0.247E-05    0.02     363.8  T
     SCC iter.                  ...        0 min,  0.198 sec
     gradient                   ...        0 min,  0.248 sec
 * total energy  :  -224.9412230 Eh     change       -0.4892229E-09 Eh
   gradient norm :     2.5796732 Eh/α   predicted     0.0000000E+00 (-100.00%)
   displ. norm   :     0.5561982 α      lambda       -0.1374901E+01
   maximum displ.:     0.4271222 α      in ANC's #366, #360, #362, ...

........................................................................
.............................. CYCLE    2 ..............................
........................................................................
   1   -229.2976214 -0.229298E+03  0.473E-01    0.01       0.0  T
   2   -229.1603423  0.137279E+00  0.810E-01    0.08       1.0  T
   3   -229.0185730  0.141769E+00  0.885E-01    0.53       1.0  T
   4   -229.1295854 -0.111012E+00  0.734E-01    0.17       1.0  T
   5   -229.3109707 -0.181385E+00  0.295E-01    0.04       1.0  T
   6   -229.2473966  0.635740E-01  0.510E-01    0.08       1.0  T
   7   -229.3132027 -0.658061E-01  0.258E-01    0.03       1.0  T
   8   -229.2573325  0.558702E-01  0.491E-01    0.08       1.0  T
   9   -229.3302354 -0.729028E-01  0.604E-02    0.01       1.0  T
  10   -229.3313468 -0.111147E-02  0.690E-03    0.01       1.3  T
  11   -229.3311169  0.229951E-03  0.282E-02    0.01       1.0  T
  12   -229.3313600 -0.243160E-03  0.214E-03    0.01       4.2  T
  13   -229.3313610 -0.100652E-05  0.672E-04    0.01      13.4  T
  14   -229.3313607  0.346578E-06  0.131E-03    0.01       6.8  T
  15   -229.3313611 -0.451934E-06  0.386E-04    0.01      23.2  T
  16   -229.3313612 -0.461627E-07  0.157E-05    0.01     573.1  T
  17   -229.3313612  0.213581E-07  0.262E-04    0.01      34.3  T
  18   -229.3313612 -0.214046E-07  0.322E-06    0.01    2792.6  T
     SCC iter.                  ...        0 min,  0.699 sec
     gradient                   ...        0 min,  0.248 sec
 * total energy  :  -225.6165418 Eh     change       -0.6753188E+00 Eh
   gradient norm :     0.5535652 Eh/α   predicted    -0.9001183E+00 (  33.29%)
   displ. norm   :     0.4531061 α      lambda       -0.1783087E+00
   maximum displ.:     0.1046187 α      in ANC's #117, #362, #174, ...

........................................................................
.............................. CYCLE    3 ..............................
........................................................................
   1   -229.4012706 -0.229401E+03  0.140E-01    0.01       0.0  T
   2   -229.2039738  0.197297E+00  0.785E-01    0.28       1.0  T
   3   -229.3057872 -0.101813E+00  0.553E-01    0.09       1.0  T
   4   -229.3920686 -0.862813E-01  0.208E-01    0.03       1.0  T
   5   -229.3996005 -0.753189E-02  0.132E-01    0.02       1.0  T
   6   -229.3987315  0.869016E-03  0.145E-01    0.02       1.0  T
   7   -229.3996885 -0.957025E-03  0.131E-01    0.02       1.0  T
   8   -229.4045197 -0.483120E-02  0.466E-02    0.01       1.0  T
   9   -229.4050142 -0.494519E-03  0.231E-02    0.01       1.0  T
  10   -229.4051735 -0.159345E-03  0.521E-03    0.01       1.7  T
  11   -229.4051817 -0.816404E-05  0.620E-04    0.01      14.5  T
  12   -229.4051817 -0.126851E-07  0.586E-04    0.01      15.3  T
  13   -229.4051818 -0.993137E-07  0.128E-04    0.01      70.0  T
  14   -229.4051818 -0.524568E-08  0.700E-06    0.01    1282.7  T
     SCC iter.                  ...        0 min,  0.543 sec
     gradient                   ...        0 min,  0.253 sec
 * total energy  :  -225.7412779 Eh     change       -0.1247361E+00 Eh
   gradient norm :     0.2371105 Eh/α   predicted    -0.1074953E+00 ( -13.82%)
   displ. norm   :     0.5285757 α      lambda       -0.7552957E-01
   maximum displ.:     0.1513563 α      in ANC's #89, #117, #98, ...

........................................................................
.............................. CYCLE    4 ..............................
........................................................................
   1   -229.4528773 -0.229453E+03  0.133E-01    0.01       0.0  T
   2   -229.2543261  0.198551E+00  0.784E-01    0.30       1.0  T
   3   -229.3875844 -0.133258E+00  0.462E-01    0.07       1.0  T
   4   -229.4431322 -0.555478E-01  0.209E-01    0.03       1.0  T
   5   -229.4534057 -0.102735E-01  0.995E-02    0.02       1.0  T
   6   -229.4507849  0.262074E-02  0.136E-01    0.02       1.0  T
   7   -229.4533203 -0.253534E-02  0.101E-01    0.02       1.0  T
   8   -229.4557841 -0.246384E-02  0.511E-02    0.01       1.0  T
   9   -229.4565568 -0.772684E-03  0.119E-02    0.01       1.0  T
  10   -229.4565965 -0.396519E-04  0.434E-03    0.01       2.1  T
  11   -229.4566020 -0.550129E-05  0.123E-03    0.01       7.3  T
  12   -229.4566019  0.387544E-07  0.127E-03    0.01       7.1  T
  13   -229.4566024 -0.491627E-06  0.234E-04    0.01      38.3  T
  14   -229.4566024 -0.171324E-07  0.749E-06    0.01    1198.6  T
  15   -229.4566024 -0.212879E-10  0.462E-06    0.01    1942.8  T
     SCC iter.                  ...        0 min,  0.582 sec
     gradient                   ...        0 min,  0.248 sec
 * total energy  :  -225.7926333 Eh     change       -0.5135543E-01 Eh
   gradient norm :     0.1137907 Eh/α   predicted    -0.4831600E-01 (  -5.92%)
   displ. norm   :     0.5483447 α      lambda       -0.2870208E-01
   maximum displ.:     0.1994258 α      in ANC's #23, #89, #78, ...

........................................................................
.............................. CYCLE    5 ..............................
........................................................................
   1   -229.4594441 -0.229459E+03  0.680E-02    0.01       0.0  T
   2   -229.3327233  0.126721E+00  0.628E-01    0.12       1.0  T
   3   -229.4505980 -0.117875E+00  0.174E-01    0.03       1.0  T
   4   -229.4597853 -0.918735E-02  0.385E-02    0.01       1.0  T
   5   -229.4599585 -0.173219E-03  0.310E-02    0.01       1.0  T
   6   -229.4602501 -0.291533E-03  0.616E-03    0.01       1.5  T
   7   -229.4602265  0.236183E-04  0.103E-02    0.01       1.0  T
   8   -229.4602558 -0.293412E-04  0.350E-03    0.01       2.6  T
   9   -229.4602591 -0.327560E-05  0.158E-03    0.01       5.7  T
  10   -229.4602595 -0.454809E-06  0.104E-03    0.01       8.7  T
  11   -229.4602599 -0.324170E-06  0.263E-04    0.01      34.2  T
  12   -229.4602599 -0.535286E-08  0.224E-04    0.01      40.2  T
  13   -229.4602599 -0.155704E-07  0.346E-05    0.01     259.4  T
  14   -229.4602599 -0.319488E-09  0.147E-05    0.01     609.7  T
     SCC iter.                  ...        0 min,  0.544 sec
     gradient                   ...        0 min,  0.248 sec
 * total energy  :  -225.8110327 Eh     change       -0.1839937E-01 Eh
   gradient norm :     0.0698443 Eh/α   predicted    -0.1866616E-01 (   1.45%)
   displ. norm   :     0.5872775 α      lambda       -0.1561759E-01
   maximum displ.:     0.3061791 α      in ANC's #23, #38, #78, ...

........................................................................
.............................. CYCLE    6 ..............................
........................................................................
   1   -229.4288184 -0.229429E+03  0.397E-02    0.01       0.0  T
   2   -229.2968450  0.131973E+00  0.643E-01    0.12       1.0  T
   3   -229.4289004 -0.132055E+00  0.328E-02    0.01       1.0  T
   4   -229.4283836  0.516787E-03  0.505E-02    0.01       1.0  T
   5   -229.4291600 -0.776366E-03  0.781E-03    0.01       1.1  T
   6   -229.4291011  0.589500E-04  0.152E-02    0.01       1.0  T
   7   -229.4291753 -0.742681E-04  0.899E-04    0.01      10.0  T
   8   -229.4291740  0.136990E-05  0.228E-03    0.01       3.9  T
   9   -229.4291756 -0.161232E-05  0.343E-04    0.01      26.2  T
  10   -229.4291754  0.181676E-06  0.845E-04    0.01      10.6  T
  11   -229.4291755 -0.150394E-06  0.484E-04    0.01      18.6  T
  12   -229.4291756 -0.733336E-07  0.260E-05    0.01     345.3  T
  13   -229.4291756 -0.113175E-09  0.175E-05    0.01     512.4  T
     SCC iter.                  ...        0 min,  0.508 sec
     gradient                   ...        0 min,  0.247 sec
 * total energy  :  -225.8203966 Eh     change       -0.9363864E-02 Eh
   gradient norm :     0.0704152 Eh/α   predicted    -0.1050202E-01 (  12.15%)
   displ. norm   :     0.5659150 α      lambda       -0.8354621E-02
   maximum displ.:     0.3823803 α      in ANC's #23, #38, #78, ...

........................................................................
.............................. CYCLE    7 ..............................
........................................................................
   1   -229.4142208 -0.229414E+03  0.218E-02    0.01       0.0  T
   2   -229.3608637  0.533571E-01  0.411E-01    0.06       1.0  T
   3   -229.4137991 -0.529354E-01  0.408E-02    0.01       1.0  T
   4   -229.4143001 -0.500955E-03  0.671E-03    0.00       1.3  T
   5   -229.4143026 -0.259144E-05  0.481E-03    0.00       1.9  T
   6   -229.4143084 -0.572468E-05  0.161E-03    0.00       5.6  T
   7   -229.4143090 -0.633530E-06  0.637E-04    0.00      14.1  T
   8   -229.4143091 -0.123252E-06  0.113E-04    0.00      79.2  T
   9   -229.4143091 -0.332744E-08  0.612E-05    0.00     146.7  T
     SCC iter.                  ...        0 min,  0.354 sec
     gradient                   ...        0 min,  0.252 sec
 * total energy  :  -225.8271265 Eh     change       -0.6729990E-02 Eh
   gradient norm :     0.0356492 Eh/α   predicted    -0.5515165E-02 ( -18.05%)
   displ. norm   :     0.7012213 α      lambda       -0.7172579E-02
   maximum displ.:     0.5296900 α      in ANC's #23, #38, #28, ...

........................................................................
.............................. CYCLE    8 ..............................
........................................................................
   1   -229.3997731 -0.229400E+03  0.279E-02    0.00       0.0  T
   2   -229.2879871  0.111786E+00  0.596E-01    0.10       1.0  T
   3   -229.3999296 -0.111943E+00  0.104E-02    0.00       1.0  T
   4   -229.3999411 -0.115197E-04  0.644E-03    0.00       1.4  T
   5   -229.3999462 -0.501178E-05  0.444E-03    0.00       2.0  T
   6   -229.3999474 -0.126207E-05  0.352E-03    0.00       2.6  T
   7   -229.3999512 -0.380947E-05  0.507E-04    0.00      17.7  T
   8   -229.3999513 -0.706902E-07  0.163E-04    0.00      55.1  T
   9   -229.3999513  0.109900E-07  0.259E-04    0.00      34.7  T
  10   -229.3999513 -0.214133E-07  0.199E-05    0.00     450.6  T
     SCC iter.                  ...        0 min,  0.392 sec
     gradient                   ...        0 min,  0.247 sec
 * total energy  :  -225.8329728 Eh     change       -0.5846214E-02 Eh
   gradient norm :     0.0218328 Eh/α   predicted    -0.5349711E-02 (  -8.49%)
   displ. norm   :     0.6989370 α      lambda       -0.5046455E-02
   maximum displ.:     0.5606552 α      in ANC's #23, #38, #8, ...

........................................................................
.............................. CYCLE    9 ..............................
........................................................................
   1   -229.3908178 -0.229391E+03  0.152E-02    0.00       0.0  T
   2   -229.3647068  0.261109E-01  0.289E-01    0.04       1.0  T
   3   -229.3908479 -0.261411E-01  0.714E-03    0.00       1.3  T
   4   -229.3908500 -0.208023E-05  0.603E-03    0.00       1.5  T
   5   -229.3908567 -0.676031E-05  0.383E-03    0.00       2.3  T
   6   -229.3908604 -0.362682E-05  0.107E-03    0.00       8.4  T
   7   -229.3908607 -0.324363E-06  0.330E-04    0.00      27.2  T
   8   -229.3908607 -0.238409E-07  0.158E-04    0.00      56.9  T
   9   -229.3908607 -0.735500E-08  0.658E-05    0.00     136.5  T
     SCC iter.                  ...        0 min,  0.353 sec
     gradient                   ...        0 min,  0.242 sec
 * total energy  :  -225.8371958 Eh     change       -0.4223031E-02 Eh
   gradient norm :     0.0167681 Eh/α   predicted    -0.3755869E-02 ( -11.06%)
   displ. norm   :     0.6718177 α      lambda       -0.3761576E-02
   maximum displ.:     0.5384118 α      in ANC's #23, #28, #8, ...

........................................................................
.............................. CYCLE   10 ..............................
........................................................................
   1   -229.3828618 -0.229383E+03  0.114E-02    0.00       0.0  T
   2   -229.3641196  0.187422E-01  0.245E-01    0.03       1.0  T
   3   -229.3826863 -0.185667E-01  0.253E-02    0.00       1.0  T
   4   -229.3828826 -0.196261E-03  0.319E-03    0.00       2.8  T
   5   -229.3828846 -0.199685E-05  0.222E-03    0.00       4.1  T
   6   -229.3828856 -0.107473E-05  0.607E-04    0.00      14.8  T
   7   -229.3828857 -0.693403E-07  0.387E-04    0.00      23.2  T
   8   -229.3828857 -0.436914E-07  0.814E-05    0.00     110.3  T
   9   -229.3828857 -0.172562E-08  0.436E-05    0.00     206.2  T
     SCC iter.                  ...        0 min,  0.349 sec
     gradient                   ...        0 min,  0.249 sec
 * total energy  :  -225.8402391 Eh     change       -0.3043286E-02 Eh
   gradient norm :     0.0145992 Eh/α   predicted    -0.2729669E-02 ( -10.31%)
   displ. norm   :     0.6517165 α      lambda       -0.3401818E-02
   maximum displ.:     0.5280038 α      in ANC's #23, #8, #31, ...

........................................................................
.............................. CYCLE   11 ..............................
........................................................................
   1   -229.3758420 -0.229376E+03  0.173E-02    0.00       0.0  T
   2   -229.3017210  0.741210E-01  0.488E-01    0.08       1.0  T
   3   -229.3756718 -0.739507E-01  0.282E-02    0.00       1.0  T
   4   -229.3759151 -0.243393E-03  0.324E-03    0.00       2.8  T
   5   -229.3759170 -0.189109E-05  0.237E-03    0.00       3.8  T
   6   -229.3759175 -0.438231E-06  0.188E-03    0.00       4.8  T
   7   -229.3759182 -0.692139E-06  0.106E-03    0.00       8.4  T
   8   -229.3759185 -0.350872E-06  0.728E-05    0.00     123.3  T
   9   -229.3759185 -0.409585E-09  0.703E-05    0.00     127.8  T
     SCC iter.                  ...        0 min,  0.353 sec
     gradient                   ...        0 min,  0.248 sec
 * total energy  :  -225.8423227 Eh     change       -0.2083644E-02 Eh
   gradient norm :     0.0143781 Eh/α   predicted    -0.2423372E-02 (  16.30%)
   displ. norm   :     0.5322786 α      lambda       -0.2409727E-02
   maximum displ.:     0.4110862 α      in ANC's #23, #8, #20, ...

........................................................................
.............................. CYCLE   12 ..............................
........................................................................
   1   -229.3740049 -0.229374E+03  0.107E-02    0.00       0.0  T
   2   -229.3395114  0.344935E-01  0.333E-01    0.05       1.0  T
   3   -229.3740143 -0.345029E-01  0.897E-03    0.00       1.0  T
   4   -229.3740358 -0.215172E-04  0.206E-03    0.00       4.4  T
   5   -229.3740366 -0.773720E-06  0.107E-03    0.00       8.4  T
   6   -229.3740364  0.142732E-06  0.103E-03    0.00       8.7  T
   7   -229.3740368 -0.361099E-06  0.141E-04    0.00      63.7  T
   8   -229.3740368 -0.585300E-08  0.355E-05    0.00     253.0  T
     SCC iter.                  ...        0 min,  0.312 sec
     gradient                   ...        0 min,  0.247 sec
 * total energy  :  -225.8442540 Eh     change       -0.1931260E-02 Eh
   gradient norm :     0.0138623 Eh/α   predicted    -0.1546229E-02 ( -19.94%)
   displ. norm   :     0.6035522 α      lambda       -0.1871833E-02
   maximum displ.:     0.4698169 α      in ANC's #23, #8, #20, ...

........................................................................
.............................. CYCLE   13 ..............................
........................................................................
   1   -229.3676959 -0.229368E+03  0.761E-03    0.00       0.0  T
   2   -229.3528638  0.148320E-01  0.219E-01    0.03       1.0  T
   3   -229.3677075 -0.148437E-01  0.314E-03    0.00       2.9  T
   4   -229.3677091 -0.154545E-05  0.152E-03    0.00       5.9  T
   5   -229.3677091  0.242764E-08  0.102E-03    0.00       8.8  T
   6   -229.3677092 -0.118636E-06  0.705E-04    0.00      12.7  T
   7   -229.3677093 -0.170255E-06  0.186E-04    0.00      48.4  T
   8   -229.3677094 -0.103193E-07  0.274E-05    0.00     327.8  T
     SCC iter.                  ...        0 min,  0.312 sec
     gradient                   ...        0 min,  0.246 sec
 * total energy  :  -225.8457786 Eh     change       -0.1524611E-02 Eh
   gradient norm :     0.0104388 Eh/α   predicted    -0.1276849E-02 ( -16.25%)
   displ. norm   :     0.5640914 α      lambda       -0.1328953E-02
   maximum displ.:     0.4187596 α      in ANC's #23, #8, #20, ...

........................................................................
.............................. CYCLE   14 ..............................
........................................................................
   1   -229.3635188 -0.229364E+03  0.494E-03    0.00       0.0  T
   2   -229.3618568  0.166195E-02  0.734E-02    0.01       1.0  T
   3   -229.3634427 -0.158585E-02  0.161E-02    0.00       1.0  T
   4   -229.3635228 -0.801108E-04  0.134E-03    0.00       6.7  T
   5   -229.3635229 -0.520981E-07  0.114E-03    0.00       7.9  T
   6   -229.3635232 -0.340436E-06  0.315E-04    0.00      28.5  T
   7   -229.3635232 -0.186262E-07  0.180E-04    0.00      50.0  T
   8   -229.3635232 -0.965520E-08  0.351E-05    0.00     256.2  T
     SCC iter.                  ...        0 min,  0.313 sec
     gradient                   ...        0 min,  0.245 sec
 * total energy  :  -225.8468842 Eh     change       -0.1105656E-02 Eh
   gradient norm :     0.0084152 Eh/α   predicted    -0.8759146E-03 ( -20.78%)
   displ. norm   :     0.5660824 α      lambda       -0.1028847E-02
   maximum displ.:     0.3894646 α      in ANC's #23, #8, #20, ...

........................................................................
.............................. CYCLE   15 ..............................
........................................................................
   1   -229.3586030 -0.229359E+03  0.934E-03    0.00       0.0  T
   2   -229.3313631  0.272399E-01  0.297E-01    0.04       1.0  T
   3   -229.3585786 -0.272154E-01  0.125E-02    0.00       1.0  T
   4   -229.3586250 -0.464135E-04  0.224E-03    0.00       4.0  T
   5   -229.3586263 -0.131019E-05  0.143E-03    0.00       6.3  T
   6   -229.3586267 -0.377575E-06  0.797E-04    0.00      11.3  T
   7   -229.3586268 -0.130048E-06  0.380E-04    0.00      23.7  T
   8   -229.3586269 -0.445395E-07  0.323E-05    0.00     278.2  T
   9   -229.3586269 -0.247638E-09  0.187E-05    0.00     479.6  T
     SCC iter.                  ...        0 min,  0.354 sec
     gradient                   ...        0 min,  0.246 sec
 * total energy  :  -225.8477024 Eh     change       -0.8181786E-03 Eh
   gradient norm :     0.0063985 Eh/α   predicted    -0.6792715E-03 ( -16.98%)
   displ. norm   :     0.5449627 α      lambda       -0.6713634E-03
   maximum displ.:     0.3427998 α      in ANC's #23, #8, #20, ...

........................................................................
.............................. CYCLE   16 ..............................
........................................................................
   1   -229.3537391 -0.229354E+03  0.126E-02    0.00       0.0  T
   2   -229.3023918  0.513473E-01  0.407E-01    0.06       1.0  T
   3   -229.3537377 -0.513459E-01  0.123E-02    0.00       1.0  T
   4   -229.3537825 -0.448061E-04  0.231E-03    0.00       3.9  T
   5   -229.3537844 -0.191611E-05  0.134E-03    0.00       6.7  T
   6   -229.3537845 -0.121483E-06  0.108E-03    0.00       8.3  T
   7   -229.3537848 -0.281676E-06  0.425E-04    0.00      21.1  T
   8   -229.3537849 -0.559492E-07  0.267E-05    0.00     336.0  T
   9   -229.3537849 -0.122697E-09  0.157E-05    0.00     572.6  T
     SCC iter.                  ...        0 min,  0.353 sec
     gradient                   ...        0 min,  0.244 sec
 * total energy  :  -225.8482020 Eh     change       -0.4995974E-03 Eh
   gradient norm :     0.0050030 Eh/α   predicted    -0.4353802E-03 ( -12.85%)
   displ. norm   :     0.3862020 α      lambda       -0.3233795E-03
   maximum displ.:     0.2397930 α      in ANC's #8, #23, #14, ...

........................................................................
.............................. CYCLE   17 ..............................
........................................................................
   1   -229.3505002 -0.229351E+03  0.741E-03    0.00       0.0  T
   2   -229.3309362  0.195640E-01  0.251E-01    0.03       1.0  T
   3   -229.3504918 -0.195556E-01  0.881E-03    0.00       1.0  T
   4   -229.3505141 -0.223126E-04  0.211E-03    0.00       4.3  T
   5   -229.3505154 -0.127967E-05  0.120E-03    0.00       7.5  T
   6   -229.3505156 -0.198935E-06  0.811E-04    0.00      11.1  T
   7   -229.3505158 -0.183223E-06  0.167E-04    0.00      53.6  T
   8   -229.3505158 -0.857298E-08  0.198E-05    0.00     453.8  T
     SCC iter.                  ...        0 min,  0.316 sec
     gradient                   ...        0 min,  0.247 sec
 * total energy  :  -225.8484511 Eh     change       -0.2491116E-03 Eh
   gradient norm :     0.0042624 Eh/α   predicted    -0.1858080E-03 ( -25.41%)
   displ. norm   :     0.2762116 α      lambda       -0.2246552E-03
   maximum displ.:     0.1886650 α      in ANC's #8, #14, #23, ...

........................................................................
.............................. CYCLE   18 ..............................
........................................................................
   1   -229.3492899 -0.229349E+03  0.363E-03    0.00       0.0  T
   2   -229.3450570  0.423286E-02  0.117E-01    0.02       1.0  T
   3   -229.3492851 -0.422813E-02  0.518E-03    0.00       1.7  T
   4   -229.3492926 -0.742227E-05  0.156E-03    0.00       5.8  T
   5   -229.3492932 -0.606142E-06  0.822E-04    0.00      10.9  T
   6   -229.3492933 -0.138262E-06  0.416E-04    0.00      21.6  T
   7   -229.3492934 -0.498525E-07  0.330E-05    0.00     272.4  T
   8   -229.3492934 -0.279726E-09  0.117E-05    0.00     769.9  T
     SCC iter.                  ...        0 min,  0.314 sec
     gradient                   ...        0 min,  0.244 sec
 * total energy  :  -225.8486379 Eh     change       -0.1867948E-03 Eh
   gradient norm :     0.0038994 Eh/α   predicted    -0.1208983E-03 ( -35.28%)
   displ. norm   :     0.2894022 α      lambda       -0.2611358E-03
   maximum displ.:     0.2004450 α      in ANC's #8, #14, #13, ...

........................................................................
.............................. CYCLE   19 ..............................
........................................................................
   1   -229.3485992 -0.229349E+03  0.270E-03    0.00       0.0  T
   2   -229.3467180  0.188122E-02  0.780E-02    0.01       1.0  T
   3   -229.3486005 -0.188254E-02  0.126E-03    0.00       7.1  T
   4   -229.3486007 -0.218341E-06  0.746E-04    0.00      12.0  T
   5   -229.3486009 -0.136179E-06  0.364E-04    0.00      24.7  T
   6   -229.3486009 -0.254438E-07  0.178E-04    0.00      50.4  T
   7   -229.3486009 -0.780173E-08  0.483E-05    0.00     186.0  T
     SCC iter.                  ...        0 min,  0.274 sec
     gradient                   ...        0 min,  0.243 sec
 * total energy  :  -225.8488552 Eh     change       -0.2172422E-03 Eh
   gradient norm :     0.0045388 Eh/α   predicted    -0.1415044E-03 ( -34.86%)
   displ. norm   :     0.3549375 α      lambda       -0.2960064E-03
   maximum displ.:     0.2374213 α      in ANC's #8, #14, #13, ...

........................................................................
.............................. CYCLE   20 ..............................
........................................................................
   1   -229.3483520 -0.229348E+03  0.540E-03    0.00       0.0  T
   2   -229.3370957  0.112563E-01  0.191E-01    0.03       1.0  T
   3   -229.3483566 -0.112609E-01  0.350E-03    0.00       2.6  T
   4   -229.3483602 -0.363900E-05  0.588E-04    0.00      15.3  T
   5   -229.3483603 -0.465331E-07  0.512E-04    0.00      17.5  T
   6   -229.3483603 -0.659797E-07  0.194E-04    0.00      46.2  T
   7   -229.3483603 -0.694840E-08  0.925E-05    0.00      97.1  T
     SCC iter.                  ...        0 min,  0.274 sec
     gradient                   ...        0 min,  0.248 sec
 * total energy  :  -225.8490990 Eh     change       -0.2438164E-03 Eh
   gradient norm :     0.0055336 Eh/α   predicted    -0.1666498E-03 ( -31.65%)
   displ. norm   :     0.3772731 α      lambda       -0.2729399E-03
   maximum displ.:     0.2545452 α      in ANC's #8, #14, #13, ...
 * RMSD in coord.:     0.6757805 α      energy gain  -0.9078760E+00 Eh

generating ANC from model Hessian ...
Using Lindh-Hessian (1995)
 Shifting diagonal of input Hessian by    1.0027149779923155E-002
 Lowest  eigenvalues of input Hessian
    0.010000    0.010010    0.010020    0.010022    0.000000    0.000000
    0.000000    0.000000    0.000000    0.000000    0.010034    0.010151
    0.010166    0.010277    0.010389    0.010458    0.010531    0.010558
 Highest eigenvalues
    2.132450    2.132533    2.136877    2.487520    2.809201    3.034098


........................................................................
.............................. CYCLE   21 ..............................
........................................................................
   1   -229.3480762 -0.229348E+03  0.719E-03    0.00       0.0  T
   2   -229.3278148  0.202613E-01  0.256E-01    0.04       1.0  T
   3   -229.3480804 -0.202656E-01  0.596E-03    0.00       1.5  T
   4   -229.3480909 -0.104965E-04  0.115E-03    0.00       7.8  T
   5   -229.3480912 -0.299246E-06  0.838E-04    0.00      10.7  T
   6   -229.3480913 -0.102456E-06  0.575E-04    0.00      15.6  T
   7   -229.3480914 -0.904654E-07  0.147E-04    0.00      61.0  T
   8   -229.3480914 -0.664076E-08  0.147E-05    0.00     611.1  T
     SCC iter.                  ...        0 min,  0.313 sec
     gradient                   ...        0 min,  0.244 sec
 * total energy  :  -225.8493308 Eh     change       -0.2318006E-03 Eh
   gradient norm :     0.0052373 Eh/α   predicted     0.0000000E+00 (-100.00%)
   displ. norm   :     0.0780984 α      lambda       -0.1003907E-03
   maximum displ.:     0.0481027 α      in ANC's #9, #14, #29, ...

........................................................................
.............................. CYCLE   22 ..............................
........................................................................
   1   -229.3503203 -0.229350E+03  0.300E-03    0.00       0.0  T
   2   -229.3469393  0.338101E-02  0.105E-01    0.01       1.0  T
   3   -229.3503226 -0.338332E-02  0.997E-04    0.00       9.0  T
   4   -229.3503228 -0.179410E-06  0.330E-04    0.00      27.2  T
   5   -229.3503228  0.220749E-07  0.376E-04    0.00      23.9  T
   6   -229.3503228 -0.387858E-07  0.127E-04    0.00      71.0  T
   7   -229.3503228 -0.321256E-08  0.390E-05    0.00     230.6  T
     SCC iter.                  ...        0 min,  0.276 sec
     gradient                   ...        0 min,  0.245 sec
 * total energy  :  -225.8494294 Eh     change       -0.9863564E-04 Eh
   gradient norm :     0.0028582 Eh/α   predicted    -0.6151992E-04 ( -37.63%)
   displ. norm   :     0.2683700 α      lambda       -0.2960170E-03
   maximum displ.:     0.1538824 α      in ANC's #9, #14, #21, ...

........................................................................
.............................. CYCLE   23 ..............................
........................................................................
   1   -229.3549457 -0.229355E+03  0.732E-03    0.00       0.0  T
   2   -229.3370733  0.178723E-01  0.240E-01    0.03       1.0  T
   3   -229.3549579 -0.178846E-01  0.297E-03    0.00       3.0  T
   4   -229.3549598 -0.193113E-05  0.936E-04    0.00       9.6  T
   5   -229.3549598  0.313993E-07  0.911E-04    0.00       9.9  T
   6   -229.3549600 -0.216410E-06  0.307E-04    0.00      29.3  T
   7   -229.3549600 -0.152845E-07  0.135E-04    0.00      66.5  T
   8   -229.3549600 -0.566772E-08  0.338E-05    0.00     265.3  T
     SCC iter.                  ...        0 min,  0.312 sec
     gradient                   ...        0 min,  0.246 sec
 * total energy  :  -225.8495296 Eh     change       -0.1001775E-03 Eh
   gradient norm :     0.0061406 Eh/α   predicted    -0.1586688E-03 (  58.39%)
   displ. norm   :     0.2136540 α      lambda       -0.2913969E-03
   maximum displ.:     0.1250077 α      in ANC's #9, #14, #25, ...

........................................................................
.............................. CYCLE   24 ..............................
........................................................................
   1   -229.3558017 -0.229356E+03  0.231E-03    0.00       0.0  T
   2   -229.3550630  0.738764E-03  0.489E-02    0.01       1.0  T
   3   -229.3558007 -0.737757E-03  0.254E-03    0.00       3.5  T
   4   -229.3558025 -0.178201E-05  0.689E-04    0.00      13.0  T
   5   -229.3558026 -0.103381E-06  0.309E-04    0.00      29.0  T
   6   -229.3558026 -0.133568E-07  0.184E-04    0.00      48.8  T
   7   -229.3558026 -0.104754E-07  0.385E-05    0.00     233.5  T
     SCC iter.                  ...        0 min,  0.275 sec
     gradient                   ...        0 min,  0.244 sec
 * total energy  :  -225.8496192 Eh     change       -0.8956066E-04 Eh
   gradient norm :     0.0072670 Eh/α   predicted    -0.1523520E-03 (  70.11%)
   displ. norm   :     0.1103232 α      lambda       -0.2106033E-03
   maximum displ.:     0.0525354 α      in ANC's #9, #14, #26, ...

........................................................................
.............................. CYCLE   25 ..............................
........................................................................
   1   -229.3543583 -0.229354E+03  0.299E-03    0.00       0.0  T
   2   -229.3509946  0.336367E-02  0.104E-01    0.01       1.0  T
   3   -229.3543594 -0.336477E-02  0.224E-03    0.00       4.0  T
   4   -229.3543606 -0.121918E-05  0.802E-04    0.00      11.2  T
   5   -229.3543607 -0.109249E-06  0.464E-04    0.00      19.4  T
   6   -229.3543608 -0.608806E-07  0.119E-04    0.00      75.4  T
   7   -229.3543608 -0.364133E-08  0.240E-05    0.00     374.1  T
     SCC iter.                  ...        0 min,  0.276 sec
     gradient                   ...        0 min,  0.244 sec
 * total energy  :  -225.8496929 Eh     change       -0.7369758E-04 Eh
   gradient norm :     0.0048092 Eh/α   predicted    -0.1065906E-03 (  44.63%)
   displ. norm   :     0.0981425 α      lambda       -0.1800435E-03
   maximum displ.:     0.0531293 α      in ANC's #9, #14, #25, ...

........................................................................
.............................. CYCLE   26 ..............................
........................................................................
   1   -229.3537283 -0.229354E+03  0.505E-03    0.00       0.0  T
   2   -229.3434986  0.102297E-01  0.182E-01    0.02       1.0  T
   3   -229.3537320 -0.102333E-01  0.355E-03    0.00       2.5  T
   4   -229.3537357 -0.367994E-05  0.561E-04    0.00      16.0  T
   5   -229.3537355  0.127085E-06  0.846E-04    0.00      10.6  T
   6   -229.3537357 -0.203782E-06  0.223E-04    0.00      40.4  T
   7   -229.3537358 -0.102245E-07  0.772E-05    0.00     116.3  T
   8   -229.3537358 -0.180884E-08  0.166E-05    0.00     539.4  T
     SCC iter.                  ...        0 min,  0.315 sec
     gradient                   ...        0 min,  0.247 sec
 * total energy  :  -225.8497985 Eh     change       -0.1056261E-03 Eh
   gradient norm :     0.0026142 Eh/α   predicted    -0.9088907E-04 ( -13.95%)
   displ. norm   :     0.1714513 α      lambda       -0.1335882E-03
   maximum displ.:     0.1128997 α      in ANC's #9, #14, #19, ...

........................................................................
.............................. CYCLE   27 ..............................
........................................................................
   1   -229.3536886 -0.229354E+03  0.438E-03    0.00       0.0  T
   2   -229.3455545  0.813408E-02  0.162E-01    0.02       1.0  T
   3   -229.3536939 -0.813934E-02  0.135E-03    0.00       6.7  T
   4   -229.3536943 -0.454184E-06  0.469E-04    0.00      19.2  T
   5   -229.3536944 -0.453070E-07  0.299E-04    0.00      30.1  T
   6   -229.3536944 -0.235926E-07  0.113E-04    0.00      79.5  T
   7   -229.3536944 -0.267300E-08  0.407E-05    0.00     220.5  T
     SCC iter.                  ...        0 min,  0.275 sec
     gradient                   ...        0 min,  0.246 sec
 * total energy  :  -225.8498937 Eh     change       -0.9520069E-04 Eh
   gradient norm :     0.0023503 Eh/α   predicted    -0.6875958E-04 ( -27.77%)
   displ. norm   :     0.2382439 α      lambda       -0.1251257E-03
   maximum displ.:     0.1544863 α      in ANC's #9, #14, #19, ...

........................................................................
.............................. CYCLE   28 ..............................
........................................................................
   1   -229.3532606 -0.229353E+03  0.328E-03    0.00       0.0  T
   2   -229.3488898  0.437082E-02  0.119E-01    0.02       1.0  T
   3   -229.3532628 -0.437302E-02  0.176E-03    0.00       5.1  T
   4   -229.3532637 -0.894374E-06  0.298E-04    0.00      30.1  T
   5   -229.3532637  0.164926E-07  0.357E-04    0.00      25.2  T
   6   -229.3532637 -0.372096E-07  0.882E-05    0.00     101.8  T
   7   -229.3532637 -0.134136E-08  0.426E-05    0.00     210.9  T
     SCC iter.                  ...        0 min,  0.276 sec
     gradient                   ...        0 min,  0.243 sec
 * total energy  :  -225.8500069 Eh     change       -0.1132238E-03 Eh
   gradient norm :     0.0024937 Eh/α   predicted    -0.6611588E-04 ( -41.61%)
   displ. norm   :     0.3596875 α      lambda       -0.1825580E-03
   maximum displ.:     0.2302973 α      in ANC's #9, #14, #19, ...

........................................................................
.............................. CYCLE   29 ..............................
........................................................................
   1   -229.3527321 -0.229353E+03  0.170E-03    0.00       0.0  T
   2   -229.3519775  0.754643E-03  0.494E-02    0.01       1.0  T
   3   -229.3527322 -0.754721E-03  0.139E-03    0.00       6.5  T
   4   -229.3527327 -0.527442E-06  0.314E-04    0.00      28.6  T
   5   -229.3527327 -0.187555E-09  0.248E-04    0.00      36.1  T
   6   -229.3527327 -0.190037E-07  0.859E-05    0.00     104.6  T
   7   -229.3527327 -0.144848E-08  0.392E-05    0.00     229.0  T
     SCC iter.                  ...        0 min,  0.274 sec
     gradient                   ...        0 min,  0.243 sec
 * total energy  :  -225.8501679 Eh     change       -0.1609660E-03 Eh
   gradient norm :     0.0025825 Eh/α   predicted    -0.1030906E-03 ( -35.96%)
   displ. norm   :     0.4631118 α      lambda       -0.2003511E-03
   maximum displ.:     0.2963789 α      in ANC's #9, #14, #19, ...

........................................................................
.............................. CYCLE   30 ..............................
........................................................................
   1   -229.3518090 -0.229352E+03  0.140E-03    0.00       0.0  T
   2   -229.3515066  0.302423E-03  0.313E-02    0.00       1.0  T
   3   -229.3518081 -0.301496E-03  0.206E-03    0.00       4.4  T
   4   -229.3518093 -0.116672E-05  0.502E-04    0.00      17.9  T
   5   -229.3518093 -0.596776E-07  0.263E-04    0.00      34.2  T
   6   -229.3518094 -0.181224E-07  0.762E-05    0.00     117.8  T
   7   -229.3518094 -0.106201E-08  0.271E-05    0.00     331.7  T
     SCC iter.                  ...        0 min,  0.275 sec
     gradient                   ...        0 min,  0.245 sec
 * total energy  :  -225.8503400 Eh     change       -0.1721018E-03 Eh
   gradient norm :     0.0029701 Eh/α   predicted    -0.1216625E-03 ( -29.31%)
   displ. norm   :     0.5054767 α      lambda       -0.1881084E-03
   maximum displ.:     0.3247273 α      in ANC's #9, #14, #19, ...

........................................................................
.............................. CYCLE   31 ..............................
........................................................................
   1   -229.3508798 -0.229351E+03  0.241E-03    0.00       0.0  T
   2   -229.3488166  0.206319E-02  0.817E-02    0.01       1.0  T
   3   -229.3508802 -0.206354E-02  0.200E-03    0.00       4.5  T
   4   -229.3508812 -0.104546E-05  0.627E-04    0.00      14.3  T
   5   -229.3508813 -0.112364E-06  0.344E-04    0.00      26.1  T
   6   -229.3508814 -0.279464E-07  0.841E-05    0.00     106.7  T
   7   -229.3508814 -0.153122E-08  0.178E-05    0.00     503.5  T
     SCC iter.                  ...        0 min,  0.276 sec
     gradient                   ...        0 min,  0.245 sec
 * total energy  :  -225.8504986 Eh     change       -0.1586017E-03 Eh
   gradient norm :     0.0031667 Eh/α   predicted    -0.1180868E-03 ( -25.55%)
   displ. norm   :     0.5391185 α      lambda       -0.1785301E-03
   maximum displ.:     0.3477840 α      in ANC's #9, #14, #6, ...

........................................................................
.............................. CYCLE   32 ..............................
........................................................................
   1   -229.3503785 -0.229350E+03  0.294E-03    0.00       0.0  T
   2   -229.3471316  0.324697E-02  0.103E-01    0.01       1.0  T
   3   -229.3503797 -0.324812E-02  0.204E-03    0.00       4.4  T
   4   -229.3503808 -0.109375E-05  0.627E-04    0.00      14.3  T
   5   -229.3503809 -0.115325E-06  0.382E-04    0.00      23.5  T
   6   -229.3503809 -0.357768E-07  0.882E-05    0.00     101.8  T
   7   -229.3503809 -0.151260E-08  0.224E-05    0.00     400.4  T
     SCC iter.                  ...        0 min,  0.275 sec
     gradient                   ...        0 min,  0.245 sec
 * total energy  :  -225.8506434 Eh     change       -0.1448520E-03 Eh
   gradient norm :     0.0027809 Eh/α   predicted    -0.1152115E-03 ( -20.46%)
   displ. norm   :     0.5222696 α      lambda       -0.1468592E-03
   maximum displ.:     0.3357452 α      in ANC's #9, #14, #6, ...

........................................................................
.............................. CYCLE   33 ..............................
........................................................................
   1   -229.3505081 -0.229351E+03  0.248E-03    0.00       0.0  T
   2   -229.3485117  0.199641E-02  0.804E-02    0.01       1.0  T
   3   -229.3505088 -0.199708E-02  0.175E-03    0.00       5.1  T
   4   -229.3505096 -0.799144E-06  0.512E-04    0.00      17.6  T
   5   -229.3505097 -0.708336E-07  0.329E-04    0.00      27.3  T
   6   -229.3505097 -0.261981E-07  0.779E-05    0.00     115.3  T
   7   -229.3505097 -0.915321E-09  0.283E-05    0.00     317.1  T
     SCC iter.                  ...        0 min,  0.274 sec
     gradient                   ...        0 min,  0.242 sec
 * total energy  :  -225.8507551 Eh     change       -0.1116952E-03 Eh
   gradient norm :     0.0018534 Eh/α   predicted    -0.9346162E-04 ( -16.32%)
   displ. norm   :     0.6167337 α      lambda       -0.8145480E-04
   maximum displ.:     0.3877805 α      in ANC's #9, #14, #6, ...

........................................................................
.............................. CYCLE   34 ..............................
........................................................................
   1   -229.3501667 -0.229350E+03  0.172E-03    0.00       0.0  T
   2   -229.3500925  0.741548E-04  0.155E-02    0.00       1.0  T
   3   -229.3501552 -0.627059E-04  0.621E-03    0.00       1.4  T
   4   -229.3501670 -0.117351E-04  0.534E-04    0.00      16.8  T
   5   -229.3501670 -0.493156E-07  0.349E-04    0.00      25.7  T
   6   -229.3501671 -0.333026E-07  0.899E-05    0.00      99.9  T
   7   -229.3501671 -0.179810E-08  0.308E-05    0.00     291.6  T
     SCC iter.                  ...        0 min,  0.274 sec
     gradient                   ...        0 min,  0.246 sec
 * total energy  :  -225.8508256 Eh     change       -0.7043097E-04 Eh
   gradient norm :     0.0014636 Eh/α   predicted    -0.4761388E-04 ( -32.40%)
   displ. norm   :     0.0992311 α      lambda       -0.1276049E-04
   maximum displ.:     0.0622827 α      in ANC's #14, #9, #6, ...

........................................................................
.............................. CYCLE   35 ..............................
........................................................................
   1   -229.3518007 -0.229352E+03  0.189E-03    0.00       0.0  T
   2   -229.3506197  0.118096E-02  0.619E-02    0.01       1.0  T
   3   -229.3518012 -0.118147E-02  0.113E-03    0.00       7.9  T
   4   -229.3518015 -0.306811E-06  0.338E-04    0.00      26.6  T
   5   -229.3518015 -0.785934E-08  0.216E-04    0.00      41.6  T
   6   -229.3518015 -0.143893E-07  0.615E-05    0.00     145.9  T
   7   -229.3518015 -0.160881E-08  0.122E-05    0.00     736.2  T
     SCC iter.                  ...        0 min,  0.274 sec
     gradient                   ...        0 min,  0.245 sec
 * total energy  :  -225.8508383 Eh     change       -0.1278759E-04 Eh
   gradient norm :     0.0013892 Eh/α   predicted    -0.6409321E-05 ( -49.88%)
   displ. norm   :     0.2700769 α      lambda       -0.2434645E-04
   maximum displ.:     0.1870003 α      in ANC's #14, #9, #6, ...

........................................................................
.............................. CYCLE   36 ..............................
........................................................................
   1   -229.3493390 -0.229349E+03  0.412E-03    0.00       0.0  T
   2   -229.3430345  0.630451E-02  0.143E-01    0.02       1.0  T
   3   -229.3493423 -0.630777E-02  0.216E-03    0.00       4.2  T
   4   -229.3493435 -0.122177E-05  0.586E-04    0.00      15.3  T
   5   -229.3493435 -0.214653E-07  0.365E-04    0.00      24.6  T
   6   -229.3493435 -0.241873E-07  0.174E-04    0.00      51.6  T
   7   -229.3493436 -0.128836E-07  0.290E-05    0.00     309.6  T
     SCC iter.                  ...        0 min,  0.274 sec
     gradient                   ...        0 min,  0.244 sec
 * total energy  :  -225.8508538 Eh     change       -0.1548044E-04 Eh
   gradient norm :     0.0021921 Eh/α   predicted    -0.1257225E-04 ( -18.79%)
   displ. norm   :     0.0433046 α      lambda       -0.1178374E-04
   maximum displ.:     0.0250613 α      in ANC's #9, #24, #12, ...

........................................................................
.............................. CYCLE   37 ..............................
........................................................................
   1   -229.3496017 -0.229350E+03  0.858E-04    0.00       0.0  T
   2   -229.3494731  0.128520E-03  0.204E-02    0.00       1.0  T
   3   -229.3496016 -0.128480E-03  0.747E-04    0.00      12.0  T
   4   -229.3496018 -0.141075E-06  0.164E-04    0.00      54.8  T
   5   -229.3496018 -0.326082E-09  0.733E-05    0.00     122.5  T
     SCC iter.                  ...        0 min,  0.198 sec
     gradient                   ...        0 min,  0.243 sec
 * total energy  :  -225.8508633 Eh     change       -0.9515067E-05 Eh
   gradient norm :     0.0010420 Eh/α   predicted    -0.5904901E-05 ( -37.94%)
   displ. norm   :     0.1438749 α      lambda       -0.1906349E-04
   maximum displ.:     0.0669447 α      in ANC's #24, #9, #12, ...

........................................................................
.............................. CYCLE   38 ..............................
........................................................................
   1   -229.3501814 -0.229350E+03  0.353E-03    0.00       0.0  T
   2   -229.3453468  0.483454E-02  0.125E-01    0.02       1.0  T
   3   -229.3501840 -0.483714E-02  0.173E-03    0.00       5.2  T
   4   -229.3501848 -0.798788E-06  0.380E-04    0.00      23.6  T
   5   -229.3501848  0.571174E-08  0.295E-04    0.00      30.5  T
   6   -229.3501848 -0.264913E-07  0.115E-04    0.00      78.4  T
   7   -229.3501848 -0.445323E-08  0.185E-05    0.00     486.5  T
     SCC iter.                  ...        0 min,  0.274 sec
     gradient                   ...        0 min,  0.242 sec
 * total energy  :  -225.8508796 Eh     change       -0.1625901E-04 Eh
   gradient norm :     0.0018943 Eh/α   predicted    -0.9622597E-05 ( -40.82%)
   displ. norm   :     0.0772425 α      lambda       -0.8972465E-05
   maximum displ.:     0.0341340 α      in ANC's #12, #9, #14, ...

........................................................................
.............................. CYCLE   39 ..............................
........................................................................
   1   -229.3496327 -0.229350E+03  0.149E-03    0.00       0.0  T
   2   -229.3487852  0.847472E-03  0.524E-02    0.01       1.0  T
   3   -229.3496329 -0.847703E-03  0.112E-03    0.00       8.0  T
   4   -229.3496332 -0.357158E-06  0.208E-04    0.00      43.1  T
   5   -229.3496333 -0.404086E-08  0.110E-04    0.00      81.4  T
   6   -229.3496333 -0.965912E-09  0.645E-05    0.00     139.3  T
     SCC iter.                  ...        0 min,  0.236 sec
     gradient                   ...        0 min,  0.245 sec
 * total energy  :  -225.8508899 Eh     change       -0.1032712E-04 Eh
   gradient norm :     0.0019908 Eh/α   predicted    -0.4500285E-05 ( -56.42%)
   displ. norm   :     0.1251443 α      lambda       -0.1365262E-04
   maximum displ.:     0.0625322 α      in ANC's #9, #12, #6, ...

........................................................................
.............................. CYCLE   40 ..............................
........................................................................
   1   -229.3495185 -0.229350E+03  0.243E-03    0.00       0.0  T
   2   -229.3473294  0.218919E-02  0.842E-02    0.01       1.0  T
   3   -229.3495192 -0.218989E-02  0.172E-03    0.00       5.2  T
   4   -229.3495200 -0.796849E-06  0.451E-04    0.00      19.9  T
   5   -229.3495201 -0.121826E-07  0.324E-04    0.00      27.8  T
   6   -229.3495201 -0.296210E-07  0.746E-05    0.00     120.4  T
   7   -229.3495201 -0.221516E-08  0.249E-05    0.00     360.9  T
     SCC iter.                  ...        0 min,  0.274 sec
     gradient                   ...        0 min,  0.245 sec
 * total energy  :  -225.8509021 Eh     change       -0.1218767E-04 Eh
   gradient norm :     0.0009822 Eh/α   predicted    -0.6877571E-05 ( -43.57%)
   displ. norm   :     0.0766146 α      lambda       -0.6328802E-05
   maximum displ.:     0.0330677 α      in ANC's #14, #6, #12, ...

........................................................................
.............................. CYCLE   41 ..............................
........................................................................
   1   -229.3494355 -0.229349E+03  0.104E-03    0.00       0.0  T
   2   -229.3490446  0.390922E-03  0.356E-02    0.00       1.0  T
   3   -229.3494358 -0.391167E-03  0.404E-04    0.00      22.2  T
   4   -229.3494358 -0.299713E-07  0.168E-04    0.00      53.5  T
   5   -229.3494358 -0.203812E-09  0.114E-04    0.00      78.8  T
     SCC iter.                  ...        0 min,  0.198 sec
     gradient                   ...        0 min,  0.246 sec
 * total energy  :  -225.8509095 Eh     change       -0.7377770E-05 Eh
   gradient norm :     0.0010239 Eh/α   predicted    -0.3174588E-05 ( -56.97%)
   displ. norm   :     0.1352407 α      lambda       -0.1038686E-04
   maximum displ.:     0.0717017 α      in ANC's #14, #6, #12, ...

........................................................................
.............................. CYCLE   42 ..............................
........................................................................
   1   -229.3499691 -0.229350E+03  0.305E-03    0.00       0.0  T
   2   -229.3461252  0.384386E-02  0.112E-01    0.01       1.0  T
   3   -229.3499699 -0.384472E-02  0.245E-03    0.00       3.7  T
   4   -229.3499717 -0.179986E-05  0.283E-04    0.00      31.7  T
   5   -229.3499717 -0.238282E-08  0.250E-04    0.00      35.9  T
   6   -229.3499718 -0.103672E-07  0.146E-04    0.00      61.7  T
   7   -229.3499718 -0.685972E-08  0.151E-05    0.00     596.2  T
     SCC iter.                  ...        0 min,  0.275 sec
     gradient                   ...        0 min,  0.242 sec
 * total energy  :  -225.8509207 Eh     change       -0.1116329E-04 Eh
   gradient norm :     0.0014144 Eh/α   predicted    -0.5238926E-05 ( -53.07%)
   displ. norm   :     0.2010287 α      lambda       -0.1327555E-04
   maximum displ.:     0.1161385 α      in ANC's #14, #6, #5, ...
 * RMSD in coord.:     0.3860457 α      energy gain  -0.1821668E-02 Eh

generating ANC from model Hessian ...
Using Lindh-Hessian (1995)
 Shifting diagonal of input Hessian by    1.0028831713846845E-002
 Lowest  eigenvalues of input Hessian
    0.010000    0.010011    0.010016    0.010021    0.000000    0.000000
    0.000000    0.000000    0.000000    0.000000    0.010036    0.010135
    0.010164    0.010194    0.010397    0.010469    0.010547    0.010552
 Highest eigenvalues
    2.135536    2.135860    2.135892    2.485907    2.809239    3.033361


........................................................................
.............................. CYCLE   43 ..............................
........................................................................
   1   -229.3510021 -0.229351E+03  0.276E-03    0.00       0.0  T
   2   -229.3481576  0.284451E-02  0.960E-02    0.01       1.0  T
   3   -229.3510037 -0.284612E-02  0.124E-03    0.00       7.2  T
   4   -229.3510040 -0.302827E-06  0.614E-04    0.00      14.6  T
   5   -229.3510041 -0.491939E-07  0.386E-04    0.00      23.3  T
   6   -229.3510041 -0.361340E-07  0.134E-04    0.00      67.0  T
   7   -229.3510041 -0.603706E-08  0.324E-05    0.00     277.5  T
     SCC iter.                  ...        0 min,  0.273 sec
     gradient                   ...        0 min,  0.243 sec
 * total energy  :  -225.8509315 Eh     change       -0.1084236E-04 Eh
   gradient norm :     0.0018949 Eh/α   predicted     0.0000000E+00 (-100.00%)
   displ. norm   :     0.0207740 α      lambda       -0.5721135E-05
   maximum displ.:     0.0090702 α      in ANC's #23, #6, #21, ...

........................................................................
.............................. CYCLE   44 ..............................
........................................................................
   1   -229.3512938 -0.229351E+03  0.260E-03    0.00       0.0  T
   2   -229.3485584  0.273542E-02  0.942E-02    0.01       1.0  T
   3   -229.3512955 -0.273708E-02  0.999E-04    0.00       9.0  T
   4   -229.3512957 -0.197294E-06  0.486E-04    0.00      18.5  T
   5   -229.3512957 -0.373372E-07  0.282E-04    0.00      31.8  T
   6   -229.3512957 -0.229589E-07  0.594E-05    0.00     151.1  T
   7   -229.3512957 -0.131280E-08  0.125E-05    0.00     719.7  T
     SCC iter.                  ...        0 min,  0.275 sec
     gradient                   ...        0 min,  0.244 sec
 * total energy  :  -225.8509376 Eh     change       -0.6063804E-05 Eh
   gradient norm :     0.0005215 Eh/α   predicted    -0.3235773E-05 ( -46.64%)
   displ. norm   :     0.0399704 α      lambda       -0.5333046E-05
   maximum displ.:     0.0180317 α      in ANC's #23, #28, #6, ...

........................................................................
.............................. CYCLE   45 ..............................
........................................................................
   1   -229.3511136 -0.229351E+03  0.292E-03    0.00       0.0  T
   2   -229.3475263  0.358732E-02  0.108E-01    0.01       1.0  T
   3   -229.3511154 -0.358909E-02  0.156E-03    0.00       5.7  T
   4   -229.3511160 -0.675749E-06  0.412E-04    0.00      21.8  T
   5   -229.3511161 -0.147219E-07  0.331E-04    0.00      27.1  T
   6   -229.3511161 -0.313075E-07  0.576E-05    0.00     155.9  T
   7   -229.3511161 -0.104058E-08  0.113E-05    0.00     796.7  T
     SCC iter.                  ...        0 min,  0.274 sec
     gradient                   ...        0 min,  0.243 sec
 * total energy  :  -225.8509364 Eh     change        0.1204541E-05 Eh
   gradient norm :     0.0015628 Eh/α   predicted    -0.2675947E-05 (-322.15%)
   displ. norm   :     0.0390088 α      lambda       -0.9938893E-05
   maximum displ.:     0.0193781 α      in ANC's #23, #6, #15, ...

........................................................................
.............................. CYCLE   46 ..............................
........................................................................
   1   -229.3506547 -0.229351E+03  0.169E-03    0.00       0.0  T
   2   -229.3494561  0.119853E-02  0.623E-02    0.01       1.0  T
   3   -229.3506550 -0.119883E-02  0.131E-03    0.00       6.9  T
   4   -229.3506555 -0.510342E-06  0.171E-04    0.00      52.6  T
   5   -229.3506555 -0.247525E-09  0.163E-04    0.00      55.0  T
     SCC iter.                  ...        0 min,  0.198 sec
     gradient                   ...        0 min,  0.245 sec
 * total energy  :  -225.8509426 Eh     change       -0.6214002E-05 Eh
   gradient norm :     0.0013436 Eh/α   predicted    -0.4974226E-05 ( -19.95%)
   displ. norm   :     0.0344793 α      lambda       -0.7356270E-05
   maximum displ.:     0.0151705 α      in ANC's #10, #23, #14, ...

........................................................................
.............................. CYCLE   47 ..............................
........................................................................
   1   -229.3504002 -0.229350E+03  0.902E-04    0.00       0.0  T
   2   -229.3501590  0.241200E-03  0.280E-02    0.00       1.0  T
   3   -229.3504003 -0.241308E-03  0.545E-04    0.00      16.5  T
   4   -229.3504003 -0.541324E-07  0.268E-04    0.00      33.4  T
   5   -229.3504003 -0.121329E-07  0.141E-04    0.00      63.5  T
   6   -229.3504003 -0.651994E-08  0.324E-05    0.00     277.3  T
     SCC iter.                  ...        0 min,  0.235 sec
     gradient                   ...        0 min,  0.240 sec
 * total energy  :  -225.8509381 Eh     change        0.4455238E-05 Eh
   gradient norm :     0.0011708 Eh/α   predicted    -0.3680435E-05 (-182.61%)
   displ. norm   :     0.0203272 α      lambda       -0.1137838E-04
   maximum displ.:     0.0117278 α      in ANC's #10, #14, #40, ...

........................................................................
.............................. CYCLE   48 ..............................
........................................................................
   1   -229.3506610 -0.229351E+03  0.136E-03    0.00       0.0  T
   2   -229.3498459  0.815034E-03  0.514E-02    0.01       1.0  T
   3   -229.3506614 -0.815478E-03  0.616E-04    0.00      14.6  T
   4   -229.3506615 -0.106856E-06  0.157E-04    0.00      57.4  T
   5   -229.3506615 -0.514669E-08  0.876E-05    0.00     102.5  T
     SCC iter.                  ...        0 min,  0.196 sec
     gradient                   ...        0 min,  0.241 sec
 * total energy  :  -225.8509473 Eh     change       -0.9188884E-05 Eh
   gradient norm :     0.0003946 Eh/α   predicted    -0.5695182E-05 ( -38.02%)
   displ. norm   :     0.0290895 α      lambda       -0.2168812E-05
   maximum displ.:     0.0142979 α      in ANC's #23, #6, #15, ...

........................................................................
.............................. CYCLE   49 ..............................
........................................................................
   1   -229.3506472 -0.229351E+03  0.833E-04    0.00       0.0  T
   2   -229.3503515  0.295772E-03  0.310E-02    0.00       1.0  T
   3   -229.3506473 -0.295875E-03  0.574E-04    0.00      15.6  T
   4   -229.3506474 -0.975829E-07  0.867E-05    0.00     103.6  T
   5   -229.3506474 -0.434426E-09  0.701E-05    0.00     128.2  T
     SCC iter.                  ...        0 min,  0.198 sec
     gradient                   ...        0 min,  0.245 sec
 * total energy  :  -225.8509492 Eh     change       -0.1899313E-05 Eh
   gradient norm :     0.0003763 Eh/α   predicted    -0.1089331E-05 ( -42.65%)
   displ. norm   :     0.0551142 α      lambda       -0.2740857E-05
   maximum displ.:     0.0267686 α      in ANC's #6, #23, #15, ...

   *** GEOMETRY OPTIMIZATION CONVERGED AFTER 49 ITERATIONS ***

------------------------------------------------------------------------
 total energy gain   :        -0.9097262 Eh     -570.8618 kcal/mol
 total RMSD          :         0.9029982 a0        0.4778 Å
 total power (kW/mol):       -48.7446085 (step)  -71.2104 (real)
------------------------------------------------------------------------

 ANCopt (total)                0 d,  0 h,  0 min, 33.541 sec
 optimizer setup                ...        0 min,  0.000 sec (  0.001%)
 model hessian                  ...        0 min,  0.119 sec (  0.354%)
 ANC generation                 ...        0 min,  0.060 sec (  0.178%)
 coordinate transformation      ...        0 min,  0.005 sec (  0.016%)
 single point calculation       ...        0 min, 33.306 sec ( 99.300%)
 optimization log               ...        0 min,  0.022 sec (  0.066%)
 hessian update                 ...        0 min,  0.005 sec (  0.016%)
 rational function              ...        0 min,  0.019 sec (  0.058%)

================
 final structure:
================
124
 xtb: 6.5.1 (b24c23e)
Cu          12.99895547177315       -0.02792428250093       -0.01225564686972
C            9.59402863122935       -0.07481178271223       -0.09478836025805
C           10.23303850902328       -1.30360719322296       -0.02404134293797
C            9.56157865162607       -2.56902195137450        0.05656222267683
C           10.52322607663881       -3.52162631025465        0.14111009872903
C           11.79207782555059       -2.84684310441917        0.10156079843589
N           11.58422686724310       -1.50086207596450        0.00699515116495
C           13.03826421140717       -3.47383602773948        0.17878477867794
C           13.05624054213584       -4.95554649263886        0.27392577804994
C           12.54989399497243       -5.74009812948016       -0.76231398865795
C           12.56801217283591       -7.12384936274767       -0.67695321509316
C           13.08990415547352       -7.73941812078450        0.45829090335646
O           13.12343843732145       -9.09140499079773        0.58487744585025
C           13.59540876936529       -6.96709197132418        1.50232832932550
C           13.58014369863187       -5.58695440982381        1.40437086256640
C           14.26832999838441       -2.81371977328259        0.17418639320870
C           15.54818253309373       -3.46341359843351        0.19746760445358
C           16.49110906303963       -2.48810811727814        0.15825841405376
N           14.45287428677849       -1.45737553614606        0.11139897000630
C           15.79554642498243       -1.23742970975817        0.10490157641007
C           16.42791615798001        0.01734521710141        0.04091702631418
C           15.76533675473130        1.25574154694281       -0.03055480665242
C           16.42952147787581        2.52115871476894       -0.11889681548902
C           15.46253018796427        3.47202151405887       -0.17438342809481
C           14.19914150309743        2.79302581700527       -0.11367415285630
N           14.41742569841978        1.44254874985758       -0.03545370546345
C           12.95241649846155        3.42043790912367       -0.15778446063640
C           12.93198151179622        4.90402448707066       -0.20461647479919
C           13.46917029960429        5.65377113947604        0.84463062958579
C           13.44517374826851        7.03683906639091        0.81292473577262
C           12.88506792080432        7.69332026326718       -0.28135798080140
O           12.87929962035802        9.05156131642624       -0.28157655437988
C           12.35011066196149        6.95932047116218       -1.33735469360706
C           12.37260492689784        5.57373655788410       -1.29311443125375
C           11.72182444954211        2.75815963602505       -0.15842717118468
C           10.43606822270953        3.40156773679174       -0.16404218675088
C            9.49877013210149        2.42136831472128       -0.15567689749374
C           10.20206059513737        1.17111866996123       -0.13213052411602
N           11.54791589966172        1.40431695051974       -0.13036226846665
H            8.50895586206960       -0.08886368327066       -0.10583842059790
H            8.49048616070199       -2.69708764378792        0.05670342317182
H           10.39169344695141       -4.58764533885532        0.23489457842963
H           12.15393929258938       -5.26224602826403       -1.65155988801207
H           12.17972133738135       -7.72921345412643       -1.48906702892568
H           12.74956690172609       -9.52693473611832       -0.19293727473715
H           13.99447659812959       -7.45905171193747        2.38072707187206
H           13.96377442109195       -4.98579059602869        2.22113481296406
H           15.70167522993555       -4.53005840205489        0.22530723356650
H           17.56390915245850       -2.59652757733100        0.15890801019920
H           17.49930620486019        2.65465904557093       -0.14129114006749
H           15.58976312384230        4.53873057054382       -0.26386621697010
H           13.89356284026714        5.14327287488840        1.70194340266402
H           13.85446382774298        7.62008049459243        1.62852722903748
H           12.46647108526133        9.40156043019658       -1.08242467013123
H           11.91945507334324        7.47455965109663       -2.18931528204417
H           11.96675014784610        5.00389706980926       -2.12164868670172
H           10.27678906603592        4.46789510384473       -0.16088416259857
H            8.42475756698666        2.52210970931730       -0.15553843325730
Cu          31.60195187060678        0.02310303000767       -0.01618781050948
C           35.00685068034493        0.05972304965048       -0.10421665171283
C           34.36707549449524        1.28563762722199       -0.20961175815872
C           35.03777821259440        2.55003916324242       -0.30990826769129
C           34.07554611952201        3.50432896622003       -0.36298335454604
C           32.80709116758337        2.82998711535602       -0.30680900184375
N           33.01574324877899        1.48443109415672       -0.20790564366185
C           31.56048025631214        3.46072303721798       -0.32151937411940
C           31.54151743029429        4.94073104870517       -0.43983337917299
C           32.04959981324872        5.56920102282837       -1.57673544007875
C           32.02994649011940        6.95086852683882       -1.69078184866409
C           31.50487932505230        7.72228742456528       -0.65675651384724
O           31.46973757329192        9.07838899383001       -0.72547541574510
C           30.99790069643390        7.10706805216657        0.48626626890370
C           31.01462483453608        5.72716411012813        0.58729366861669
C           30.33076497752966        2.80588452794995       -0.23246650766333
C           29.05052105605612        3.45131672617637       -0.30391912467346
C           28.10814045460933        2.47996291458505       -0.20265454606973
N           30.14700265588582        1.45453969445745       -0.09936501581076
C           28.80440275126370        1.23509628387699       -0.07481835181339
C           28.17301426085291       -0.01625392170962        0.04260970692820
C           28.83658416831861       -1.25153165269405        0.15039350847081
C           28.17307151008498       -2.51683918844148        0.24536624518197
C           29.14056902313901       -3.46530353373341        0.32683458859823
C           30.40357553150992       -2.78396294927381        0.28867193522554
N           30.18454801163999       -1.43636987566885        0.17206041829769
C           31.65062703536339       -3.41054394439688        0.33434690096412
C           31.67199830449117       -4.88547232712492        0.50101343491170
C           31.13683719369754       -5.47694020879682        1.64790613667802
C           31.16206261355736       -6.85018019531412        1.81533583935838
C           31.72129333140205       -7.65674788262015        0.82596943623141
O           31.72849232930543       -9.00089621075613        1.02111321919149
C           32.25398285581878       -7.08184235163611       -0.32545865047045
C           32.23036435616557       -5.70430211401310       -0.48080548095378
C           32.88078025449872       -2.75447277326939        0.23809347717367
C           34.16690447862049       -3.39136994469780        0.32420676288660
[...]
    10   6 C    3.988 --    11 C    1.451     9 C    1.395    43 H    0.973
                            14 C    0.105
    11   6 C    3.988 --    10 C    1.451    12 C    1.372    44 H    0.970
                            15 C    0.103
    12   6 C    3.901 --    11 C    1.372    14 C    1.365    13 O    1.040
    13   8 O    2.043 --    12 C    1.040    45 H    0.865
    14   6 C    3.990 --    15 C    1.466    12 C    1.365    46 H    0.971
                            10 C    0.105
    15   6 C    3.988 --    14 C    1.466     9 C    1.385    47 H    0.973
                            11 C    0.103
    16   6 C    3.908 --     8 C    1.328    19 N    1.220    17 C    1.180
    17   6 C    3.954 --    18 C    1.642    16 C    1.180    48 H    0.973
    18   6 C    3.956 --    17 C    1.642    20 C    1.187    49 H    0.974
    19   7 N    3.248 --    20 C    1.258    16 C    1.220     1 Cu   0.503
    20   6 C    3.897 --    19 N    1.258    21 C    1.257    18 C    1.187
    21   6 C    3.939 --    22 C    1.258    20 C    1.257   117 C    1.190
    22   6 C    3.897 --    21 C    1.258    26 N    1.257    23 C    1.187
    23   6 C    3.956 --    24 C    1.642    22 C    1.187    50 H    0.974
    24   6 C    3.954 --    23 C    1.642    25 C    1.180    51 H    0.973
    25   6 C    3.908 --    27 C    1.327    26 N    1.221    24 C    1.180
    26   7 N    3.248 --    22 C    1.257    25 C    1.221     1 Cu   0.503
    27   6 C    3.935 --    25 C    1.327    35 C    1.318    28 C    1.028
    28   6 C    3.989 --    34 C    1.394    29 C    1.384    27 C    1.028
    29   6 C    3.988 --    30 C    1.466    28 C    1.384    52 H    0.973
                            33 C    0.102
    30   6 C    3.990 --    29 C    1.466    31 C    1.364    53 H    0.971
                            34 C    0.105
    31   6 C    3.901 --    33 C    1.372    30 C    1.364    32 O    1.040
    32   8 O    2.043 --    31 C    1.040    54 H    0.865
    33   6 C    3.988 --    34 C    1.452    31 C    1.372    55 H    0.970
                            29 C    0.102
    34   6 C    3.988 --    33 C    1.452    28 C    1.394    56 H    0.973
                            30 C    0.105
    35   6 C    3.912 --    27 C    1.318    39 N    1.239    36 C    1.173
    36   6 C    3.958 --    37 C    1.654    35 C    1.173    57 H    0.973
    37   6 C    3.955 --    36 C    1.654    38 C    1.172    58 H    0.976
    38   6 C    3.918 --     2 C    1.361    39 N    1.229    37 C    1.172
    39   7 N    3.244 --    35 C    1.239    38 C    1.229     1 Cu   0.505
    40   1 H    1.002 --     2 C    0.971
    41   1 H    0.998 --     4 C    0.976
    42   1 H    1.005 --     5 C    0.973
    43   1 H    1.005 --    10 C    0.973
    44   1 H    0.999 --    11 C    0.970
    45   1 H    0.887 --    13 O    0.865
    46   1 H    0.999 --    14 C    0.971
    47   1 H    1.005 --    15 C    0.973
    48   1 H    1.005 --    17 C    0.973
    49   1 H    1.002 --    18 C    0.974
    50   1 H    1.002 --    23 C    0.974
    51   1 H    1.005 --    24 C    0.973
    52   1 H    1.005 --    29 C    0.973
    53   1 H    0.999 --    30 C    0.971
    54   1 H    0.887 --    32 O    0.865
    55   1 H    0.999 --    33 C    0.970
    56   1 H    1.005 --    34 C    0.973
    57   1 H    1.005 --    36 C    0.973
    58   1 H    0.998 --    37 C    0.976
    59  29 Cu   2.186 --    97 N    0.505    65 N    0.505    77 N    0.503
                            84 N    0.503
    60   6 C    3.928 --    61 C    1.361    96 C    1.361    98 H    0.971
    61   6 C    3.918 --    60 C    1.361    65 N    1.229    62 C    1.171
    62   6 C    3.955 --    63 C    1.654    61 C    1.171    99 H    0.976
    63   6 C    3.958 --    62 C    1.654    64 C    1.173   100 H    0.973
    64   6 C    3.912 --    66 C    1.319    65 N    1.239    63 C    1.173
    65   7 N    3.244 --    64 C    1.239    61 C    1.229    59 Cu   0.505
    66   6 C    3.935 --    74 C    1.328    64 C    1.319    67 C    1.026
    67   6 C    3.989 --    68 C    1.395    73 C    1.385    66 C    1.026
    68   6 C    3.988 --    69 C    1.451    67 C    1.395   101 H    0.973
                            72 C    0.105
    69   6 C    3.988 --    68 C    1.451    70 C    1.372   102 H    0.970
                            73 C    0.103
    70   6 C    3.901 --    69 C    1.372    72 C    1.365    71 O    1.040
    71   8 O    2.043 --    70 C    1.040   103 H    0.865
    72   6 C    3.990 --    73 C    1.466    70 C    1.365   104 H    0.971
                            68 C    0.105
    73   6 C    3.988 --    72 C    1.466    67 C    1.385   105 H    0.973
                            69 C    0.103
    74   6 C    3.908 --    66 C    1.328    77 N    1.220    75 C    1.180
    75   6 C    3.954 --    76 C    1.642    74 C    1.180   106 H    0.973
    76   6 C    3.956 --    75 C    1.642    78 C    1.187   107 H    0.974
    77   7 N    3.248 --    78 C    1.258    74 C    1.220    59 Cu   0.503
    78   6 C    3.897 --    77 N    1.258    79 C    1.257    76 C    1.187
    79   6 C    3.939 --    80 C    1.258    78 C    1.257   124 C    1.190
    80   6 C    3.897 --    79 C    1.258    84 N    1.257    81 C    1.187
    81   6 C    3.956 --    82 C    1.642    80 C    1.187   108 H    0.974
    82   6 C    3.954 --    81 C    1.642    83 C    1.180   109 H    0.973
    83   6 C    3.908 --    85 C    1.327    84 N    1.221    82 C    1.180
    84   7 N    3.248 --    80 C    1.257    83 C    1.221    59 Cu   0.503
    85   6 C    3.935 --    83 C    1.327    93 C    1.318    86 C    1.028
    86   6 C    3.989 --    92 C    1.394    87 C    1.384    85 C    1.028
    87   6 C    3.988 --    88 C    1.466    86 C    1.384   110 H    0.973
                            91 C    0.102
    88   6 C    3.990 --    87 C    1.466    89 C    1.364   111 H    0.971
                            92 C    0.105
    89   6 C    3.901 --    91 C    1.372    88 C    1.364    90 O    1.040
    90   8 O    2.043 --    89 C    1.040   112 H    0.865
    91   6 C    3.988 --    92 C    1.452    89 C    1.372   113 H    0.970
                            87 C    0.102
    92   6 C    3.988 --    91 C    1.452    86 C    1.394   114 H    0.973
                            88 C    0.105
    93   6 C    3.912 --    85 C    1.318    97 N    1.239    94 C    1.173
    94   6 C    3.958 --    95 C    1.654    93 C    1.173   115 H    0.973
    95   6 C    3.955 --    94 C    1.654    96 C    1.172   116 H    0.976
    96   6 C    3.918 --    60 C    1.361    97 N    1.229    95 C    1.172
    97   7 N    3.244 --    93 C    1.239    96 C    1.229    59 Cu   0.505
    98   1 H    1.002 --    60 C    0.971
    99   1 H    0.998 --    62 C    0.976
   100   1 H    1.005 --    63 C    0.973
   101   1 H    1.005 --    68 C    0.973
   102   1 H    0.999 --    69 C    0.970
   103   1 H    0.887 --    71 O    0.865
   104   1 H    0.999 --    72 C    0.971
   105   1 H    1.005 --    73 C    0.973
   106   1 H    1.005 --    75 C    0.973
   107   1 H    1.002 --    76 C    0.974
   108   1 H    1.002 --    81 C    0.974
   109   1 H    1.005 --    82 C    0.973
   110   1 H    1.005 --    87 C    0.973
   111   1 H    0.999 --    88 C    0.971
   112   1 H    0.887 --    90 O    0.865
   113   1 H    0.999 --    91 C    0.970
   114   1 H    1.005 --    92 C    0.973
   115   1 H    1.005 --    94 C    0.973
   116   1 H    0.998 --    95 C    0.976
   117   6 C    3.878 --   118 C    2.441    21 C    1.190   120 C    0.187
   118   6 C    3.936 --   117 C    2.441   119 C    1.343
   119   6 C    3.894 --   120 C    2.338   118 C    1.343   122 C    0.183
   120   6 C    3.926 --   119 C    2.338   121 C    1.368   117 C    0.187
   121   6 C    3.926 --   122 C    2.338   120 C    1.368   124 C    0.187
   122   6 C    3.894 --   121 C    2.338   123 C    1.343   119 C    0.183
   123   6 C    3.936 --   124 C    2.441   122 C    1.343
   124   6 C    3.878 --   123 C    2.441    79 C    1.190   121 C    0.187
 ---------------------------------------------------------------------------

Topologies differ in total number of bonds
Writing topology from bond orders to xtbtopo.mol

 dipole moment from electron density (au)
     X       Y       Z   
  -0.0009  -0.1972  -2.7519  total (Debye):    7.013

           -------------------------------------------------
          |                Geometry Summary                 |
           -------------------------------------------------

      molecular mass/u    :     1206.2180586
   center of mass at/Å    :       22.3004200      -0.0002715       0.0172176
  moments of inertia/u·Å² :        0.2214654E+05   0.1012109E+06   0.1227531E+06
rotational constants/cm⁻¹ :        0.7611859E-03   0.1665595E-03   0.1373296E-03

 * 126 selected distances

     #   Z          #   Z                                           value/Å
     2   6 C        3   6 C                                       1.3868227
     3   6 C        4   6 C                                       1.4347927
     4   6 C        5   6 C                                       1.3562336
     5   6 C        6   6 C                                       1.4376654
     3   6 C        7   7 N                                       1.3658635
     6   6 C        7   7 N                                       1.3652143
     6   6 C        8   6 C                                       1.3971630
     9   6 C       10   6 C                                       1.3948840
    10   6 C       11   6 C                                       1.3865001
    11   6 C       12   6 C                                       1.3928660
    12   6 C       13   8 O                                       1.3583142
    12   6 C       14   6 C                                       1.3935699
     9   6 C       15   6 C                                       1.3968024
    14   6 C       15   6 C                                       1.3836939
     8   6 C       16   6 C                                       1.3960075
    16   6 C       17   6 C                                       1.4355023
    17   6 C       18   6 C                                       1.3571547
    16   6 C       19   7 N                                       1.3702806
    18   6 C       20   6 C                                       1.4320793
    19   7 N       20   6 C                                       1.3605834
    20   6 C       21   6 C                                       1.4065724
    21   6 C       22   6 C                                       1.4063234
    22   6 C       23   6 C                                       1.4318613
    23   6 C       24   6 C                                       1.3573103
    24   6 C       25   6 C                                       1.4355738
    22   6 C       26   7 N                                       1.3608033
    25   6 C       26   7 N                                       1.3702391
    25   6 C       27   6 C                                       1.3963937
    28   6 C       29   6 C                                       1.3970010
    29   6 C       30   6 C                                       1.3836395
    30   6 C       31   6 C                                       1.3936072
    31   6 C       32   8 O                                       1.3582534
    31   6 C       33   6 C                                       1.3928619
    28   6 C       34   6 C                                       1.3950787
    33   6 C       34   6 C                                       1.3864726
    27   6 C       35   6 C                                       1.3974871
    35   6 C       36   6 C                                       1.4377674 (max)
    36   6 C       37   6 C                                       1.3562407
     2   6 C       38   6 C                                       1.3868815
    37   6 C       38   6 C                                       1.4346764
    35   6 C       39   7 N                                       1.3652554
    38   6 C       39   7 N                                       1.3659105
     2   6 C       40   1 H                                       1.0852201
     4   6 C       41   1 H                                       1.0787215
     5   6 C       42   1 H                                       1.0781898
    10   6 C       43   1 H                                       1.0843806
    11   6 C       44   1 H                                       1.0847878
    13   8 O       45   1 H                                       0.9666757
    14   6 C       46   1 H                                       1.0829885
    15   6 C       47   1 H                                       1.0842850
    17   6 C       48   1 H                                       1.0779918
    18   6 C       49   1 H                                       1.0782650
    23   6 C       50   1 H                                       1.0783151
    24   6 C       51   1 H                                       1.0779906
    29   6 C       52   1 H                                       1.0842984
    30   6 C       53   1 H                                       1.0830035
    32   8 O       54   1 H                                       0.9665840
    33   6 C       55   1 H                                       1.0847916
    34   6 C       56   1 H                                       1.0843912
    36   6 C       57   1 H                                       1.0781624
    37   6 C       58   1 H                                       1.0787271
    60   6 C       61   6 C                                       1.3868264
    61   6 C       62   6 C                                       1.4347868
    62   6 C       63   6 C                                       1.3562363
    63   6 C       64   6 C                                       1.4376616
    61   6 C       65   7 N                                       1.3658774
    64   6 C       65   7 N                                       1.3652249
    64   6 C       66   6 C                                       1.3971698
    67   6 C       68   6 C                                       1.3948724
    68   6 C       69   6 C                                       1.3865058
    69   6 C       70   6 C                                       1.3928357
    70   6 C       71   8 O                                       1.3582964
    70   6 C       72   6 C                                       1.3935651
    67   6 C       73   6 C                                       1.3968118
    72   6 C       73   6 C                                       1.3836985
    66   6 C       74   6 C                                       1.3960458
    74   6 C       75   6 C                                       1.4355184
    75   6 C       76   6 C                                       1.3571530
    74   6 C       77   7 N                                       1.3702619
    76   6 C       78   6 C                                       1.4320672
    77   7 N       78   6 C                                       1.3606369
    78   6 C       79   6 C                                       1.4065271
    79   6 C       80   6 C                                       1.4063619
    80   6 C       81   6 C                                       1.4318772
    81   6 C       82   6 C                                       1.3573038
    82   6 C       83   6 C                                       1.4355721
    80   6 C       84   7 N                                       1.3607503
    83   6 C       84   7 N                                       1.3702477
    83   6 C       85   6 C                                       1.3963623
    86   6 C       87   6 C                                       1.3969950
    87   6 C       88   6 C                                       1.3836392
    88   6 C       89   6 C                                       1.3936056
    89   6 C       90   8 O                                       1.3582592
    89   6 C       91   6 C                                       1.3928609
    86   6 C       92   6 C                                       1.3950712
    91   6 C       92   6 C                                       1.3864732
    85   6 C       93   6 C                                       1.3974875
    93   6 C       94   6 C                                       1.4377654
    94   6 C       95   6 C                                       1.3562450
    60   6 C       96   6 C                                       1.3868799
    95   6 C       96   6 C                                       1.4346745
    93   6 C       97   7 N                                       1.3652347
    96   6 C       97   7 N                                       1.3659187
    60   6 C       98   1 H                                       1.0852204
    62   6 C       99   1 H                                       1.0787211
    63   6 C      100   1 H                                       1.0781909
    68   6 C      101   1 H                                       1.0843756
    69   6 C      102   1 H                                       1.0847885
    71   8 O      103   1 H                                       0.9665027 (min)
    72   6 C      104   1 H                                       1.0829926
    73   6 C      105   1 H                                       1.0843004
    75   6 C      106   1 H                                       1.0779898
    76   6 C      107   1 H                                       1.0782655
    81   6 C      108   1 H                                       1.0783133
    82   6 C      109   1 H                                       1.0779889
    87   6 C      110   1 H                                       1.0842999
    88   6 C      111   1 H                                       1.0830023
    90   8 O      112   1 H                                       0.9665829
    91   6 C      113   1 H                                       1.0847907
    92   6 C      114   1 H                                       1.0843901
    94   6 C      115   1 H                                       1.0781626
    95   6 C      116   1 H                                       1.0787277
   117   6 C      118   6 C                                       1.2245750
   119   6 C      120   6 C                                       1.2306706
   121   6 C      122   6 C                                       1.2306722
   123   6 C      124   6 C                                       1.2245645

 * 5 distinct bonds (by element types)

   Z      Z             #   av. dist./Å        max./Å        min./Å
   1 H    6 C          34     1.0814421     1.0852204     1.0779889
   6 C    6 C          68     1.3891974     1.4377674     1.2245645
   6 C    7 N          16     1.3655189     1.3702806     1.3605834
   1 H    8 O           4     0.9665863     0.9666757     0.9665027
   6 C    8 O           4     1.3582808     1.3583142     1.3582534


optimized geometry written to: xtbopt.xyz


           -------------------------------------------------
          | TOTAL ENERGY             -225.850949209066 Eh   |
          | GRADIENT NORM               0.000376355953 Eh/α |
          | HOMO-LUMO GAP               0.000028254236 eV   |
           -------------------------------------------------

------------------------------------------------------------------------
 * finished run on 2022/07/30 at 09:12:49.558     
------------------------------------------------------------------------
 total:
 * wall-time:     0 d,  0 h,  0 min, 35.645 sec
 *  cpu-time:     0 d,  0 h,  0 min, 35.487 sec
 * ratio c/w:     0.996 speedup
 SCF:
 * wall-time:     0 d,  0 h,  0 min,  1.417 sec
 *  cpu-time:     0 d,  0 h,  0 min,  1.411 sec
 * ratio c/w:     0.996 speedup
 ANC optimizer:
 * wall-time:     0 d,  0 h,  0 min, 34.112 sec
 *  cpu-time:     0 d,  0 h,  0 min, 33.966 sec
 * ratio c/w:     0.996 speedup

