118
 energy: -201.785509745850 gnorm: 1.039766279858 xtb: 6.5.1 (b24c23e)
C            6.46702700000000       -0.01693200000000       -0.01460000000000
C            7.19498200000000        1.35867600000000        0.08137600000000
C            6.58722800000000        2.59320100000000        0.06292600000000
C            7.60958700000000        3.56223300000000        0.23516500000000
C            8.80679800000000        2.88455600000000        0.36111000000000
N            8.54752400000000        1.54523700000000        0.21174900000000
C           10.22835500000000        3.52116900000000        0.65308600000000
C           10.26512800000000        4.93568600000000        1.08562800000000
C           10.55250300000000        5.94746000000000        0.17097300000000
C           10.56404700000000        7.25494500000000        0.62469100000000
N           10.30999400000000        7.61944600000000        1.90357600000000
C           10.03579000000000        6.61093500000000        2.76459200000000
C           10.00037500000000        5.27316200000000        2.41131700000000
C           11.35956400000000        2.77269000000000        0.55407200000000
C           12.66390500000000        3.30982100000000        0.88478000000000
C           13.56677000000000        2.35042400000000        0.71893800000000
N           11.55642000000000        1.46915400000000        0.18287700000000
C           12.88809500000000        1.15385600000000        0.26203700000000
C           13.55601800000000       -0.00096400000000       -0.00067500000000
C           12.77655300000000       -1.27948200000000       -0.52480000000000
C           13.31110500000000       -2.31251200000000       -1.26946600000000
C           12.28563900000000       -3.26999800000000       -1.47001100000000
C           11.15143300000000       -2.78976900000000       -0.85069700000000
N           11.44520500000000       -1.55321000000000       -0.32646700000000
C            9.74552900000000       -3.51859000000000       -0.77334400000000
C            9.72101800000000       -4.98923500000000       -0.91764400000000
C           10.11763700000000       -5.80431400000000        0.14014400000000
C           10.09234900000000       -7.17582500000000       -0.04577200000000
N            9.70802900000000       -7.78254800000000       -1.19373000000000
C            9.33009300000000       -6.96057300000000       -2.20065600000000
C            9.32107900000000       -5.57914200000000       -2.11582700000000
C            8.61912000000000       -2.79111500000000       -0.55803100000000
C            7.29990700000000       -3.39084900000000       -0.45906600000000
C            6.41347900000000       -2.41955700000000       -0.26151100000000
C            7.13224600000000       -1.17012000000000       -0.21370800000000
N            8.45231900000000       -1.44540600000000       -0.38790900000000
H            5.39031800000000       -0.03100000000000        0.10536100000000
H            5.52897700000000        2.77507500000000       -0.04489600000000
H            7.48072800000000        4.63287500000000        0.28723800000000
H            9.24777800000000        0.80764200000000        0.20297800000000
H           10.76473200000000        5.70443100000000       -0.86460600000000
H           10.78651200000000        8.07101900000000       -0.05490700000000
H            9.83688000000000        6.91486900000000        3.78706900000000
H            9.77587600000000        4.50047200000000        3.13867500000000
H           12.87750500000000        4.30844900000000        1.22182600000000
H           14.62038800000000        2.46587700000000        0.89662300000000
H           14.32964800000000       -2.37948300000000       -1.62064800000000
H           12.36818000000000       -4.20616500000000       -2.00139600000000
H           10.76549500000000       -0.92195900000000        0.08973400000000
H           10.43490500000000       -5.36644200000000        1.08040600000000
H           10.39256900000000       -7.84440300000000        0.75442200000000
H            9.02220300000000       -7.45758200000000       -3.11469000000000
H            9.00845100000000       -4.96184900000000       -2.95128300000000
H            7.07112900000000       -4.43897700000000       -0.52856600000000
H            5.35141800000000       -2.53840200000000       -0.14556300000000
C           31.92801300000000        0.01960800000000       -0.00574100000000
C           31.20005800000000       -1.24719500000000       -0.55045900000000
C           31.80781200000000       -2.33617500000000       -1.13228000000000
C           30.78545400000000       -3.27648200000000       -1.42299100000000
C           29.58824300000000       -2.73174500000000       -1.00065200000000
N           29.84751600000000       -1.47275000000000       -0.52001000000000
C           28.16668500000000       -3.43138900000000       -1.03267300000000
C           28.12991200000000       -4.88692800000000       -1.29602200000000
C           27.84253700000000       -5.36742700000000       -2.57250200000000
C           27.83099400000000       -6.73752000000000       -2.76800600000000
N           28.08504599999999       -7.64728000000000       -1.79808500000000
C           28.35925000000000       -7.14511500000000       -0.57078200000000
C           28.39466600000000       -5.79410100000000       -0.27211800000000
C           27.03547600000000       -2.72068000000000       -0.77788300000000
C           25.73113600000000       -3.34962800000000       -0.72991000000000
C           24.82827000000000       -2.42081600000000       -0.43792600000000
N           26.83862000000000       -1.39189300000000       -0.51083000000000
C           25.50694600000000       -1.14786400000000       -0.29605100000000
C           24.83902300000000       -0.00096400000000       -0.00067500000000
C           25.61848700000000        1.37562600000000        0.11897300000000
C           25.08393600000000        2.63499800000000       -0.06986300000000
C           26.10940200000000        3.57800500000000        0.19039700000000
C           27.24360700000000        2.86745600000000        0.52098700000000
N           26.94983500000000        1.52811700000000        0.42065000000000
C           28.64951100000000        3.47991300000000        0.92355500000000
C           28.67402200000000        4.85333200000000        1.46884300000000
C           28.27740400000000        5.09342300000000        2.78247500000000
C           28.30269200000000        6.39777600000000        3.24536500000000
N           28.68701200000000        7.46289400000000        2.50277100000000
C           29.06494700000000        7.19337800000000        1.23119500000000
C           29.07396100000000        5.92650400000000        0.67390100000000
C           29.77592000000000        2.73461100000000        0.78176900000000
C           31.09513400000000        3.22241600000000        1.14442600000000
C           31.98156200000000        2.26850600000000        0.87518500000000
C           31.26279500000000        1.13592600000000        0.34543000000000
N           29.94272100000000        1.46042700000000        0.31665600000000
H           33.00472200000000       -0.02282900000000        0.10734200000000
H           32.86606300000000       -2.44846800000000       -1.31142800000000
H           30.91431200000000       -4.25207800000000       -1.86706100000000
H           29.14726200000000       -0.81304800000000       -0.18998500000000
H           27.63030800000000       -4.67708500000000       -3.38177100000000
H           27.60852800000000       -7.15170800000000       -3.74590100000000
H           28.55816000000000       -7.88359700000000        0.19894400000000
H           28.61916400000000       -5.44035300000000        0.72836300000000
H           25.51753500000000       -4.39172700000000       -0.88767100000000
H           23.77465300000000       -2.60482900000000       -0.33285000000000
H           24.06539300000000        2.85537500000000       -0.35137300000000
H           26.02686000000000        4.65358700000000        0.14679200000000
H           27.62954500000000        0.77634500000000        0.50151500000000
H           27.96013500000000        4.27353100000000        3.41777100000000
H           28.00247100000000        6.62561500000000        4.26290900000000
H           29.37283700000000        8.05382700000000        0.64629900000000
H           29.38658900000000        5.76040600000000       -0.35150100000000
H           31.32391200000000        4.18598100000000        1.56269200000000
H           33.04362200000000        2.32104800000000        1.03268800000000
C           14.70304000000000        0.01326100000000        0.00927600000000
C           16.16126600000000       -0.00857500000000       -0.00859700000000
C           17.29519500000000       -0.02932900000000       -0.01008800000000
C           18.65657600000000       -0.04191900000000       -0.01227900000000
C           19.93079500000000       -0.03161200000000       -0.01704400000000
C           21.11925800000000       -0.01281400000000       -0.02320000000000
C           22.47161800000000        0.01197000000000       -0.00733200000000
C           23.57188600000000        0.01326100000000        0.00927600000000
118
 energy: -202.042594209967 gnorm: 0.386664505120 xtb: 6.5.1 (b24c23e)
C            6.48983586378238        0.01287448875818       -0.01245543694417
C            7.19140600608415        1.34310277671222        0.07932807246967
C            6.59154034172994        2.59695510309044        0.06668210302885
C            7.60808685323907        3.55967703746843        0.23892414214976
C            8.82259765016757        2.88800934945845        0.36250377209844
N            8.54803064805902        1.54446518928580        0.21449104857409
C           10.19911913423362        3.50060699874658        0.64539675581510
C           10.25566702809649        4.92496478215803        1.08023770212405
C           10.55163674108926        5.94533056560958        0.17451909733176
C           10.56365972540596        7.25509081745135        0.62893871552375
N           10.30981241839395        7.60672221983674        1.89974510374402
C           10.03716005735984        6.61344974065081        2.76137666032715
C            9.99967210416165        5.27376753606852        2.40701371650784
C           11.35757271260336        2.77243690308874        0.55438399274363
C           12.66176698537883        3.32115995805908        0.88789329260640
C           13.56735071984624        2.35244319442018        0.72013421897054
N           11.54170394978686        1.46222098507067        0.18260751046651
C           12.84948525094759        1.17541878355059        0.26984748923607
C           13.50291554696414       -0.02268225802992       -0.01884334280992
C           12.76529890514320       -1.27738373140330       -0.52698782035352
C           13.30705464435222       -2.31619900878992       -1.26595458203907
C           12.28566864372091       -3.27024247465609       -1.46565174998240
C           11.13390348719399       -2.79648118714556       -0.85043690741710
N           11.43941459154207       -1.55842381604700       -0.32438843458364
C            9.77258091901769       -3.49692601647120       -0.77294369339173
C            9.73028216496028       -4.97701081874587       -0.91952342268204
C           10.11840977315419       -5.80352462077701        0.13583810020796
C           10.09062792571163       -7.17696307871300       -0.04944891477421
N            9.70818534540284       -7.76944742141849       -1.19238592204643
C            9.33070853350247       -6.96224521884870       -2.19687338234217
C            9.32160309874957       -5.57860987949376       -2.11176393936010
C            8.61789125600399       -2.78500064675458       -0.55540182405318
C            7.29826401811636       -3.39914174465401       -0.46016845520341
C            6.40789104912577       -2.42374645364129       -0.26111607148656
C            7.13945007283851       -1.17154640148507       -0.21256154453711
N            8.46292471653711       -1.43729786871782       -0.38685766366399
H            5.40416017220313       -0.01779577848862        0.10313347286639
H            5.53238525168962        2.77793530683212       -0.04435718611542
H            7.47938809120688        4.63081700476051        0.28711254779608
H            9.24697111667720        0.80858973111668        0.20340417331940
H           10.76393852719585        5.70623957616793       -0.86242094935345
H           10.78611975090254        8.07124513274573       -0.05333085069365
H            9.83734606222499        6.91596622361127        3.78589601035452
H            9.77591638317021        4.50332039597027        3.13776796157907
H           12.87427890848999        4.31704825708005        1.22378166751272
H           14.62449002062268        2.45896381689101        0.89501617455931
H           14.32683209602201       -2.37989184978039       -1.61892776461416
H           12.36998994312073       -4.20441721951477       -2.00016001906951
H           10.76520849367286       -0.92407368301363        0.08962621742093
H           10.43469228704927       -5.36873141323405        1.07851821746032
H           10.39189899939064       -7.84503626193300        0.75305056304291
H            9.02278093843705       -7.45840787942735       -3.11344795907815
H            9.00939909942727       -4.96434931823516       -2.95007940709746
H            7.07417795220372       -4.44667474760509       -0.53017575722725
H            5.34575503927321       -2.53693267539333       -0.14498145498932
C           31.90489142085783       -0.00839161021386       -0.01776803379090
C           31.20372411042324       -1.23191615910477       -0.54486375324630
C           31.80350619361790       -2.34159298860893       -1.13064705929528
C           30.78742409680350       -3.27578027323556       -1.41840719520383
C           29.57193621419442       -2.73526420878018       -1.00071374771151
N           29.84676607672781       -1.47328797268575       -0.51737495850727
C           28.19684628995696       -3.40959568448903       -1.03026281184375
C           28.13950752618663       -4.87495495549767       -1.29597747519723
C           27.84335474028774       -5.36725184642951       -2.56838040246095
C           27.83132005669370       -6.73962533683622       -2.76431467905126
N           28.08523964261556       -7.63428088171220       -1.79567676734783
C           28.35787462582667       -7.14591104283027       -0.57477978653541
C           28.39537889432085       -5.79273687480467       -0.27626991569263
C           27.03748062323090       -2.71856874166521       -0.77685813487004
C           25.73134987078139       -3.35931385699957       -0.73178153215157
C           24.82606480033052       -2.42230166053503       -0.43796578634400
N           26.85719936823873       -1.38789600425835       -0.50792893658033
C           25.54372405957269       -1.16334955585716       -0.29760096698631
C           24.92135329058592        0.02785835991832       -0.00512315199349
C           25.62858670597557        1.36893514417225        0.11595325271913
C           25.08764924185928        2.63682657731981       -0.06406924603768
C           26.10779716232617        3.57574840531097        0.19432723237544
C           27.26159376588481        2.87250443259172        0.52449686000442
N           26.95550332856581        1.53118058231839        0.42369248387471
C           28.62114223547716        3.46010092298068        0.91371206190982
C           28.66456922942839        4.84328934282238        1.46141396051782
C           28.27667292541871        5.09464206492879        2.77822690338821
C           28.30444244528746        6.40045517207167        3.24260054793755
N           28.68685530315335        7.45060769126500        2.49795581283681
C           29.06433677959403        7.19312883492896        1.23532121169082
C           29.07341234674988        5.92414894600944        0.67724067385000
C           29.77708845036523        2.72747903111928        0.78144118619500
C           31.09663719221648        3.23026658711450        1.14720782586592
C           31.98715525904353        2.27196358673282        0.87742285831130
C           31.25545334238947        1.13669421268097        0.34714572181756
N           29.93225492837459        1.45296736653537        0.31402610139528
H           32.99073754754111       -0.03363323528162        0.09917291258219
H           32.86268077075113       -2.45133905855327       -1.31230958242831
H           30.91578588215009       -4.25008992459718       -1.86624300951406
H           29.14778925770307       -0.81415980000949       -0.19009734827199
H           27.63111068453818       -4.67971599935107       -3.38064966386265
H           27.60892359756163       -7.15266835034769       -3.74463451826850
H           28.55769574593164       -7.88407482928505        0.19741224734602
H           28.61912926778638       -5.44247489243096        0.72622117972935
H           25.52043492021181       -4.39950871770824       -0.88971152892612
H           23.76992612563480       -2.59859637336704       -0.33113804974135
H           24.06834732054843        2.85543489949572       -0.34975500501210
H           26.02481063229760        4.65131574787305        0.14688944738698
H           27.63000293005860        0.77820800505015        0.50223042879435
H           27.96034292748870        4.27642039603112        3.41711627745455
H           28.00313915274636        6.62679379649176        4.26196035729591
H           29.37226131381610        8.05398986529059        0.64778447940931
H           29.38563174485189        5.76208205582998       -0.34930157985222
H           31.32079723342094        4.19354240661793        1.56476084128792
H           33.04928164818178        2.31945388097357        1.03252416638271
C           14.78701321381966       -0.00633250444923        0.00565378258787
C           16.09773866613916       -0.01129750296091       -0.00761817378284
C           17.34272441441819       -0.03026225827621       -0.00960671235211
C           18.62794976123548       -0.04169778597510       -0.01263891313963
C           19.89374871351789       -0.03237385616922       -0.01777519336444
C           21.11850607704102       -0.01372323863246       -0.02257491002391
C           22.40187545099963        0.01735535543399       -0.00559665068697
C           23.61746644086339        0.02909290978656        0.01278532119953
118
 energy: -202.128634543776 gnorm: 0.161588039373 xtb: 6.5.1 (b24c23e)
C            6.53283635479124        0.05281319436084       -0.01049446914673
C            7.19459329650088        1.32625213977506        0.07822630526773
C            6.60137359132196        2.60207263563107        0.07639453950372
C            7.60659240973467        3.55332980385616        0.24787804541580
C            8.84220310402747        2.88743987748273        0.36521474132712
N            8.55323903026335        1.54244070474056        0.21673267598837
C           10.15704994578682        3.46835262366131        0.63393368907344
C           10.23282548493169        4.90628706020062        1.06924907443349
C           10.54678351283141        5.93679410098474        0.17751397837535
C           10.56433227838428        7.24925855017900        0.63233574268822
N           10.30944890080642        7.58961835424871        1.89446080719678
C           10.03929958550637        6.61081039801851        2.75615892887520
C            9.99470162489681        5.26975452983549        2.39801360473776
C           11.35084401789407        2.76479979653592        0.55626203958820
C           12.65571124416256        3.32711091543652        0.88993547261304
C           13.56702561717239        2.35068146860018        0.72112414097866
N           11.52884963235487        1.44910534103691        0.18895683658741
C           12.83141267238421        1.17632581828824        0.27282933690795
C           13.47602572363171       -0.05017470570065       -0.05211159135642
C           12.76226284330294       -1.25955976759251       -0.52382186170792
C           13.30094701939253       -2.32300880898913       -1.25536927856227
C           12.28868726620726       -3.26966124045153       -1.45253361079429
C           11.11418220426049       -2.79844218128355       -0.84628016817842
N           11.43503128388611       -1.55625595919961       -0.32365243468354
C            9.81203932699408       -3.46272571414221       -0.77188515655910
C            9.75133469412564       -4.95493144706296       -0.92476926951968
C           10.12305304564502       -5.79636957482293        0.12841393462680
C           10.08825953343611       -7.17256759563068       -0.05307836901846
N            9.70840566471373       -7.75159668102304       -1.19074674047487
C            9.33035697227986       -6.95805168589514       -2.19149654909319
C            9.32562372653851       -5.57167918666470       -2.10611951744744
C            8.62231252062661       -2.77592019234393       -0.54852804472859
C            7.30253791084822       -3.40508739278188       -0.46122928336800
C            6.40736758795256       -2.42396585299053       -0.25982644459921
C            7.15330697775016       -1.17020900546305       -0.20812367186510
N            8.47676381103719       -1.42913351176172       -0.38130334447681
H            5.44127843719004        0.01441836776386        0.09489401616828
H            5.54206048651050        2.78363647890384       -0.04211417479709
H            7.47721049730779        4.62515285848663        0.28782184587579
H            9.25056525731544        0.80774685064684        0.20352485266789
H           10.76157931739693        5.70717124575404       -0.86027702652022
H           10.78599621761598        8.06697271880526       -0.05062827684795
H            9.83928745424318        6.91419953557178        3.78185024117927
H            9.77405864003709        4.50606619357468        3.13583495157328
H           12.86285211576834        4.32762972570320        1.22421679979640
H           14.62739369378771        2.44711618471357        0.89139069611649
H           14.31869840107581       -2.38373620653266       -1.61522306844367
H           12.37334224614275       -4.19992170910935       -1.99526992543233
H           10.76314104697323       -0.92270760724876        0.08994680392408
H           10.43627314043725       -5.37040839098005        1.07543513657561
H           10.38945393292369       -7.84193021178624        0.75025672074565
H            9.02328440245475       -7.45548726653455       -3.10939186758667
H            9.01151831226577       -4.96591116390945       -2.94879733159013
H            7.08468156788992       -4.45619213914813       -0.53415401741373
H            5.34150623969101       -2.53036046134432       -0.14469185527608
C           31.86180503298050       -0.04478257530202       -0.03428155779597
C           31.20047176458138       -1.21649384394260       -0.53819995240126
C           31.79366066428006       -2.35061979204256       -1.12439928590170
C           30.78932142100827       -3.27442060256115       -1.40753216855084
C           29.55264024250280       -2.73664028984132       -0.99815520329720
N           29.84162197639806       -1.47273499099809       -0.51464806057779
C           28.24126912809893       -3.37824756664453       -1.02648653446327
C           28.16310823506138       -4.85454443224722       -1.29758072442913
C           27.84828845374151       -5.36148922241479       -2.56208288745325
C           27.83059492171121       -6.73634369132404       -2.75876987137143
N           28.08558252381873       -7.61689908974345       -1.79259543009178
C           28.35569239854527       -7.14155837792039       -0.57819734629151
C           28.40050144838851       -5.78557983189949       -0.28239703239903
C           27.04739477667726       -2.71662226340526       -0.77288195656800
C           25.73954045542429       -3.36709804554892       -0.73330291967001
C           24.83126413361383       -2.42035510749398       -0.43635992718850
N           26.88016047114584       -1.38508666149828       -0.49775631537758
C           25.57744350256968       -1.17244323305490       -0.29514421468503
C           24.97798114121072        0.07180880523700       -0.01997358569292
C           25.64635454748167        1.35850864921332        0.10971681783919
C           25.09818979153505        2.63865763972906       -0.05160579039574
C           26.10679947553156        3.57076305149186        0.20633700745931
C           27.28520023375184        2.87669044042771        0.52967641157452
N           26.96953344026823        1.53445825994645        0.42432288464515
C           28.58390625875387        3.43061881163033        0.89941503324030
C           28.64422927070952        4.82671633330938        1.44698034887433
C           28.27211490394745        5.09190113889288        2.76847145890490
C           28.30680397511748        6.39835305497495        3.23745061400509
N           28.68660360115367        7.43412762085278        2.49127646916419
C           29.06473925617851        7.18717204535390        1.23821098233707
C           29.06956419970846        5.91575647562961        0.67910881292806
C           29.77342674628682        2.71668201902980        0.78345779243518
C           31.09285142155077        3.23607985666629        1.14909633130228
C           31.98785258151284        2.27149589390738        0.87866544794715
C           31.24157430370962        1.13343993342274        0.35050429513406
N           29.91837596280429        1.44327939652337        0.31535268729258
H           32.95350531590737       -0.05844364102450        0.07703798144876
H           32.85302344602665       -2.45731196142112       -1.31290446662619
H           30.91817398833778       -4.24549682778340       -1.86307154720872
H           29.14425038690062       -0.81364912883159       -0.18968960222684
H           27.63353051549310       -4.68167093880721       -3.37920313317228
H           27.60898327284779       -7.15032426687500       -3.74039495642201
H           28.55574300253063       -7.88089920624000        0.19465322118956
H           28.62105132015176       -5.44418124951795        0.72317812858015
H           25.53155046977276       -4.40950377026134       -0.89436558506379
H           23.76993312196758       -2.58302866824362       -0.32881986364785
H           24.07887799583474        2.85459370699511       -0.34411448517129
H           26.02121995330901        4.64591490984766        0.14943332303345
H           27.63819343583465        0.77968083761429        0.50300282510779
H           27.95881958724376        4.27939613566227        3.41511204892261
H           28.00556516334386        6.62538069527228        4.25812220948514
H           29.37176606689420        8.04970514444339        0.65004565995462
H           29.38356124100653        5.76301553328596       -0.34744346604919
H           31.31064074864252        4.20385364634597        1.56564283005983
H           33.05366823434434        2.31339529188258        1.02972768750295
C           14.82988937544631       -0.03654229049510       -0.00675705329846
C           16.03073347607941       -0.02122608517165       -0.00886532013566
C           17.33440797216334       -0.03166786446179       -0.00680630962263
C           18.56808141707095       -0.03988537772252       -0.01366048914660
C           19.86498171720530       -0.03284451271363       -0.01849923458158
C           21.11089355784556       -0.01671033525258       -0.01954730797921
C           22.39844870668030        0.02802048848849       -0.00055336715006
C           23.62909402595262        0.05667511422383        0.01196403241563
118
 energy: -202.157837266280 gnorm: 0.093680274104 xtb: 6.5.1 (b24c23e)
C            6.58014691386994        0.08260403957755       -0.01064526218502
C            7.21139373457925        1.32048797356713        0.07853644091859
C            6.61407304828210        2.60826215698528        0.09120187455713
C            7.60438326679130        3.54917510936065        0.26231827156083
C            8.85438897413137        2.88506946542130        0.36930877808585
N            8.56733839546667        1.54207082025936        0.21487571439793
C           10.11849505403913        3.44861561894577        0.62777171275239
C           10.20241765565013        4.89151183345541        1.05741224445702
C           10.53431512300305        5.92402522420844        0.17513424534819
C           10.56405707817529        7.23676775834979        0.63084879273563
N           10.31008738791016        7.57246754086745        1.88896833214965
C           10.03882252869567        6.60085125744759        2.75030645099584
C            9.98084871540922        5.26099890500306        2.38730384036347
C           11.33001997478598        2.75970517235611        0.56463567103629
C           12.63735625209454        3.32456947322258        0.89061974611356
C           13.54362022583281        2.33771597752118        0.71754252393669
N           11.48220765761880        1.44530657426686        0.20324290459446
C           12.78289942241363        1.16757306801085        0.27603460991048
C           13.39166093021866       -0.07345135471639       -0.08153204279745
C           12.73084231070685       -1.24616474792163       -0.53081597182727
C           13.28605353266713       -2.33375729177499       -1.24003800995380
C           12.29098980015801       -3.27544213612940       -1.43277751046147
C           11.09621549038891       -2.79979851720987       -0.84247919766488
N           11.40931027892060       -1.55185336564409       -0.33309312029861
C            9.83880633684233       -3.43654085590962       -0.76949913475844
C            9.77561469282936       -4.93271837404033       -0.93221303706078