201
 energy: -383.031054656157 gnorm: 0.000927722365 xtb: 6.5.1 (b24c23e)
Fe          30.88591852427638       -0.06832141705905        0.00237204457232
C           27.49540309028016       -0.09579291321525        0.02978170264343
C           28.15343355601768       -0.27711947393029        1.22854391207510
C           27.48289575118850       -0.49285809534531        2.47501993320689
C           28.43917348872839       -0.50562622628691        3.43266569075487
C           29.69530374378230       -0.30649417574936        2.76820837555006
N           29.50709873171053       -0.18130561035778        1.41806392311611
C           30.90795721217448       -0.14749652239132        3.42917585164380
C           32.10909767525992        0.06064067537464        2.76574174172414
C           33.37280697076205        0.19371437420186        3.42751736968956
C           34.31839656266950        0.24328766600642        2.45903932144146
N           32.28313380446193        0.05602710216677        1.40184413573339
C           33.63212852239066        0.13485929943412        1.20981457800766
C           34.29276491077720        0.03708743582083       -0.01959789386691
C           33.61626771150495       -0.07170719982929       -1.23947058826328
C           34.28308415103375       -0.20562768784609       -2.49652082629396
C           33.32231786417953       -0.17489276511789       -3.45133668205608
C           32.07078857558601       -0.01397883429330       -2.77332222408525
C           30.85083337509285        0.13168802569556       -3.42028344413730
C           30.82865485915434        0.18083300932985       -4.90031624373907
C           30.13272563896652       -0.78979135760077       -5.62620769501361
C           30.09977553710125       -0.73816717011077       -7.00731148615027
C           30.75793558380298        0.28749413266691       -7.68863870891054
C           30.68259905972521        0.30661333615337       -9.16926456863217
O           31.34650761525367        1.32977481201322       -9.72787364384256
O           30.08700988095845       -0.50567216279475       -9.83021515488143
C           31.45650191664309        1.25716980845472       -6.96875138083902
C           31.49286442404140        1.20051089019922       -5.58629322558047
C           29.64219836240899        0.22123276514357       -2.73904852742522
C           28.37189488617207        0.41183056811401       -3.37851827126614
C           27.43085131704455        0.34017988169854       -2.40837768479037
C           28.12715116788668        0.11976266983366       -1.17693847974431
N           29.48185644555173        0.09545793492098       -1.38521812902033
N           32.26536813327169        0.01601605276255       -1.41338708615812
C           30.91245553802990       -0.21062169809783        4.91041362387796
C           30.58107100133176       -1.40006560627243        5.56406830268943
C           30.56962442112481       -1.45628101532566        6.94555100828696
C           30.88559345778088       -0.32354553473116        7.69808801841978
C           30.84751032213465       -0.43110722346431        9.17644248452980
O           31.16597029813927        0.70957156079351        9.80647663650245
O           30.55844267225213       -1.43419017132065        9.77774900270571
C           31.22029035563680        0.86532692578282        7.04934108957576
C           31.23533952968796        0.91842411666768        5.66616586960112
H           26.41159732049484       -0.11999296227484        0.03754435097680
H           26.41599308166963       -0.60555528955627        2.58403837555048
H           28.31539479694199       -0.62352307461333        4.49682163490320
H           33.51014598139179        0.22397905193697        4.49605234456462
H           35.38761466115154        0.33063621139628        2.56555991331711
H           35.34938805354307       -0.30917689359893       -2.61697409053969
H           33.43949738875535       -0.26108772500480       -4.51927014430774
H           29.62928464938208       -1.59219467734557       -5.09908069842619
H           29.56363538513481       -1.48930692758707       -7.57690233849030
H           31.24606074709057        1.27127131622188      -10.69190514956359
H           31.96704711238590        2.05586939991887       -7.49370357078141
H           32.02375260382988        1.96208780787992       -5.02636234279682
H           28.23128913415092        0.58122494157403       -4.43363463649945
H           26.35962539407904        0.42531759895944       -2.49830894026688
H           30.34411859065806       -2.28242501272308        4.98063220089275
H           30.31462749482469       -2.37614344523226        7.46026246883216
H           31.11497412845697        0.55627145472038       10.76396300100228
H           31.46477837085096        1.74700562142728        7.62989859309537
H           31.48182357353985        1.84582161650356        5.16168148886016
Fe          67.99406378884002       -0.05173887063217       -0.03918152343372
C           71.38347817996244       -0.07897574235791       -0.07244094809995
C           70.72445585581799       -0.12734705441767       -1.28346102523199
C           71.39321309443356       -0.20466187060200       -2.54703995816803
C           70.43580814021561       -0.10974715041063       -3.49902803971557
C           69.18087842535452        0.01783100884497       -2.81502397945141
N           69.37070200526939       -0.01048509919847       -1.45969879035959
C           67.96889820211004        0.26015852405334       -3.45201534476681
C           66.77003049892926        0.40129042040783       -2.76723657358445
C           65.50716427591952        0.62478204556712       -3.40594102155037
C           64.56270474837332        0.56682986083536       -2.43670689703833
N           66.59646088628094        0.23487638472924       -1.41340460758618
C           65.24872343642183        0.30178474528629       -1.21097739969607
C           64.58809791952959        0.05312844595207       -0.00254659462142
C           65.26506649129711       -0.21029948534755        1.19375549382984
C           64.59883781924857       -0.49857473337892        2.42498475188232
C           65.56001096677866       -0.58466445625948        3.37605319511564
C           66.81111303841787       -0.33976085494367        2.72270136074843
C           68.03088935313976       -0.26770594455750        3.38209727052435
C           68.05442137244347       -0.39426618464259        4.85740466956601
C           68.75995432627556       -1.43763411632485        5.46324734696853
C           68.79541867521463       -1.54867998131526        6.84079776367343
C           68.13022867610772       -0.61603599133639        7.63893505628107
C           68.21071157934242       -0.76919812525768        9.11157248957525
O           67.53900828342881        0.17502537524672        9.78731967236335
O           68.81603861648310       -1.64750391066992        9.67150081300115
C           67.42128608738508        0.42509030432650        7.03900360448987
C           67.38248733609888        0.53132066844017        5.65953592370217
C           69.23858382186978       -0.09116059519134        2.71561273679548
C           70.50850625548100        0.03130672116439        3.37223696008436
C           71.44889307790740        0.07836736484994        2.39984563594012
C           70.75252874920001       -0.00232501744528        1.15147917062891
N           69.39826923503432       -0.05817040864229        1.35648459060026
N           66.61568500737340       -0.14506908884044        1.37643702491511
C           67.96367976137955        0.36838383424974       -4.93063711885898
C           68.28477642499450       -0.74048161252452       -5.71752218537669
C           68.29634455090141       -0.63687283804400       -7.09627550668102
C           67.99101137566817        0.57799157700671       -7.71281398141762
C           68.03055521197435        0.64212394120296       -9.19365376325684
O           67.72465748271965        1.85133763006333       -9.68733360859647
O           68.31021059420543       -0.28748361557969       -9.90708818527758
C           67.66619542564182        1.68677509130378       -6.93088568903669
C           67.65086670898690        1.57986901344097       -5.55082870944347
H           72.46733159998615       -0.09948177743167       -0.08379653776586
H           72.45979103916787       -0.30627330998134       -2.66931575043058
H           70.55821414442509       -0.10930427096297       -4.56985949272135
H           65.36929234710702        0.78469110345698       -4.46281552791754
H           63.49430209733682        0.67653805871232       -2.52999451266887
H           63.53264453002131       -0.61663209654744        2.53228893659148
H           65.44321215058081       -0.80145319304584        4.42534030673639
H           69.26912986155462       -2.16801789988027        4.84481970174841
H           69.33944265022585       -2.35678098125561        7.31735894951614
H           67.64337612248789        0.00581759114727       10.73776876828968
H           66.90488224927658        1.15182720489590        7.65490101990992
H           66.84397374556477        1.34896839301027        5.19390276890490
H           70.64938069393378        0.07804205564390        4.43980581439178
H           72.51969318369017        0.15882521364671        2.49865313419321
H           68.51385970527679       -1.68636682619498       -5.24010410494350
H           68.54353730220789       -1.49334517409069       -7.71389830857542
H           67.77643912560332        1.80993263786650      -10.65608168809537
H           67.42981283203345        2.63174883118174       -7.40556693726379
H           67.41241096255683        2.44499819847342       -4.94255208056647
C           35.69659146101244        0.03978484209489       -0.02880194416779
C           36.92179699507850        0.03852125073347       -0.03549739891869
C           38.26404649317004        0.03647932599362       -0.03790207936568
C           39.49571107485391        0.02921716152724       -0.04008136614220
C           40.83303439988482        0.02483264018923       -0.03982077391538
C           42.06472321473171        0.01150124348621       -0.03861708603208
C           43.40655947657067        0.00787926381145       -0.03241259231551
C           44.63219837422253        0.00593840679360       -0.02743209871539
C           54.25022603984080        0.01643626314445        0.02498271804764
C           55.47616161574209        0.02411129962729        0.03006323676181
C           56.81735474327292        0.03079014202728        0.03329955670157
C           58.04939000307205        0.04014950879311        0.03395223911058
C           59.38599253828334        0.04776819327640        0.03025578366027
C           60.61793956952391        0.05760248698039        0.02465308065223
C           61.95951414246618        0.05820979141930        0.02010198963912
C           63.18510219974962        0.05880506623420        0.00874885589218
Fe          49.44174074018252        0.00694496718150       -0.05182926172526
C           46.03438985534357        0.00546152662664       -0.01743005671798
C           46.71061012392040       -1.20565704567124       -0.21124038573560
C           46.05587340352447       -2.45000769464608       -0.46501910710958
C           47.01280252099955       -3.40940705293137       -0.41617866759865
C           48.24771471193219       -2.74617562453082       -0.12211674040970
N           48.05273838708010       -1.38931678686548       -0.04968428075942
C           49.44531286413952       -3.39805702702886        0.15068527098105
C           50.64034504495732       -2.72161254017470        0.36673166081624
C           51.87867906263969       -3.35580422336644        0.70745883254429
C           52.83311483210421       -2.39370088761023        0.67145170795040
N           50.82925194614265       -1.37204346198441        0.19556149665622
C           52.17359295073243       -1.17562697703584        0.32005994571637
C           52.84868064524858        0.01391564825322        0.01870624266054
C           52.17496058621143        1.20183702758155       -0.29393437719735
C           52.83337288443091        2.41793370043372       -0.65362792374497
C           51.87649722420751        3.37725778587161       -0.70472112636291
C           50.63799208741517        2.74327424696871       -0.36497279158351
C           49.43783448105975        3.41606497829004       -0.16684699355311
C           49.43282687387472        4.89402352504885       -0.24768290577856
C           50.22632595102708        5.65257934087258        0.61711766605193
C           50.21663831825325        7.03315235404148        0.54190688143524
C           49.41931287840480        7.68082064027773       -0.40357000549986
C           49.44503726469027        9.16306762173439       -0.44676917634778
O           48.64368273485503        9.68637465346506       -1.38641666766156
O           50.11430169535085        9.85253524591914        0.27972661934007
C           48.62861017264076        6.92789012116246       -1.27206987377831
C           48.63420412797122        5.54644689999235       -1.19054895707070
C           48.24080839554816        2.76129589096796        0.10057700935880
C           46.99996279967652        3.42386910791647        0.37048621281037
C           46.04521338673536        2.46237461989085        0.41384215483153
C           46.70703691544425        1.21748631329085        0.18102279320194
N           48.05295720242396        1.40191120722094        0.05239290396625
N           50.83162077065033        1.39879528181472       -0.16500634171640
C           49.44624584914973       -4.87701382884626        0.21038134107844
C           48.63776755138718       -5.54712351060159        1.13262852165788
C           48.63804200719543       -6.92869441721915        1.18606429899068
C           49.44083743844629       -7.66638207029260        0.31403553277963
C           49.40061368159869       -9.14623749557356        0.40501765041915
O           50.20268317692628       -9.75993699623113       -0.47746397140413
O           48.71991423657153       -9.76052582843726        1.18613447058231
C           50.24829723119013       -7.00228803455047       -0.60971984001637
C           50.25215017002098       -5.61916213776668       -0.65684735041777
H           44.99980426860255       -2.56083449798892       -0.65128081526375
H           46.90180098061197       -4.47064018737700       -0.56816041706524
H           51.99378283746242       -4.40140764216148        0.94216844801855
H           53.89108214833276       -2.48680400780518        0.85664611055641
H           53.89163356455357        2.51191798533498       -0.83665792236381
H           51.98976917476445        4.42012016742202       -0.95226847220199
H           50.83662624366215        5.15182607197605        1.36000840790895
H           50.82448954866759        7.62850343628452        1.21433201919055
H           48.71825794463230       10.65388708201462       -1.35055835068134
H           48.01142193612949        7.42636229122162       -2.01011963318862
H           48.02874504960955        4.96088014246882       -1.87312225379865
H           46.88363821671201        4.48648729426713        0.50804428297117
H           44.98577227791831        2.57193955578418        0.58058583095456
H           48.02217078330815       -4.97571586800633        1.81793570873754
H           48.01735647779390       -7.45512313072590        1.90279839699297
H           50.11779429177236      -10.71954175760131       -0.35537011564887
H           50.87068431557469       -7.57107024833454       -1.29034358493463
H           50.86987219622385       -5.10353779872518       -1.38343684347491
