618
 energy: -1081.830769145755 gnorm: 0.000805359951 xtb: 6.5.1 (b24c23e)
C          149.40142738446977       -0.05708252269963       -0.12516580002392
C          150.00598872136555        0.94117372760091       -0.88039656175703
C          149.35829339016800        1.93734851072711       -1.66190891634407
C          150.32581801567204        2.71202915370559       -2.24070300194844
C          151.59019299282380        2.21060174032929       -1.82949417580302
N          151.35166033204055        1.14730463812717       -1.01257609998197
C          152.85748128696454        2.70235851584403       -2.18944494236502
C          152.87846612099963        3.82020253099957       -3.05269058921458
C          152.89042634287205        4.78511090730594       -3.78852921866272
C          152.91234634133320        5.90683852002522       -4.64832244880297
C          151.72730409809546        6.48004132310669       -5.12457756280288
C          151.80345793908617        7.57883607688438       -5.96169077169030
N          152.95556224756234        8.12535822611518       -6.34188027944170
C          154.08653842737431        7.58636485325977       -5.89340110293557
C          154.11992961986931        6.48779741623667       -5.05322421340539
C          154.08683173120417        2.17415678963462       -1.76159577413792
C          155.36958360178110        2.71389704968598       -2.16842158358104
C          156.30916035777039        1.95812055905849       -1.56227121039764
N          154.25857028452475        1.11828929634924       -0.93051609266764
C          155.59469832690908        0.96198353034943       -0.78718013447918
C          156.24218679247861       -0.00582014816218        0.00118203307825
C          155.61276874499723       -0.99631005559597        0.77833157629923
C          156.25397155399799       -1.98236188220648        1.57283010161473
C          155.28241214034125       -2.75791123623795        2.14573598864679
C          154.02279726082233       -2.26476216387951        1.71632529820751
N          154.26879150693199       -1.20129665202491        0.89583884242910
C          152.75702047155261       -2.77053640910306        2.06051197608963
C          152.73462631043384       -3.89377715111699        2.91525226109350
C          152.71857182453053       -4.86347561309339        3.64504381746074
C          152.69473849980992       -5.99465720880852        4.49187291506006
C          153.87881386063796       -6.57603332479134        4.96089864914098
C          153.80057458511206       -7.68401002937100        5.78556939756561
N          152.64740442767649       -8.23198828201294        6.16054652327808
C          151.51737906463657       -7.68512351185056        5.71917698132216
C          151.48601342077001       -6.57727207843576        4.89128202040194
C          151.52720835350593       -2.24959187952752        1.61962163497857
C          150.23848472434705       -2.79904021997921        2.00345557785539
C          149.30536697835123       -2.03958852041058        1.39413015186582
C          150.02737741211095       -1.03011687357530        0.63925593604686
N          151.36781089777057       -1.19081442196716        0.80100848202436
H          148.31635327403581       -0.06851875286218       -0.14253790814470
H          148.28928914566436        2.03805376024454       -1.76076807526774
H          150.18679804993309        3.55709888919605       -2.89580094362136
H          152.07103260361444        0.58810982484420       -0.56651339022746
H          150.76714587288836        6.06696048610035       -4.83972226095938
H          150.89987409665534        8.04347760931438       -6.34583891036290
H          155.00826563826956        8.05725848506088       -6.22287616614190
H          155.06392103893873        6.08092805614074       -4.71138010759990
H          155.50320486940359        3.55603545432526       -2.82851299684381
H          157.38260421992638        2.04475681276571       -1.61555644324222
H          157.32181542807160       -2.07931401866381        1.68459924150488
H          155.41803594233650       -3.59833267148702        2.80726200620688
H          153.55234576826953       -0.64835359507864        0.43703347684962
H          154.83974736344490       -6.16212174469287        4.67991416093915
H          154.70330021221514       -8.15524424162936        6.16365577301338
H          150.59473802110335       -8.15727564196144        6.04428678030052
H          150.54274902944459       -6.16421345712134        4.55485653912547
H          150.09996460644874       -3.64921786779276        2.65240374409924
H          148.23093933205382       -2.12779453217666        1.43108704445868
C          277.77356532591182       -0.19664525018845        0.02186319605907
C          277.16637658609329       -1.02450399984569        0.95915024797174
C          277.81103501106486       -1.88537389579308        1.88965876063632
C          276.84140349803471       -2.51412324196791        2.62172747271378
C          275.57891361937027       -2.05408273118241        2.15980633737512
N          275.82041076730707       -1.16129948494484        1.16009693398198
C          274.31047076663015       -2.43166731594266        2.63519919124094
C          274.28384987110019       -3.38036922159594        3.68137003179544
C          274.26297035382009       -4.20102768464911        4.57507848771939
C          274.22849777724656       -5.15925838372520        5.61363216142116
C          275.40520193860431       -5.71223164565071        6.13243224737015
C          275.31512582902474       -6.64863941459804        7.14684520895395
N          274.15715984786686       -7.05536869427733        7.66089352918327
C          273.03402139113183       -6.53425291485188        7.17329532180581
C          273.01463828184239       -5.59259634282861        6.16004493116718
C          273.08345399621237       -1.94683264180011        2.15327461095813
C          271.80017259597093       -2.36066790888876        2.68610493551279
C          270.86272933223108       -1.69863162879443        1.97595082470950
N          272.91406528055654       -1.05489787034733        1.14747639912006
C          271.57905026620165       -0.88571204616952        1.01185113199696
C          270.93227723116985       -0.06501052598238        0.06998836454929
C          271.56347791023705        0.74445572088758       -0.89349544215908
C          270.92449006517921        1.58122437362036       -1.84522133040284
C          271.89834468618380        2.20780905787900       -2.57527067214202
C          273.15706239576463        1.76894749895136       -2.08835449602400
N          272.90817255013616        0.88624021070314       -1.07655528426193
C          274.42484215949986        2.16488061119996       -2.54938801619820
C          274.45176100069693        3.10509933377075       -3.60200241585166
C          274.47461533147219        3.91696354208979       -4.50397487515909
C          274.50774739899606        4.86345392515639       -5.55294719414014
C          273.32875277917219        5.37429973488984       -6.10879703996838
C          273.41695439975797        6.30032068931180       -7.13279461025143
N          274.57515154123877        6.73568855223739       -7.62239743250719
C          275.70041965617258        6.25482768579803       -7.09954884098149
C          275.72183783682323        5.32661298608323       -6.07404679204503
C          275.65350877393672        1.70102744567929       -2.04573646039945
C          276.94400193112403        2.13386790836078       -2.55303903836983
C          277.87511055438284        1.47330475393495       -1.83509799247354
C          277.15022700572985        0.64014903265357       -0.89144485651680
N          275.81001768919174        0.80699965956197       -1.04935937099720
H          278.85862698206989       -0.21491402701634        0.01055463252044
H          278.87951406975304       -2.00049537111347        1.97785178667543
H          276.97784119820642       -3.23307192130101        3.41363429908572
H          275.10279133954941       -0.66853209681589        0.63914123537543
H          276.36969187617643       -5.40966434970495        5.74273255282148
H          276.21195405890933       -7.09428902134137        7.56756046914764
H          272.10713674937546       -6.88832230608292        7.61533988131878
H          272.07666156851604       -5.19449815897251        5.79225740259086
H          271.66457206449218       -3.06258775059351        3.49336790647387
H          269.78960806554352       -1.73914831574017        2.07270749968190
H          269.85656869537098        1.68538965838442       -1.94963295662163
H          271.76481835833198        2.91243854169242       -3.38025343946570
H          273.62345351716374        0.40850611752039       -0.53831618623879
H          272.36399560825538        5.04732140607551       -5.74003818904023
H          272.51836475679011        6.71320617645580       -7.58221962469257
H          276.62740169539182        6.63138999192562       -7.52239338091469
H          276.66151494261283        4.96156909112086       -5.67743017162947
H          277.08504503360979        2.84614800676122       -3.35046209307216
H          278.94992085104695        1.52277670526736       -1.91176195807828
C          158.87207773342914       -0.00388913081281        0.04243303244851
C          157.65110724632044        0.00041242272564        0.02271410532680
C          160.22379854566503       -0.01246677525472        0.05489670323452
C          161.44488396917518       -0.02581163176440        0.06698894063999
C          172.38689578791301       -0.11008432762051        0.03089397714910
C          171.16438964772277       -0.11204246637195        0.03467714203724
C          173.73542229297922       -0.10877799093056        0.02380490526359
C          174.95795862590847       -0.10623644016024        0.02160552538269
C          185.89653183943776       -0.06389552159485       -0.00479987929730
C          184.67395239930599       -0.06827752784995       -0.00770343849808
C          187.24488478662713       -0.06126905130056       -0.00479456351453
C          188.46746679621256       -0.06219875629456        0.00000435621684
C          199.40468591020746       -0.07199625085411        0.01023595558427
C          198.18211443192223       -0.07588737847863        0.00490037516544
C          200.75302210550677       -0.07446502748576        0.01136769515768
C          201.97559617305944       -0.07519577445760        0.01713958444388
C          212.91281655979873       -0.07571049963991        0.02511469260969
C          211.69024293071001       -0.07987102281581        0.02048149229211
C          214.26115840680387       -0.07747645685632        0.02525557262355
C          215.48373955959559       -0.07833323912791        0.02977334513862
C          226.42107457986950       -0.08098912891758        0.02646952677282
C          225.19849595043425       -0.08445354583124        0.02308468676442
C          227.76941185787067       -0.07907941423789        0.02605010867790
C          228.99199944542946       -0.08017517410655        0.03095944485160
C          239.92955896915080       -0.07394547562491        0.02352782101660
C          238.70697367711691       -0.07781438138348        0.02014176967678
C          241.27792216744280       -0.07169782174562        0.02323494041304
C          242.50051114438003       -0.07262113118771        0.02849871064843
C          253.43948013777018       -0.07673528484644        0.04542236425508
C          252.21695025728394       -0.08177115302040        0.03810862876676
C          254.78802181963511       -0.07763441900539        0.04713658115873
C          256.01052443382918       -0.07384334523229        0.05562363933559
C          266.95181894204723       -0.02712598982545        0.08354620828617
C          265.73029805712036       -0.03017981816885        0.08479251139926
C          268.30289539486205       -0.03305704484763        0.08338276817595
C          269.52426964593121       -0.04485397306842        0.07796993418990
C          162.85308569361527       -0.04638167917897        0.06612254600718
C          163.47420651124443       -0.26352524053118       -1.17882126480873
C          162.82809968797940       -0.47361838884764       -2.42368182887940
C          163.79716829582392       -0.67010842765800       -3.37129820537662
C          165.05819519907143       -0.58216896146386       -2.72812162881376
N          164.81769592041076       -0.33349952020773       -1.40786993121778
C          166.32187807191639       -0.72584600377899       -3.33073377796745
C          166.32593203761439       -1.00674328957428       -4.71535882166134
C          166.32362468921164       -1.25874624533453       -5.90244097850625
C          166.32691224881501       -1.55790800718806       -7.28393255188625
C          167.52456427118850       -1.75811234812860       -7.98044574210131
C          167.47280935761503       -2.05311542193094       -9.33108796104665
N          166.33307334014026       -2.15717476617805      -10.00989460565276
C          165.19031626356153       -1.96766596212005       -9.35513293088508
C          165.13251415939834       -1.66894122134619       -8.00553994993987
C          167.56028243425800       -0.61707972027676       -2.67998539685301
C          168.83168636711565       -0.75877192240504       -3.36208547958702
C          169.78714905188667       -0.58200082954862       -2.42526392194299
N          167.75451466989520       -0.36467083415180       -1.36227450632553
C          169.09294495251700       -0.33764711739596       -1.17620164283464
C          169.75997342758879       -0.11121276777813        0.04267380843727
C          169.13799609036175        0.11322338663115        1.28720449709060
C          169.78400654932676        0.33183402272731        2.53032397978793
C          168.81431019073301        0.49485874761079        3.48384339299393
C          167.55307526683376        0.38104379357275        2.84510418998789
N          167.79471531941471        0.15188299060488        1.52098108099567
C          166.28905181449292        0.48311226402688        3.45437459200388
C          166.28329908479395        0.71571844545786        4.84775041409747
C          166.28517980625332        0.91391722300046        6.04505858678008
C          166.28070811281131        1.14394285487468        7.43968203321142
C          165.08156063632808        1.25129801056156        8.15394643955505
C          165.13211638166015        1.47588001791160        9.51810806321205
N          166.27207452114013        1.59661545153963       10.19380756762170
C          167.41626701593430        1.49605453260011        9.52206854671093
C          167.47534865906601        1.27226199468959        8.15810407358510
C          165.05015009333914        0.37697413739067        2.80203851772234
C          163.77834009766792        0.49827736974205        3.48790714308708
C          162.82309763028300        0.35180004090582        2.54583723004577
C          163.51722581110397        0.14067561448894        1.29070185915611
N          164.85719803431761        0.16004115570503        1.47923606118406
H          161.75970083340485       -0.47543844930973       -2.56716751712414
H          163.65745269709126       -0.85917716979693       -4.42342016175190
H          165.53385115003408       -0.22278420313758       -0.69779270348682
H          168.47507557727084       -1.68328132644397       -7.46619246102625
H          168.38640703054494       -2.21407956813542       -9.89612851109383
H          164.27927012456070       -2.06000393250954       -9.93936644129451
H          164.17957301432742       -1.52288229765870       -7.51136200889110
H          168.94792357084776       -0.96282993593206       -4.41449327724271
H          170.85887649846887       -0.61068200916136       -2.54020133078298
H          170.85267896594584        0.35830858919511        2.66951251179521
H          168.95386333744153        0.67814230842168        4.53701829239288
H          167.07874971516603        0.02704489378882        0.81307490499535
H          164.13081308959741        1.15917964445704        7.64296175601767
H          164.21733823419947        1.56317338257760       10.09724224870209
H          168.32744044385382        1.59958204556466       10.10424140278539
H          168.42943846531202        1.19694895949258        7.65045755158858
H          163.66196921554530        0.67288943422898        4.54558398675795
H          161.75134391185927        0.37953912006566        2.66057595317882
C          176.36228565407984       -0.10581239261706        0.01705608125165
C          176.98780715516719       -0.35292656372450       -1.22168867372181
C          176.34511837041779       -0.60593052931046       -2.45969820304631
C          177.31752660783522       -0.79709131298588       -3.40560462567374
C          178.57659806918195       -0.66407380676599       -2.76719812817060
N          178.33172761567474       -0.39630691830257       -1.45108853167468
C          179.84291947636984       -0.78340040828188       -3.36984883677467
C          179.85308174253061       -1.07294362677086       -4.75262061176200
C          179.85839916719738       -1.32572928718255       -5.93955557848077
C          179.87220361651708       -1.62260621009211       -7.32148828783442
C          181.07620433747712       -1.80316913135504       -8.01246763033643
C          181.03568574142966       -2.09452145291877       -9.36427366098944
N          179.90104471969011       -2.21276434363011      -10.04925984720365
C          178.75233221535686       -2.04206214772826       -9.39981160024977
C          178.68324884957138       -1.74875335454934       -8.04953216345054
C          181.07916703870089       -0.64166412104771       -2.72128778483242
C          182.35289281882314       -0.76875661562449       -3.40178750946635
C          183.30509969331797       -0.56932654194709       -2.46615376902742
N          181.26886031535469       -0.37249148765916       -1.40612345403032
C          182.60666808385881       -0.32340905692444       -1.21986650232201
C          183.26982032016602       -0.07624140261065       -0.00288959407261
C          182.64435944149045        0.16188643178527        1.23767116783901
C          183.28716570400334        0.40563667697447        2.47751652220305
C          182.31488228689895        0.58066347500729        3.42661136781224
C          181.05577440697911        0.44874895610551        2.78799933287127
N          181.30057498947161        0.19693576201885        1.46865730327442
C          179.78963067292369        0.55718661284634        3.39268726979696
C          179.77948450955935        0.81838117591866        4.78106619644955
C          179.77480312923618        1.03929088165178        5.97434221382226
C          179.76057667110447        1.29458137729368        7.36453755964559
C          178.55592830997364        1.41359523174835        8.06763653941599
C          178.59590157667270        1.66235606155384        9.42793694429082
N          179.73062165149412        1.79590408724534       10.10998467016126
C          180.87995372670403        1.68437002924237        9.44887676248426
C          180.94960708007042        1.43658717795199        8.08953041207495
C          178.55325040450288        0.42908136482324        2.74130221605433
C          177.27962650002181        0.55945131842864        3.42125090334704
C          176.32725920209478        0.37738445800641        2.48223768968961
C          177.02551148399098        0.13539595223691        1.23512622114880
N          178.36352502280735        0.17368032380062        1.42351246539688
H          175.27683580333078       -0.63698387231209       -2.60082637664852
H          177.18078088291566       -1.01092258805734       -4.45336749578383
H          179.04611276897509       -0.25174461734107       -0.74531140213968
H          182.02287012042638       -1.71599259807894       -7.49308609804627
H          181.95439755924482       -2.24027062686912       -9.92512955688436
H          177.84575632814884       -2.14543208095292       -9.98912229400887
H          177.72575957039115       -1.61791181675221       -7.55991994757241
H          182.47289905318993       -0.98090208219839       -4.45216726376889
H          184.37719694558629       -0.58245304358019       -2.58047043607156
H          184.35542363153328        0.44054133598329        2.61791842279965
H          182.45171370394414        0.78356443140348        4.47653329300097
H          180.58618872258015        0.05494061616307        0.76236423141689
H          177.60919481307414        1.31160209179473        7.55107929753299
H          177.67667395567969        1.75913878436028        9.99845733158000
H          181.78657430081998        1.79878924501690       10.03607822053652
H          181.90758456026771        1.35297317411670        7.59060168885876
H          177.15974991947840        0.76337730540370        4.47326927295801
H          175.25515536227951        0.39865965647886        2.59513161847947
C          189.87162324642713       -0.06764663420233        0.00093166274614
C          190.50003696120584       -0.31895733864459       -1.23555276141992
C          189.85997648654762       -0.56878683670663       -2.47556938675111
C          190.83437122373434       -0.76712281443133       -3.41793603594084
C          192.09202680326328       -0.64177796381439       -2.77525218459387
N          191.84436830577638       -0.37103479831289       -1.46024343079048
C          193.35963922571378       -0.77011777781407       -3.37320715293252
C          193.37280582805894       -1.06297515645108       -4.75523511082819
C          193.37989210818188       -1.31987783553605       -5.94127305393711
C          193.39597388950327       -1.62204564669475       -7.32203148050356
C          194.60098688820977       -1.80859338723694       -8.00963462691846
C          194.56262196678529       -2.10521216801002       -9.36036034992838
N          193.42915447673371       -2.22318079529814      -10.04732738610617
C          192.27949032317642       -2.04685558911607       -9.40108140711376
C          192.20826160944515       -1.74792516637145       -8.05214441321525
C          194.59430303969134       -0.63449180487029       -2.72036160940843
C          195.86976029002366       -0.76881316840329       -3.39612199965961
C          196.81958447330311       -0.57305042949788       -2.45728914826741
N          194.78057381143842       -0.36509787333933       -1.40475173574681
C          196.11792851110934       -0.32265797616294       -1.21370525430633
C          196.77797894073348       -0.07867236247352        0.00560200609515
C          196.14960639188592        0.16073975365645        1.24446321876669
C          196.78967612612396        0.39832487256984        2.48690869799130
C          195.81527111625402        0.57617158862444        3.43332763036655
C          194.55758497786064        0.45263689362027        2.79031548819812
N          194.80528753942480        0.20252588209054        1.47120049087407
C          193.28998188754926        0.56725320596218        3.39092813859541
C          193.27647958398703        0.82285703671632        4.78032387426894
C          193.26844656979432        1.03746924487470        5.97473475222060
C          193.25099901696620        1.28461771284628        7.36637964355761
C          192.04469727690852        1.40447290271389        8.06649918382187
C          192.08151136976704        1.64443797734761        9.42847114015268
N          193.21467299323288        1.76873618330857       10.11483931542877
C          194.36555901475526        1.65639746855509        9.45658705426633
C          194.43836990333125        1.41687996671708        8.09591905025580
C          192.05530955631855        0.44973198077416        2.73444760879613
C          190.77989849282372        0.58824951415618        3.40940959961025
C          189.83008073276892        0.41460465091752        2.46621503308329
C          190.53167603113477        0.16928057813909        1.22161657827324
N          191.86906867869342        0.19800850175039        1.41537689710931
H          188.79201671729848       -0.59296482684923       -2.62040741392489
H          190.69984652318021       -0.98087711142703       -4.46599905903141
H          192.55731226552803       -0.23085270011335       -0.75213191752870
H          195.54674340773354       -1.72189634775664       -7.48852232147518
H          195.48215224435020       -2.25563776972743       -9.91862841641667
H          191.37392234524435       -2.15023739815879       -9.99193499054460
H          191.25006235569214       -1.61263659527098       -7.56513358896143
H          195.99243644404604       -0.98260816834639       -4.44585807769953
H          197.89199719024339       -0.59174392355219       -2.56776443569520
H          197.85764754630563        0.42715768785955        2.63082016254901
H          195.94978336904168        0.77588367533433        4.48416032910368
H          194.09233219018478        0.06586399643691        0.76241520922151
H          191.09914034441013        1.30979354712627        7.54640837875323
H          191.16094452707640        1.74154559581675        9.99677189822113
H          195.27083308691115        1.76313657713747       10.04730111034944
H          195.39753055603899        1.33218871446478        7.59945408067772
H          190.65722363920986        0.79156969016463        4.46122510486103
H          188.75769638924433        0.44355252715115        2.57470742260959
C          203.37972667691332       -0.08023627458391        0.01822964620610
C          204.00815058131070       -0.33030610986761       -1.21849914027469
C          203.36810655092461       -0.58001615549760       -2.45855476071398
C          204.34252682919200       -0.77688805987923       -3.40119020088525
C          205.60017408576195       -0.65072432750309       -2.75864041524269
N          205.35247639316805       -0.38105210220557       -1.44341142464006
C          206.86779461799972       -0.77723059976571       -3.35691491594262
C          206.88091981804629       -1.06894929060451       -4.73918233047134
C          206.88749864807539       -1.32486506517217       -5.92543423982501
C          206.90305873466110       -1.62588964466554       -7.30644707577411
C          208.10773447232367       -1.81290772386677       -7.99450131834147
C          208.06876121000067       -2.10839271156828       -9.34546136414829
N          206.93501717591096       -2.22478463305514      -10.03223693289434
C          205.78566820346353       -2.04796125535081       -9.38556611589240
C          205.71504674885651       -1.75010371624695       -8.03636162426170
C          208.10244190769080       -0.64063073474017       -2.70422420556205
C          209.37788518594647       -0.77285144462507       -3.38040075299723
C          210.32769807890014       -0.57668875954967       -2.44163665976241
N          208.28868660606824       -0.37201836993890       -1.38845932629845
C          209.62604768375360       -0.32811253356514       -1.19769033963104
C          210.28610858403323       -0.08414577705828        0.02162027792955
C          209.65772678132683        0.15404161315623        1.26071382699553
C          210.29775128572248        0.39213091153392        2.50307421421026
C          209.32331235943150        0.56853239391267        3.44973822834431
C          208.06565460898236        0.44353732668274        2.80696485657349
N          208.31339198988150        0.19405984807787        1.48774873348002
C          206.79801934230676        0.55629110479077        3.40792014728373
C          206.78457147181305        0.81171306952397        4.79734838606857
C          206.77681461122972        1.02628881541449        5.99176548482624
C          206.75986995311695        1.27365705903705        7.38337506844496
C          205.55391458037715        1.39378625798081        8.08402557108216
C          205.59141518034997        1.63397307152650        9.44594674452200
N          206.72491075318851        1.75820318808278       10.13176558698459
C          207.87548048271614        1.64558644043845        9.47300117610128
C          207.94760672925611        1.40586067187753        8.11234057436123
C          205.56335849131219        0.43730509155330        2.75173489648422
C          204.28791660678095        0.57372085466981        3.42709302334604
C          203.33810515709590        0.39965460406543        2.48397523460390
C          204.03974198952616        0.15614907801500        1.23903456612597
N          205.37711832641600        0.18621337747322        1.43253420955891
H          202.30014755749582       -0.60512263657843       -2.60324297465643
H          204.20802029272457       -0.99019006818123       -4.44934704531417
H          206.06539015243263       -0.24056654532434       -0.73533011341273
H          209.05369856843109       -1.72747634677959       -7.47355831003938
H          208.98801581481166       -2.25918636555349       -9.90408320339363
H          204.87986038703946       -2.15002837048337       -9.97628015415193
H          204.75709527095970       -1.61435497555169       -7.54898761990549
H          209.50054984575306       -0.98562186233041       -4.43034576058955
H          211.40010302503228       -0.59395555941327       -2.55239976746621
H          211.36571461507535        0.42229587049873        2.64677099206501
H          209.45779420762491        0.76820151877757        4.50058244932868
H          207.60047848520645        0.05672495898076        0.77905073325621
H          204.60809047026584        1.29917732277735        7.56440800892856
H          204.67113008587165        1.73132990440708       10.01466121916068
H          208.78104642821637        1.75227706396713       10.06327363784541