183
 energy: -329.012798761279 gnorm: 1.083741817725 xtb: 6.5.1 (b24c23e)
Fe          34.30339900000000       -0.02267100000000        0.00270600000000
C           30.94164600000000        0.11243600000000       -0.11631700000000
C           31.60770500000000        1.26612900000000       -0.01588500000000
C           30.95788000000000        2.56772700000000        0.07804600000000
C           31.89798400000000        3.48194700000000        0.22327000000000
C           33.20331900000000        2.80688000000000        0.22423000000000
N           33.02594800000000        1.39831400000000        0.06939700000000
C           34.39273299999999        3.41921700000000        0.39728300000000
C           34.42906500000000        4.88615900000000        0.58982100000000
C           34.68392699999999        5.42387400000000        1.85947000000000
C           34.72266999999999        6.80906700000000        2.04261600000000
C           34.50232600000000        7.67455600000000        0.95697200000000
C           34.53565100000000        9.13808100000000        1.13083300000000
O           34.77000000000000        9.65438200000000        2.25608400000000
C           34.24624000000000        7.13265000000000       -0.31222800000000
C           34.21222400000000        5.74741000000000       -0.49576100000000
C           35.68847600000000        2.68830000000000        0.41397000000000
C           36.98325900000000        3.33013900000000        0.67267200000000
C           37.91741300000000        2.40683800000000        0.57983600000000
N           35.82717200000000        1.42189100000000        0.16282100000000
C           37.22910900000000        1.16478100000000        0.25111200000000
C           37.82522100000000       -0.01391400000000        0.00378800000000
C           37.07033400000000       -1.23736800000000       -0.35465600000000
C           37.62395500000000       -2.32581100000000       -0.87465200000000
C           36.57998900000000       -3.32076000000000       -1.00837300000000
C           35.45528400000000       -2.77709000000000       -0.55939600000000
N           35.67380400000000       -1.43263800000000       -0.12523200000000
C           34.15858300000000       -3.49727500000000       -0.47312100000000
C           34.16807200000000       -4.97730200000000       -0.54862100000000
C           33.60574000000000       -5.63650200000000       -1.65308700000000
C           33.63523800000000       -7.03176600000000       -1.73018300000000
C           34.23210500000000       -7.78636500000000       -0.70787500000000
C           34.25983000000000       -9.25694700000000       -0.80923600000000
O           34.83587399999999       -9.95831000000000        0.06330200000000
C           34.79980499999999       -7.12384400000000        0.39509300000000
C           34.77042200000000       -5.72847300000000        0.47114400000000
C           32.99034100000000       -2.84392300000000       -0.32944300000000
C           31.66863900000000       -3.45758000000000       -0.21227500000000
C           30.80819300000000       -2.46198600000000       -0.12681600000000
C           31.57110900000000       -1.21598400000000       -0.17676600000000
N           32.84457100000000       -1.42575300000000       -0.29492200000000
H           29.85837500000000        0.14525100000000       -0.13315600000000
H           29.89404100000000        2.76549400000000        0.05077300000000
H           31.70946800000000        4.54188900000000        0.33355000000000
H           34.85336499999999        4.76920100000000        2.70570900000000
H           34.92328700000000        7.20165700000000        3.03159200000000
H           34.35816100000000        9.78797300000000        0.28358100000000
H           34.07331700000000        7.78198700000000       -1.16186800000000
H           34.01520000000000        5.34457500000000       -1.48196800000000
H           37.16581000000000        4.37350400000000        0.89168900000000
H           38.97837500000000        2.57423300000000        0.70982300000000
H           38.66406899999999       -2.46271200000000       -1.13783900000000
H           36.70394900000000       -4.32585600000000       -1.38959400000000
H           33.14936700000000       -5.06860600000000       -2.45543100000000
H           33.19736900000000       -7.52235700000000       -2.59176500000000
H           33.78828900000000       -9.74981500000000       -1.64945200000000
H           35.26605100000000       -7.68291900000000        1.19743500000000
H           35.21357000000000       -5.23270600000000        1.32656000000000
H           31.41752900000000       -4.51010800000000       -0.19327000000000
H           29.73518500000000       -2.56405800000000       -0.02868100000000
Fe          56.65718600000000       -0.00509300000000        0.00396400000000
C           60.01893800000000       -0.12187300000000       -0.13308600000000
C           59.35287900000000       -1.27811000000000       -0.19797200000000
C           60.00270499999999       -2.57981900000000       -0.29035500000000
C           59.06260000000000       -3.50540200000000       -0.27680200000000
C           57.75726500000000       -2.83735200000000       -0.17971700000000
N           57.93463600000000       -1.42109200000000       -0.13238300000000
C           56.56785099999999       -3.46809200000000       -0.09562900000000
C           56.53151900000000       -4.94750200000000       -0.11395600000000
C           56.27665699999999       -5.66054400000000        1.06617800000000
C           56.23791400000000       -7.05770000000000        1.05019600000000
C           56.45825800000000       -7.75976500000000       -0.14763400000000
C           56.42493300000000       -9.23313300000000       -0.18396100000000
O           56.19058400000000       -9.90441600000000        0.85629600000000
C           56.71434500000000       -7.04263900000000       -1.32672800000000
C           56.74836100000000       -5.64538100000000       -1.31112200000000
C           55.27210899999999       -2.74700100000000        0.02497500000000
C           53.97732600000000       -3.41914000000000        0.18963800000000
C           53.04317100000000       -2.49202800000000        0.22923200000000
N           55.13341200000000       -1.45773300000000       -0.04326900000000
C           53.73147500000000       -1.21581700000000        0.08073600000000
C           53.13536300000000       -0.01391400000000        0.00378800000000
C           53.89025000000000        1.24811500000000       -0.17677400000000
C           53.33662899999999        2.39951600000000       -0.53646900000000
C           54.38059500000000        3.40336700000000       -0.52713900000000
C           55.50529999999999        2.80130100000000       -0.16016000000000
N           55.28678000000000        1.40872400000000        0.07811900000000
C           56.80200099999999        3.50186000000000        0.02779400000000
C           56.79251200000000        4.97755500000000        0.16383000000000
C           57.35484400000000        5.78732000000000       -0.83550500000000
C           57.32534600000000        7.17934300000000       -0.71312000000000
C           56.72847900000000        7.78066700000000        0.40622900000000
C           56.70075400000000        9.25069500000000        0.51532300000000
O           56.12470999999999        9.82065400000000        1.47884700000000
C           56.16077899999999        6.96782800000000        1.40360900000000
C           56.19016200000000        5.57584800000000        1.28017400000000
C           57.97024300000000        2.83470600000000        0.07696600000000
C           59.29194499999999        3.42542300000000        0.28032900000000
C           60.15239099999999        2.42780600000000        0.22313700000000
C           59.38947599999999        1.20161600000000       -0.00374300000000
N           58.11601300000000        1.42607400000000       -0.09082200000000
H           61.10220900000000       -0.15195500000000       -0.15442700000000
H           61.06654300000000       -2.77168600000000       -0.34551300000000
H           59.25111600000000       -4.57024600000000       -0.31858900000000
H           56.10721899999999       -5.13305300000000        1.99702200000000
H           56.03729700000000       -7.58712600000000        1.97318600000000
H           56.60242300000000       -9.75574700000000       -1.11512800000000
H           56.88726699999999       -7.56436300000000       -2.26017900000000
H           56.94538400000000       -5.10620900000000       -2.22991200000000
H           53.79477400000000       -4.48306100000000        0.25784100000000
H           51.98220900000000       -2.67622800000000        0.33405700000000
H           52.29651500000000        2.57250100000000       -0.77747800000000
H           54.25663500000000        4.45250800000000       -0.76134200000000
H           57.81121700000000        5.33947200000000       -1.71054300000000
H           57.76321500000000        7.78762900000000       -1.49605700000000
H           57.17229500000000        9.85819300000000       -0.24614200000000
H           55.69453300000000        7.40694600000000        2.27739000000000
H           55.74701400000000        4.96331700000000        2.05627100000000
H           59.54305500000000        4.46451800000000        0.44902800000000
H           61.22539900000000        2.51486300000000        0.33480900000000
C           39.66712000000000       -0.01391400000000        0.00378800000000
C           40.88903799999999       -0.01391400000000        0.00378800000000
C           50.07154599999999       -0.01391400000000        0.00378800000000
C           51.29346400000000       -0.01391400000000        0.00378800000000
Fe          45.46448700000000       -0.01445800000000        0.01354600000000
C           42.02225300000000        0.02924400000000       -0.00796200000000
C           42.67850499999999        1.16427200000000        0.30145300000000
C           42.03755500000000        2.45521400000000        0.56404000000000
C           42.97776000000000        3.33038000000000        0.86641400000000
C           44.27573499999999        2.65082500000000        0.82099000000000
N           44.09586000000000        1.27943900000000        0.45599400000000
C           45.46075500000000        3.23206900000000        1.10288500000000
C           45.49533400000000        4.64961500000000        1.52569300000000
C           45.99664700000000        5.62991900000000        0.65662500000000
C           46.04089200000000        6.96807100000000        1.05601700000000
C           45.58577699999999        7.34232600000000        2.33270500000000
C           45.60992499999999        8.74776200000000        2.77418000000000
O           46.07499500000000        9.64907200000000        2.03051300000000
C           45.09358000000000        6.35838400000000        3.20069900000000
C           45.04996899999999        5.02024000000000        2.79995600000000
C           46.75691300000000        2.51657200000000        1.01246200000000
C           48.02494900000000        3.05933000000000        1.51482300000000
C           48.97686899999999        2.19791800000000        1.21988000000000
N           46.92454299999999        1.36717400000000        0.43540700000000
C           48.32252600000000        1.09518400000000        0.52756400000000
C           48.93817499999999        0.02924400000000       -0.00796200000000
C           48.18958200000000       -1.05465200000000       -0.67666400000000
C           48.72263100000000       -1.92633200000000       -1.52230000000000
C           47.69095900000000       -2.89152800000000       -1.85139700000000
C           46.59892399999999       -2.54202000000000       -1.18378500000000
N           46.82401700000000       -1.36455300000000       -0.41085500000000
C           45.34377100000000       -3.32890200000000       -1.15850500000000
C           45.40536700000000       -4.76597800000000       -1.51402700000000
C           46.17247400000000       -5.64694800000000       -0.73738100000000
C           46.24476800000000       -7.00188000000000       -1.07242800000000
C           45.55625500000000       -7.49334700000000       -2.19276600000000
C           45.64031299999999       -8.92648400000000       -2.52358700000000
O           45.02030500000000       -9.40453600000000       -3.51240300000000
C           44.79746700000000       -6.60788300000000       -2.97872800000000
C           44.72539500000000       -5.25235100000000       -2.64271400000000
C           44.17058099999999       -2.77264800000000       -0.79940800000000
C           42.89365699999999       -3.46846200000000       -0.67685600000000
C           42.00263700000000       -2.54877700000000       -0.36286100000000
C           42.70012899999999       -1.26050200000000       -0.27661300000000
N           43.96765400000000       -1.38561900000000       -0.52754800000000
H           40.98080400000000        2.68669300000000        0.52112800000000
H           42.79355000000000        4.37102600000000        1.10082000000000
H           46.35027600000000        5.35627500000000       -0.32996900000000
H           46.42841700000000        7.70882400000000        0.36741700000000
H           45.21656300000000        9.02019600000000        3.75361300000000
H           44.74250100000000        6.62515900000000        4.18848700000000
H           44.67029599999999        4.27243700000000        3.48160200000000
H           48.17452299999999        3.99679000000000        2.03418100000000
H           50.02671800000000        2.31545600000000        1.45598300000000
H           49.74303300000000       -1.94059500000000       -1.87906400000000
H           47.80527800000000       -3.75696800000000       -2.49027000000000
H           46.70900900000000       -5.28456400000000        0.13145800000000
H           46.83760299999999       -7.66774000000000       -0.45581700000000
H           46.24015800000000       -9.58869900000000       -1.91054800000000
H           44.26457800000000       -6.96145900000000       -3.85299800000000
H           44.14271300000000       -4.58070800000000       -3.26252700000000
H           42.69150700000000       -4.52439600000000       -0.80382000000000
H           40.95017500000000       -2.73836000000000       -0.19560300000000
183
 energy: -329.326455512787 gnorm: 0.397676413446 xtb: 6.5.1 (b24c23e)
Fe          34.30933973895240       -0.01855231305763       -0.00244861658158
C           30.94275086560862        0.09735025566661       -0.11689093479330
C           31.61470427818855        1.26555057592923       -0.01536233644390
C           30.95828983825082        2.56047892057216        0.07695770681282
C           31.90821420808906        3.48281099785497        0.22369488559095
C           33.20366338311257        2.79878053863336        0.22270389646437
N           33.01700084597652        1.40509808055613        0.07161537697915
C           34.40706058846855        3.41471294278613        0.39747447192274
C           34.43281340035697        4.88766019683227        0.58993022885079
C           34.68492935335785        5.42837257188536        1.85693391210884
C           34.72189309484969        6.80710822890656        2.03948186731631
C           34.50224905041062        7.67502544913769        0.95669956477410
C           34.53949567226437        9.13837936665543        1.14837540362248
O           34.76703471232247        9.64642861409042        2.24211861562018
C           34.24632845283360        7.12943405922355       -0.31030917082196
C           34.21197020636735        5.74986743167801       -0.49241335742932
C           35.68180406921081        2.69998672877142        0.41568398389013
C           36.97099007316439        3.33925561559187        0.67237520275382
C           37.91614952679658        2.40093062418264        0.57813762477013
N           35.83596575955249        1.41317588079483        0.16774253013315
C           37.23800787942237        1.16102163380762        0.25057958004397
C           37.84912261043957       -0.02635741195033       -0.00183848387287
C           37.07083702182945       -1.22485533598435       -0.34367324567865
C           37.62651368006275       -2.34306536916343       -0.87918432521038
C           36.59681435657914       -3.32203396653121       -1.00993547193802
C           35.44498923526081       -2.76560006785443       -0.54909297749321
N           35.67526766122334       -1.42645187393465       -0.13491506536472
C           34.17041355832694       -3.48916378356993       -0.47224199252083
C           34.17432750531806       -4.97579445662995       -0.55111365979746
C           33.60656201282522       -5.63850323754221       -1.64998312649804
C           33.63602761068254       -7.02844899238860       -1.72750050433390
C           34.23174653874549       -7.78646994857686       -0.70799648623302
C           34.26986565420137       -9.26013849395755       -0.79485465473522
O           34.82839895080588       -9.94818587222533        0.05326008140623
C           34.79792466677402       -7.12089746444754        0.39259275638247
C           34.77025469232164       -5.73157247453525        0.46762189117382
C           32.99060718310943       -2.84039984664123       -0.32893083030787
C           31.67591946476952       -3.45648426805184       -0.21308508681354
C           30.80059706107976       -2.45119017014268       -0.12707155076336
C           31.55682085938115       -1.20692055888048       -0.17610985677345
N           32.84883072629416       -1.42977002792119       -0.28842180653159
H           29.85912626263755        0.14071472989646       -0.13322116718273
H           29.89480739834720        2.75841286300125        0.04975092924799
H           31.71838983037837        4.54196235810903        0.33374523719468
H           34.85296457690665        4.77027068944289        2.70379559912785
H           34.92266651576226        7.20356528082964        3.02947934695689
H           34.35778914784023        9.78499099950889        0.28178969608530
H           34.07368515679293        7.78162028811091       -1.16061133893169
H           34.01580480865067        5.34450893708326       -1.48001644092972
H           37.15845417365605        4.37746569714074        0.89193250792232
H           38.97644012981016        2.56693927750108        0.70864507311097
H           38.66483547105772       -2.46704121925046       -1.13988136465646
H           36.70772985085189       -4.32553929260269       -1.39079362150885
H           33.15045822488300       -5.06873556282412       -2.45359104520314
H           33.19814360301490       -7.52189867153499       -2.59019535881617
H           33.78727707335754       -9.74660229234850       -1.65054364186386
H           35.26473577348997       -7.68411254875550        1.19489698789887
H           35.21267375471639       -5.23324379189023        1.32460652576322
H           31.42560200086330       -4.50900109986979       -0.19405220607161
H           29.73239460738576       -2.55798443785767       -0.02858592094408
Fe          56.65126108742309       -0.00838265962206       -0.00177177453424
C           60.01782728561119       -0.10680808001906       -0.13150416428328
C           59.34585865254759       -1.27762988519914       -0.19738575357207
C           60.00230310939204       -2.57250314560221       -0.29039782300861
C           59.05237911161830       -3.50633500025110       -0.27649955891226
C           57.75695548822122       -2.82903531580769       -0.18010301306425
N           57.94378584329212       -1.42836508987390       -0.13113141219367
C           56.55337203870122       -3.46361269843537       -0.09479965504764
C           56.52772817177529       -4.94900268931940       -0.11406213844146
C           56.27565398495917       -5.66464040069382        1.06302906934413
C           56.23868931837715       -7.05531747158860        1.04738144241473
C           56.45833526781677       -7.76019719732302       -0.14796895184461
C           56.42111587980627       -9.23590323313194       -0.16663698695129
O           56.19350867204761       -9.89458201383843        0.84359289629320
C           56.71426309664913       -7.03972930484427       -1.32437663182957
C           56.74861229367616       -5.64829466607497       -1.30815681659238
C           55.27890271697848       -2.75871249191963        0.02505870945912
C           53.98925615158807       -3.42795399938862        0.18806656747144
C           53.04373384108220       -2.48609956249983        0.22832818399749
N           55.12486819335854       -1.44972743367510       -0.03708712286462
C           53.72256877550857       -1.21187175475012        0.08040311168867
C           53.11280427236331       -0.00035888199824        0.00029173880476
C           53.88986219789616        1.23436214838962       -0.16742087230995
C           53.33390122170185        2.41754671015651       -0.53849334331842
C           54.36356110378896        3.40481672067886       -0.52853413944438
C           55.51558384566651        2.78840866175220       -0.15161295977183
N           55.28527342488854        1.40404237282825        0.06775667546746
C           56.79008275930628        3.49366216766073        0.02750097764609
C           56.78623311737470        4.97641358807653        0.16113733766595
C           57.35402061653136        5.78885221207596       -0.83214574621513
C           57.32455500016363        7.17567688027148       -0.71092768114913
C           56.72883573315361        7.78077517099921        0.40612747971557
C           56.69070077247700        9.25182881167024        0.53002208996717
O           56.13223925572527        9.81204556934156        1.46745106112049
C           56.16266151791527        6.96527274931226        1.40071573217872
C           56.19033288668898        5.57941544777243        1.27712620142815
C           57.96995866227257        2.83107564621076        0.07699371592562
C           59.28465813336194        3.42443441296131        0.27936266482755
C           60.15998487487069        2.41714371359215        0.22134001961944
C           59.40378701530627        1.19249567100869       -0.00439772708462
N           58.11168216110182        1.42912598408993       -0.08376350742889
H           61.10145615881930       -0.14744382032101       -0.15383438352308
H           61.06578267458768       -2.76453837828015       -0.34551729458446
H           59.24219249250545       -4.57035775755867       -0.31840475376752
H           56.10761868621278       -5.13384268611865        1.99497479611191
H           56.03791829895641       -7.58871484415041        1.97082749618796
H           56.60279881445457       -9.75253393715903       -1.11647868439871
H           56.88690176388409       -7.56418193023191       -2.25888657428684
H           56.94478078235593       -5.10642301385641       -2.22796954473586
H           53.80208117753136       -4.48694229473748        0.25751014767362
H           51.98325969430574       -2.66873625537374        0.33378189742686
H           52.29561118925439        2.57709057582071       -0.77880304802846
H           54.25280588114001        4.45234020454694       -0.76257260508501
H           57.81012583133777        5.33933542818491       -1.70870463248935
H           57.76244008500694        7.78695073711885       -1.49456591097464
H           57.17330785363976        9.85516977984800       -0.24768049859784
H           55.69584386280075        7.40849338804973        2.27504468218290
H           55.74790945538140        4.96412750229767        2.05441398500237
H           59.53497477692208        4.46352420869828        0.44809497180139
H           61.22818772627121        2.50883844019682        0.33403812599289
C           39.56196619100231       -0.01379615410252        0.00298059459585
C           40.77492966251877       -0.02249373469858        0.00183958746991
C           50.18137799567153       -0.02572379598981        0.00008101452720
C           51.39526925070675       -0.01587217798678        0.00302732386058
Fe          45.46076026763168       -0.01457631840114        0.01105553285257
C           42.07962817150287        0.01659156223973       -0.00721861144958
C           42.71196260329276        1.17707948170436        0.30390303893262
C           42.04120845087269        2.44576217217361        0.56142007669600
C           42.98843864235064        3.33238606562294        0.86785185230455
C           44.27645379605655        2.64683077391923        0.82022234938752
N           44.09679479206902        1.29369301765618        0.45505647733114
C           45.47350165777318        3.23060139377375        1.10478539112308
C           45.49931469697309        4.65179088352861        1.52723729256806
C           45.99694745667269        5.63320269464710        0.66067512267344
C           46.03954287582695        6.96537199479957        1.05795466861174
C           45.58534397306505        7.34264205630017        2.33327335248421
C           45.61711406561668        8.75529313589921        2.76009952568584
O           46.06929346124588        9.63765991190553        2.03920672186208
C           45.09363708806470        6.35604878449132        3.19799350987539
C           45.05001086209105        5.02392372788728        2.79860937470355
C           46.74730964034377        2.53490513752012        1.01782770700562
C           48.01123891684951        3.07082102540120        1.51638374462238
C           48.97164600722758        2.19171105163889        1.21585157792586
N           46.91930570565016        1.36417388794564        0.44302987455520
C           48.29384820919508        1.10674262298156        0.53449484970165
C           48.87631955265628        0.02140544559257       -0.01369987785940
C           48.16107042510755       -1.05523747193934       -0.67056559738781
C           48.72136266512560       -1.94242487636064       -1.53060766734209
C           47.70728751432446       -2.89389984450871       -1.85444195655817
C           46.58777179887839       -2.53847725875949       -1.17140167893601
N           46.81321660137500       -1.36041366566485       -0.42219687336907
C           45.35442228720424       -3.32379978188607       -1.15685287599279
C           45.41068789560271       -4.76468471491269       -1.51658593651496
C           46.17239460358822       -5.64889215795399       -0.74067141846475
C           46.24283577797167       -6.99846861923146       -1.07331898562957
C           45.55648809725703       -7.49355984766640       -2.19256355889424
C           45.62953424591384       -8.92672208855532       -2.53817545232126
O           45.02823096956813       -9.39680267720606       -3.49960467084383
C           44.79917398257889       -6.60535631893051       -2.97516248417363
C           44.72687549390417       -5.25598397706423       -2.63979491968892
C           44.17168431471079       -2.77285558378178       -0.79967586911004
C           42.90073879477875       -3.46762500630635       -0.67837127450183
C           41.99677121387796       -2.53691565604495       -0.36109513377807
C           42.70692287847832       -1.26243845550552       -0.27561937740497
N           43.98246081396293       -1.39656773102789       -0.52271808836753
H           40.98312501323435        2.67641681344829        0.51860875767549
H           42.80149545081319        4.37112013751515        1.10167364947306
H           46.34955906807561        5.35642105189440       -0.32794806954855
H           46.42739931500856        7.70975095763295        0.37003114039503
H           45.21700181315962        9.01611921353754        3.75205980048551
H           44.74278788686497        6.62531313080055        4.18797154685017
H           44.67068644513875        4.27239026815200        3.48085537028329
H           48.16783299475738        4.00120744148975        2.03516381469245
H           50.02366740921234        2.30680569512600        1.45115995393321
H           49.74229613550502       -1.94245439750977       -1.88127855428559
H           47.80949109112346       -3.75647664371252       -2.49268501974648
H           46.70805150413224       -5.28439681844370        0.12994428704434
H           46.83647436832557       -7.66705327126847       -0.45699028294811
H           46.24055199458794       -9.58576552547176       -1.90908231539440
H           44.26623403904541       -6.96296109020996       -3.85098695728568
H           44.14433637260972       -4.58166104174702       -3.26067630524856
H           42.69858804366590       -4.52271456875134       -0.80490590697270
H           40.94796452126147       -2.73006925885203       -0.19402706613156
183
 energy: -329.449942063097 gnorm: 0.189804394732 xtb: 6.5.1 (b24c23e)
Fe          34.32238842693020       -0.01218298357514       -0.01333486762997
C           30.94632701721828        0.07977503047899       -0.11677396253950
C           31.62374514642340        1.26273898567545       -0.01447577511827
C           30.96475127475837        2.54976831615374        0.07567034855486
C           31.92443241283990        3.47874017099485        0.22348225429145
C           33.20746624157462        2.78774942685621        0.22110005543042
N           33.00651062515137        1.41319827244241        0.07471796935944
C           34.42700908937281        3.40490235976069        0.39707462099015
C           34.44054346994219        4.88537011909048        0.58923167406837
C           34.68777458725501        5.43145093557990        1.85324234687313
C           34.72070702356905        6.80502264950247        2.03497458956542
C           34.50185748225796        7.67322462678993        0.95515060723049
C           34.54324353009670        9.13723112491938        1.16490971999021
O           34.76570990013618        9.63950899019808        2.23628237597067
C           34.24584171512510        7.12517177897239       -0.30782284959781