154
 energy: -275.982963370159 gnorm: 7.637711318849 xtb: 6.5.1 (b24c23e)
Fe          23.82447800000000        0.02642500000000        0.02748600000000
C           20.45082100000000       -0.08320700000000       -0.08256700000000
C           21.12372700000000       -0.89799100000000       -0.90101900000000
C           20.49502600000000       -1.82841400000000       -1.83554600000000
C           21.45584900000000       -2.46972000000000       -2.47972900000000
C           22.73897100000000       -1.97601000000000       -1.98387400000000
N           22.54478500000000       -0.98044900000000       -0.98389600000000
C           23.92720900000000       -2.40688300000000       -2.41663500000000
C           25.22689400000000       -1.91546400000000       -1.92298800000000
C           26.50657600000000       -2.41365800000000       -2.42311200000000
C           27.46232600000000       -1.77241900000000       -1.77900100000000
N           25.38051200000000       -1.00652600000000       -1.01016800000000
C           26.79179999999999       -0.85667900000000       -0.85947900000000
C           27.40053000000000       -0.01026600000000       -0.00937800000000
C           26.65271600000000        0.89566500000000        0.90036000000000
C           27.22412100000000        1.74264900000000        1.75095900000000
C           26.16203000000000        2.44000800000000        2.45135700000000
C           25.01567200000000        1.97388600000000        1.98326600000000
N           25.22814600000000        0.97726800000000        0.98234200000000
C           23.70037800000000        2.44429200000000        2.45584700000000
C           22.53350400000000        1.98687100000000        1.99651600000000
C           21.22568800000000        2.43617500000000        2.44800000000000
C           20.34466000000000        1.74154000000000        1.75038500000000
C           21.09156900000000        0.85275000000000        0.85751400000000
N           22.37291800000000        0.98952900000000        0.99473400000000
H           19.36771000000000       -0.10573200000000       -0.10511900000000
H           19.43360900000000       -1.97812600000000       -1.98587300000000
H           21.30218400000000       -3.22569300000000       -3.23903200000000
H           23.94690700000000       -3.17136700000000       -3.18447600000000
H           26.65745600000000       -3.16978900000000       -3.18240700000000
H           28.52399900000000       -1.91920300000000       -1.92620000000000
H           28.28375200000000        1.89490000000000        1.90385400000000
H           26.28183800000000        3.19911700000000        3.21377200000000
H           23.68374700000000        3.20918200000000        3.22413700000000
H           21.00194900000000        3.18325500000000        3.19846800000000
H           19.26900300000000        1.82449500000000        1.83388200000000
Fe          65.09700100000001       -0.06221300000000       -0.00679200000000
C           68.47065799999999        0.09293900000000       -0.01444900000000
C           67.79775200000000        1.24639000000000       -0.07176400000000
C           68.42645300000000        2.56349000000000       -0.13715000000000
C           67.46563000000000        3.47135100000000       -0.18225500000000
C           66.18250800000000        2.77248100000000       -0.14758300000000
N           66.37669400000000        1.36315500000000       -0.07760000000000
C           64.99427000000000        3.38241200000000       -0.17785400000000
C           63.69458500000000        2.68672300000000       -0.14327400000000
C           62.41490300000000        3.39178300000000       -0.17808700000000
C           61.45915300000000        2.48402000000000       -0.13299200000000
N           63.54096699999999        1.40012300000000       -0.07949200000000
C           62.12967900000000        1.18787800000000       -0.06882700000000
C           61.52094900000000       -0.01026600000000       -0.00937800000000
C           62.26876299999999       -1.29256900000000        0.05414700000000
C           61.69735800000000       -2.49147200000000        0.11358000000000
C           62.75944900000000       -3.47862400000000        0.16256000000000
C           63.90580700000000       -2.81884300000000        0.12986800000000
N           63.69333300000000       -1.40809800000000        0.05989600000000
C           65.22110100000000       -3.48481400000000        0.16300000000000
C           66.38797500000000       -2.83736400000000        0.13093300000000
C           67.69579100000000       -3.47352900000000        0.16265500000000
C           68.57681800000000       -2.49026500000000        0.11390200000000
C           67.82991000000000       -1.23199300000000        0.05132300000000
N           66.54856100000001       -1.42550700000000        0.06081400000000
H           69.55376900000000        0.12477600000000       -0.01597900000000
H           69.48787000000000        2.77539100000000       -0.14763800000000
H           67.61929499999999        4.54149700000000       -0.23537800000000
H           64.97457199999999        4.46460100000000       -0.23156700000000
H           62.26402300000000        4.46204100000000       -0.23109900000000
H           60.39747999999999        2.69165100000000       -0.14313500000000
H           60.63772700000000       -2.70697900000000        0.12425900000000
H           62.63964100000000       -4.55318400000000        0.21587600000000
H           65.23773199999999       -4.56760400000000        0.21677200000000
H           67.91952999999999       -4.53115200000000        0.21522600000000
H           69.65247599999999       -2.60781500000000        0.11986200000000
C           30.95078500000000        0.00356200000000       -0.00654300000000
C           29.69851500000000       -0.01561900000000       -0.01089200000000
C           32.26445300000000        0.00279600000000       -0.00461100000000
C           33.76758700000000       -0.01561900000000       -0.01089200000000
C           43.71419299999999        0.00356200000000       -0.00654300000000
C           42.46192200000000       -0.01561900000000       -0.01089200000000
C           45.02786099999999        0.00279600000000       -0.00461100000000
C           46.53099400000000       -0.01561900000000       -0.01089200000000
C           56.47760000000000        0.00356200000000       -0.00654300000000
C           55.22532900000000       -0.01561900000000       -0.01089200000000
C           57.79126800000000        0.00279600000000       -0.00461100000000
C           59.29440200000000       -0.01561900000000       -0.01089200000000
Fe          38.04110500000000       -0.04098500000000       -0.03670000000000
C           34.60765300000000        0.01323700000000        0.01151300000000
C           35.27418600000000        0.88667100000000        0.78874400000000
C           34.64987299999999        1.87866100000000        1.67143300000000
C           35.60824499999999        2.55722800000000        2.27531000000000
C           36.88945400000000        2.03700000000000        1.81244300000000
N           36.69736300000000        0.98142200000000        0.87312900000000
C           38.07183900000000        2.50205100000000        2.22631900000000
C           39.38151400000000        1.99886400000000        1.77858600000000
C           40.64815700000000        2.54379200000000        2.26359500000000
C           41.62033700000000        1.87836000000000        1.67142800000000
N           39.55749099999999        1.03942300000000        0.92473100000000
C           40.97270600000000        0.90070200000000        0.80133000000000
C           41.60175500000000        0.01323700000000        0.01151300000000
C           40.87183199999999       -0.95229800000000       -0.84779200000000
C           41.45857500000000       -1.84309700000000       -1.64066500000000
C           40.40850399999999       -2.59042300000000       -2.30567200000000
C           39.25432400000000       -2.10703200000000       -1.87533900000000
N           39.44863500000000       -1.05090100000000       -0.93540600000000
C           37.94924600000000       -2.61701600000000       -2.32901200000000
C           36.77006300000000       -2.14934500000000       -1.91276200000000
C           35.48295099999999       -2.65129200000000       -2.35929100000000
C           34.57638200000000       -1.93565700000000       -1.72249600000000
C           35.28407200000000       -0.97325000000000       -0.86623800000000
N           36.57157700000000       -1.09533300000000       -0.97494300000000
H           33.59250300000000        2.04938500000000        1.82329800000000
H           35.45298099999999        3.35756100000000        2.98748400000000
H           38.07824799999999        3.31171600000000        2.94681400000000
H           40.77930200000000        3.34621200000000        2.97771400000000
H           42.67814100000000        2.04775000000000        1.82221600000000
H           42.52088000000000       -1.99419900000000       -1.77524200000000
H           40.54109499999999       -3.39300300000000       -3.01994600000000
H           37.95077500000000       -3.42713100000000       -3.04987400000000
H           35.28845000000000       -3.44676200000000       -3.06706000000000
H           33.50702000000000       -2.05663100000000       -1.83006900000000
Fe          50.80451200000000       -0.04098500000000       -0.03670000000000
C           47.37106000000000        0.01323700000000        0.01151300000000
C           48.03759400000000        0.88667100000000        0.78874400000000
C           47.41327999999999        1.87866100000000        1.67143300000000
C           48.37165199999999        2.55722800000000        2.27531000000000
C           49.65286200000000        2.03700000000000        1.81244300000000
N           49.46077100000000        0.98142200000000        0.87312900000000
C           50.83524599999999        2.50205100000000        2.22631900000000
C           52.14492100000000        1.99886400000000        1.77858600000000
C           53.41156400000000        2.54379200000000        2.26359500000000
C           54.38374400000000        1.87836000000000        1.67142800000000
N           52.32089799999999        1.03942300000000        0.92473100000000
C           53.73611400000000        0.90070200000000        0.80133000000000
C           54.36516300000000        0.01323700000000        0.01151300000000
C           53.63523899999999       -0.95229800000000       -0.84779200000000
C           54.22198199999999       -1.84309700000000       -1.64066500000000
C           53.17191099999999       -2.59042300000000       -2.30567200000000
C           52.01773100000000       -2.10703200000000       -1.87533900000000
N           52.21204200000000       -1.05090100000000       -0.93540600000000
C           50.71265300000000       -2.61701600000000       -2.32901200000000
C           49.53347000000000       -2.14934500000000       -1.91276200000000
C           48.24635799999999       -2.65129200000000       -2.35929100000000
C           47.33979000000000       -1.93565700000000       -1.72249600000000
C           48.04747900000000       -0.97325000000000       -0.86623800000000
N           49.33498400000000       -1.09533300000000       -0.97494300000000
H           46.35591099999999        2.04938500000000        1.82329800000000
H           48.21638899999999        3.35756100000000        2.98748400000000
H           50.84165500000000        3.31171600000000        2.94681400000000
H           53.54270900000000        3.34621200000000        2.97771400000000
H           55.44154799999999        2.04775000000000        1.82221600000000
H           55.28428700000000       -1.99419900000000       -1.77524200000000
H           53.30450199999999       -3.39300300000000       -3.01994600000000
H           50.71418200000000       -3.42713100000000       -3.04987400000000
H           48.05185800000000       -3.44676200000000       -3.06706000000000
H           46.27042800000000       -2.05663100000000       -1.83006900000000
154
 energy: -278.790530235058 gnorm: 1.443249030035 xtb: 6.5.1 (b24c23e)
Fe          23.82620266554997        0.02579548953838        0.02685485211699
C           20.45108534305000       -0.08028217223601       -0.07962907086695
C           21.12605589974716       -0.89881053945883       -0.90184168484679
C           20.49434713637208       -1.82736573532014       -1.83449307657112
C           21.45737444886714       -2.47014142995454       -2.48015239816116
C           22.73771293241733       -1.97429155704279       -1.98214830702551
N           22.54217442819606       -0.98192058933689       -0.98537448181692
C           23.93144113730965       -2.40650970400613       -2.41626066957149
C           25.22442712649549       -1.91827805087745       -1.92581622744858
C           26.50428937339689       -2.41493267283052       -2.42439213067933
C           27.46310113235560       -1.77112483774618       -1.77770118319178
N           25.38139225444550       -1.00467558214696       -1.00830790235051
C           26.79328524886095       -0.85668713831435       -0.85948237219644
C           27.40144811540567       -0.00821029382900       -0.00731930720615
C           26.65207176274016        0.89176659183346        0.89644696161005
C           27.22437994011693        1.74649556899824        1.75482294276554
C           26.16775492741858        2.44047390820581        2.45182449895434
C           25.01066614365832        1.97179458558584        1.98116656113093
N           25.22831097782473        0.97795724366816        0.98303268310990
C           23.70372304827195        2.44331326682924        2.45486312424048
C           22.53272649140337        1.98629536969084        1.99593750799980
C           21.22723891327826        2.43662481244666        2.44845172787669
C           20.34298546685829        1.73995445641437        1.74879250819199
C           21.08742469243897        0.85081597326466        0.85557224937438
N           22.37493211760888        0.99065238244658        0.99586211898256
H           19.36773279464929       -0.10552176102599       -0.10490804397652
H           19.43362355363978       -1.97769844002919       -1.98544353465746
H           21.30280266938991       -3.22566073162559       -3.23899965555515
H           23.94724529987101       -3.17133027622301       -3.18443851800862
H           26.65693784370285       -3.16984318402003       -3.18246156739695
H           28.52398072177666       -1.91863859469000       -1.92563279024076
H           28.28371777782213        1.89494289855009        1.90389736286062
H           26.28213043165960        3.19902425607724        3.21367851775311
H           23.68422482231115        3.20905982929159        3.22401454078245
H           21.00255078402277        3.18318635653725        3.19839889868899
H           19.26893493403558        1.82411457661823        1.83349980803408
Fe          65.09526383189004       -0.06132346162066       -0.00683340396600
C           68.47039029407388        0.08878818234495       -0.01424290330265
C           67.79540157420659        1.24755471176471       -0.07182304916975
C           68.42713385685839        2.56201791447769       -0.13707682947851
C           67.46411643281139        3.47194886793612       -0.18228513813659
C           66.18379362843000        2.76998855293468       -0.14745724898144
N           66.37934807128447        1.36530529264040       -0.07770699835683
C           64.98997529229089        3.38187458542358       -0.17782681798578
C           63.69707482826019        2.69077175333845       -0.14348080745091
C           62.41720355946423        3.39359436496347       -0.17817716973541
C           61.45837370117237        2.48219158673799       -0.13290051590841
N           63.54006705840241        1.39739709369545       -0.07936086870102
C           62.12815949804328        1.18799396615268       -0.06881808046476
C           61.51999069646207       -0.01317506318062       -0.00921066202038
C           62.26934373761188       -1.28708261905040        0.05385977813428
C           61.69710770000385       -2.49701107328052        0.11385973105169
C           62.75365101545619       -3.47926686483527        0.16258889188606
C           63.91081825397416       -2.81584049618275        0.12972220032105
N           63.69314624037452       -1.40907286281487        0.05994267270723
C           65.21773724736619       -3.48341637355349        0.16293183453330
C           66.38875978207579       -2.83653334199854        0.13089145549046
C           67.69423919175944       -3.47416563528630        0.16268646071857
C           68.57849323176960       -2.48801830740594        0.11379051453542
C           67.83406348578237       -1.22925063167464        0.05118682450146
N           66.54652624853183       -1.42709236909642        0.06089266935564
H           69.55374607087688        0.12447845082165       -0.01596401314893
H           69.48785535015280        2.77478619850172       -0.14760789022519
H           67.61867607171891        4.54145136151505       -0.23537578329062
H           64.97422957361324        4.46454567766899       -0.23156389996918
H           62.26453748952988        4.46211452590645       -0.23110254482076
H           60.39749147442483        2.69084823630968       -0.14309208474271
H           60.63775581552668       -2.70704195605896        0.12426093918397
H           62.63934521487473       -4.55304861974564        0.21586882259644
H           65.23725110052538       -4.56742867589740        0.21676257483632
H           67.91892790624439       -4.53105449960014        0.21522107432063
H           69.65254382598484       -2.60727649818307        0.11983526410398
C           30.94945250610532        0.00354212062333       -0.00652874659502
C           29.69406624000039       -0.01555883611437       -0.01086750490740
C           32.26426899377242        0.00255000069855       -0.00474215816359
C           33.60624177023693       -0.02192776239553       -0.01607746657185
C           43.74130330410672        0.00314117092155       -0.00680677471849
C           42.58925202198490       -0.02169465225131       -0.01596837952656
C           45.02426270950885        0.00259542336490       -0.00477099054149
C           46.37164759180784       -0.02186588225888       -0.01604484007688
C           56.50206556000303        0.00313997430449       -0.00679486617572
C           55.35472173092843       -0.02164774680270       -0.01592387332383
C           57.80666356085025        0.00268922691883       -0.00467090169353
C           59.28447483820720       -0.01556121027036       -0.01086061096227
Fe          38.04167514562683       -0.04078346651193       -0.03652150670149
C           34.74224506847901        0.01492617581537        0.01253927096418
C           35.29147282525801        0.89477503478333        0.79593250764406
C           34.64872985956958        1.87600158181255        1.66906642454891
C           35.61088233505845        2.55797428340548        2.27597437480994
C           36.88742164671971        2.03581181452021        1.81138549772819
N           36.69484262781790        0.98367360650795        0.87513504827028
C           38.07666742383483        2.50156213011502        2.22588354870160
C           39.37904516883284        2.00349090246643        1.78270355109525
C           40.64428336851078        2.54545716751666        2.26507664659842
C           41.62130430047733        1.87529535686784        1.66870057463224
N           39.55948460062968        1.03773863224673        0.92323579837068
C           40.95695770618197        0.90877167940808        0.80849625243548
C           41.47403502763840        0.01414814716217        0.01197903503542
C           40.85894998133997       -0.95309441993230       -0.84850192407430
C           41.45896007683922       -1.84650119952401       -1.64369613512135
C           40.41414787869552       -2.59095758022796       -2.30614910718830
C           39.24904304513593       -2.10501140043487       -1.87354020903758
N           39.44914813771719       -1.05240610220281       -0.93674372580779
C           37.95285398703587       -2.61584199921524       -2.32796806115315
C           36.76895329530464       -2.14906572706063       -1.91251317297510
C           35.48502762414665       -2.65186285566385       -2.35979902965043
C           34.57427047943168       -1.93316841371497       -1.72028209592789
C           35.29051831807873       -0.97653335157528       -0.86917772494273
N           36.57413900741873       -1.09692349694935       -0.97635336022229
H           33.59240275464608        2.04868247520407        1.82267237044173
H           35.45357245384957        3.35749231607334        2.98742275882023
H           38.07851654953300        3.31168347984918        2.94678528704921
H           40.77878021884927        3.34625908071415        2.97775551422313
H           42.67812021473577        2.04708337826607        1.82162250780668
H           42.52084668495038       -1.99420874759352       -1.77525081595795
H           40.54141312369435       -3.39290180598668       -3.01985613374517
H           37.95118734689289       -3.42699405704642       -3.04975196355681
H           35.28901600581295       -3.44663968935030       -3.06695125398448
H           33.50684435274587       -2.05604465979156       -1.82954762973415
Fe          50.80512990037135       -0.04074635687439       -0.03648830849960
C           47.50499024980567        0.01473802186271        0.01237368044744
C           48.05565917250281        0.89523039357052        0.79633619648331
C           47.41216857161223        1.87600594153231        1.66907114529113
C           48.37423044831547        2.55805413288181        2.27604479251004
C           49.65103861875834        2.03598233034865        1.81153814320972
N           49.45776222356738        0.98363555581070        0.87510344649335
C           50.83960978731605        2.50157485889596        2.22589759964430
C           52.14263233688338        2.00302167211449        1.78228916215179
C           53.40806334385240        2.54540220894829        2.26502678216094
C           54.38469846457838        1.87558402115782        1.66895604727186
N           52.32239254057347        1.03798114630944        0.92344217602142
C           53.72103689209202        0.90804194763866        0.80782963121957
C           54.23645152318628        0.01447647140854        0.01227814557164
C           53.62238840234983       -0.95278925127050       -0.84821378165085
C           54.22234287343235       -1.84667387180481       -1.64385011504912
C           53.17769924664660       -2.59095774177527       -2.30615029643399
C           52.01246671034411       -2.10499274167523       -1.87352454225128
N           52.21272546164886       -1.05241625544894       -0.93675245700155
C           50.71628196432390       -2.61583075701994       -2.32795884568747
C           49.53236784060320       -2.14905171452443       -1.91250122013621
C           48.24842950188015       -2.65186699692225       -2.35980264815751
C           47.33767120895749       -1.93316926068343       -1.72028308725791
C           48.05435679354223       -0.97680737466046       -0.86941716677389
N           49.33739035194701       -1.09702995182981       -0.97644819132286
H           46.35580949941561        2.04868443480993        1.82267425142499
H           48.21697694260244        3.35749681610632        2.98742655889334
H           50.84192092957390        3.31168442447704        2.94678533958255
H           53.54219063437858        3.34625351195179        2.97775117879076
H           55.44151416807772        2.04709873802102        1.82163683893773
H           55.28424346034743       -1.99421601071789       -1.77525742330978
H           53.30482443527438       -3.39289500474402       -3.01984991860413
H           50.71459110172403       -3.42699368808700       -3.04975107409132
H           48.05242081208605       -3.44664043989052       -3.06695189457527
H           46.27024740962950       -2.05603955555971       -1.82954309256651
154
 energy: -279.196218843882 gnorm: 0.888383737494 xtb: 6.5.1 (b24c23e)
Fe          23.83594332332345        0.02041960806197        0.02146048275553
C           20.45246058979689       -0.07042940583764       -0.06973372065050
C           21.13188474861249       -0.89835883964726       -0.90138926616632
C           20.49435698199851       -1.82257079566300       -1.82967809006316
C           21.46437590060892       -2.46972149052226       -2.47973298898860
C           22.73795059184794       -1.96896793083386       -1.97680182733679
N           22.53215524738434       -0.98692296767695       -0.99039736514997
C           23.94587890669122       -2.40384297532243       -2.41358307394175
C           25.21808326724931       -1.92563262660561       -1.93320935454396
C           26.49520169603112       -2.41901885350809       -2.42849883850873
C           27.46284938118289       -1.76714039073857       -1.77369410570383
N           25.38897146930738       -0.99977450106771       -1.00339378521610
C           26.80341377199574       -0.85349680565616       -0.85625508375655
C           27.41272358097064        0.00087004694083        0.00183552402619
C           26.65244194504738        0.88173087664887        0.88638165562002
C           27.22570287109000        1.75765059245789        1.76602804628945
C           26.18528873354745        2.44034112532347        2.45168844827971
C           25.00102050982953        1.96335126266973        1.97268599018247
N           25.22993156383453        0.97751727178512        0.98258913391861
C           23.71719537307256        2.43677887682319        2.44829617376836
C           22.53329371063058        1.98339043847795        1.99301746280459
C           21.23207267769686        2.43472867881462        2.44654438745876
C           20.33646972236612        1.73299105454680        1.74179636750595
C           21.07410076186434        0.84478794001012        0.84951737700135
N           22.37839737050873        0.99316731190029        0.99838420862807
H           19.36857487728696       -0.10262358397499       -0.10199878824538
H           19.43389254144411       -1.97316036903833       -1.98088664555143
H           21.30947351166209       -3.22516765869349       -3.23850620634639
H           23.95174099157663       -3.16999567319650       -3.18309648544574
H           26.65158151241348       -3.17160173561171       -3.18423052067988
H           28.52358769591508       -1.91351958401834       -1.92049285012832
H           28.28471910667982        1.89717653433691        1.90614120320699
H           26.28670027701838        3.19861624864561        3.21326530504923
H           23.69116094916637        3.20553297934979        3.22047006936907
H           21.00874488401114        3.18191932601355        3.19712280526437
H           19.26612723838126        1.82028502989410        1.82965085344139
Fe          65.08548277254103       -0.05371939548512       -0.00721936466387
C           68.46899668013037        0.07481625366114       -0.01355546733315
C           67.78955496068218        1.24694936410972       -0.07180105481772
C           68.42714604467599        2.55526360788443       -0.13674823715772
C           67.45713152607013        3.47136885558983       -0.18226466203944
C           66.18359109873873        2.76234029148002       -0.14708191241620
N           66.38952124317250        1.37258613970236       -0.07806577915854
C           64.97537054834144        3.37800394842702       -0.17763363999409
C           63.70341499731112        2.70113284974029       -0.14401435079997
C           62.42629766899407        3.39939437870301       -0.17847589996538
C           61.45852182317633        2.47668858444623       -0.13262452216150
N           63.53213965549042        1.39010245888020       -0.07901178009319
C           62.11740851247504        1.18354746348194       -0.06859071859001
C           61.50705003433492       -0.02614690744821       -0.00850682370867
C           62.26838896167745       -1.27293940269098        0.05314438346197
C           61.69566571982622       -2.51314398599717        0.11465684592581
C           62.73591441086484       -3.47904158112821        0.16257477960925
C           63.92035771222181       -2.80373093129247        0.12912307673964
N           63.69115542739115       -1.40832083479516        0.05990633940989
C           65.20415986325243       -3.47406504141006        0.16246090548445
C           66.38817417460828       -2.83234328008487        0.13067660210759
C           67.68939290876592       -3.47145967496498        0.16254631709818
C           68.58500427363130       -2.47814726344893        0.11329439036674
C           67.84738843233779       -1.22068229513380        0.05075506987742
N           66.54300090545497       -1.43062238055373        0.06106239838202
H           69.55289525017353        0.12037261888466       -0.01576669380007
H           69.48759837640947        2.76837438196617       -0.14729662642391
H           67.61200035138225        4.54076422252276       -0.23534940101254
H           64.96968364096828        4.46260345207728       -0.23147348600906
H           62.26988844668018        4.46460399127194       -0.23123391807575
H           60.39779228868279        2.68358779375569       -0.14272729389269
H           60.63665436979352       -2.71026705057667        0.12440676809147
H           62.63474669193808       -4.55244086428738        0.21583298165582
H           65.23027707702178       -4.56237872263003        0.21650502523573
H           67.91272662368766       -4.52924756544876        0.21512448384741
H           69.65534840977021       -2.60185169360914        0.11955885273363
C           30.92754365032832        0.00304834327469       -0.00674393880572