      -----------------------------------------------------------      
     |                   =====================                   |     
     |                           x T B                           |     
     |                   =====================                   |     
     |                         S. Grimme                         |     
     |          Mulliken Center for Theoretical Chemistry        |     
     |                    University of Bonn                     |     
      -----------------------------------------------------------      

   * xtb version 6.5.1 (b24c23e) compiled by 'conda@728c89f4b128' on 2022-07-12

   xtb is free software: you can redistribute it and/or modify it under
   the terms of the GNU Lesser General Public License as published by
   the Free Software Foundation, either version 3 of the License, or
   (at your option) any later version.
   
   xtb is distributed in the hope that it will be useful,
   but WITHOUT ANY WARRANTY; without even the implied warranty of
   MERCHANTABILITY or FITNESS FOR A PARTICULAR PURPOSE.  See the
   GNU Lesser General Public License for more details.
   
   Cite this work as:
   * C. Bannwarth, E. Caldeweyher, S. Ehlert, A. Hansen, P. Pracht,
     J. Seibert, S. Spicher, S. Grimme, WIREs Comput. Mol. Sci., 2020, 11,
     e01493. DOI: 10.1002/wcms.1493
   
   for GFN2-xTB:
   * C. Bannwarth, S. Ehlert and S. Grimme., J. Chem. Theory Comput., 2019,
     15, 1652-1671. DOI: 10.1021/acs.jctc.8b01176
   for GFN1-xTB:
   * S. Grimme, C. Bannwarth, P. Shushkov, J. Chem. Theory Comput., 2017,
     13, 1989-2009. DOI: 10.1021/acs.jctc.7b00118
   for GFN0-xTB:
   * P. Pracht, E. Caldeweyher, S. Ehlert, S. Grimme, ChemRxiv, 2019, preprint.
     DOI: 10.26434/chemrxiv.8326202.v1
   for GFN-FF:
   * S. Spicher and S. Grimme, Angew. Chem. Int. Ed., 2020, 59, 15665-15673.
     DOI: 10.1002/anie.202004239
   
   for ALPB and GBSA implicit solvation:
   * S. Ehlert, M. Stahn, S. Spicher, S. Grimme, J. Chem. Theory Comput.,
     2021, 17, 4250-4261. DOI: 10.1021/acs.jctc.1c00471
   
   for DFT-D4:
   * E. Caldeweyher, C. Bannwarth and S. Grimme, J. Chem. Phys., 2017,
     147, 034112. DOI: 10.1063/1.4993215
   * E. Caldeweyher, S. Ehlert, A. Hansen, H. Neugebauer, S. Spicher,
     C. Bannwarth and S. Grimme, J. Chem. Phys., 2019, 150, 154122.
     DOI: 10.1063/1.5090222
   * E. Caldeweyher, J.-M. Mewes, S. Ehlert and S. Grimme, Phys. Chem. Chem. Phys.
     2020, 22, 8499-8512. DOI: 10.1039/D0CP00502A
   
   for sTDA-xTB:
   * S. Grimme and C. Bannwarth, J. Chem. Phys., 2016, 145, 054103.
     DOI: 10.1063/1.4959605
   
   in the mass-spec context:
   * V. Asgeirsson, C. Bauer and S. Grimme, Chem. Sci., 2017, 8, 4879.
     DOI: 10.1039/c7sc00601b
   * J. Koopman and S. Grimme, ACS Omega 2019, 4, 12, 15120-15133.
     DOI: 10.1021/acsomega.9b02011
   
   for metadynamics refer to:
   * S. Grimme, J. Chem. Theory Comput., 2019, 155, 2847-2862
     DOI: 10.1021/acs.jctc.9b00143
   
   for SPH calculations refer to:
   * S. Spicher and S. Grimme, J. Chem. Theory Comput., 2021, 17, 1701-1714
     DOI: 10.1021/acs.jctc.0c01306
   
   with help from (in alphabetical order)
   P. Atkinson, C. Bannwarth, F. Bohle, G. Brandenburg, E. Caldeweyher
   M. Checinski, S. Dohm, S. Ehlert, S. Ehrlich, I. Gerasimov, C. Hölzer
   A. Katbashev, J. Koopman, C. Lavigne, S. Lehtola, F. März, M. Müller,
   F. Musil, H. Neugebauer, J. Pisarek, C. Plett, P. Pracht, F. Pultar,
   J. Seibert, P. Shushkov, S. Spicher, M. Stahn, M. Steiner, T. Strunk,
   J. Stückrath, T. Rose, and J. Unsleber
   
 * started run on 2022/07/30 at 02:32:50.223     

           -------------------------------------------------
          |                Calculation Setup                |
           -------------------------------------------------

          program call               : xtb Ni_Py_C6_2.xyz --gfn 1 --opt -T 48
          hostname                   : cx3-14-19.cx3.hpc.ic.ac.uk
          coordinate file            : Ni_Py_C6_2.xyz
          omp threads                :                     1

   ID    Z sym.   atoms
    1   28 Ni     1, 55
    2    6 C      2-6, 8-11, 13-17, 19-24, 26-29, 31-36, 56-60, 62-65, 67-71,
                  73-78, 80-83, 85-90, 109-114
    3    7 N      7, 12, 18, 25, 30, 37, 61, 66, 72, 79, 84, 91
    4    1 H      38-54, 92-108
########################################################################
[WARNING] Please study the warnings concerning your input carefully
-1- prog_main_parseArguments: Unknown option '-T' provided
########################################################################

           -------------------------------------------------
          |                 G F N 1 - x T B                 |
           -------------------------------------------------

        Reference                      10.1021/acs.jctc.7b00118
      * Hamiltonian:
        H0-scaling (s, p, d)           1.850000    2.250000    2.000000
        zeta-weighting                 0.000000
      * Dispersion:
        s8                             2.400000
        a1                             0.630000
        a2                             5.000000
        s9                             0.000000
      * Repulsion:
        kExp                           1.500000
        rExp                           1.000000
      * Coulomb:
        alpha                          2.000000
        third order                    atomic
        anisotropic                    false
      * Halogen bond correction:
        rad-scale                      1.300000
        damping                        0.440000


          ...................................................
          :                      SETUP                      :
          :.................................................:
          :  # basis functions                 400          :
          :  # atomic orbitals                 398          :
          :  # shells                          230          :
          :  # electrons                       378          :
          :  # halogen bonds                     0          :
          :  max. iterations                   250          :
          :  Hamiltonian                  GFN1-xTB          :
          :  restarted?                      false          :
          :  GBSA solvation                  false          :
          :  PC potential                    false          :
          :  electronic temp.          300.0000000     K    :
          :  accuracy                    1.0000000          :
          :  -> integral cutoff          0.2500000E+02      :
          :  -> integral neglect         0.1000000E-07      :
          :  -> SCF convergence          0.1000000E-05 Eh   :
          :  -> wf. convergence          0.2000000E-04 e    :
          :  Broyden damping             0.4000000          :
          ...................................................

 iter      E             dE          RMSdq      gap      omega  full diag
   1   -206.8202718 -0.206820E+03  0.107E+01    0.24       0.0  T
   2   -199.3424706  0.747780E+01  0.817E+00    0.01       1.0  T
   3   -203.6301182 -0.428765E+01  0.636E+00    0.24       1.0  T
   4   -196.2174373  0.741268E+01  0.468E+00    0.19       1.0  T
   5   -170.5301359  0.256873E+02  0.613E+00    0.05       1.0  T
   6   -204.7230573 -0.341929E+02  0.360E+00    0.23       1.0  T
   7   -206.0284337 -0.130538E+01  0.285E+00    0.25       1.0  T
   8   -207.0539746 -0.102554E+01  0.214E+00    0.24       1.0  T
   9   -207.0582983 -0.432366E-02  0.197E+00    0.29       1.0  T
  10   -207.1534958 -0.951975E-01  0.146E+00    0.36       1.0  T
  11   -207.2558197 -0.102324E+00  0.796E-01    0.51       1.0  T
  12   -207.3034956 -0.476760E-01  0.330E-01    0.80       1.0  T
  13   -207.3152046 -0.117090E-01  0.170E-01    0.80       1.0  T
  14   -207.3166794 -0.147480E-02  0.138E-01    0.76       1.0  T
  15   -207.3171447 -0.465335E-03  0.112E-01    0.77       1.0  T
  16   -207.3178521 -0.707408E-03  0.907E-02    0.78       1.0  T
  17   -207.3183218 -0.469709E-03  0.722E-02    0.79       1.0  T
  18   -207.3188880 -0.566178E-03  0.424E-02    0.80       1.0  T
  19   -207.3190851 -0.197050E-03  0.213E-02    0.80       1.0  T
  20   -207.3191665 -0.813828E-04  0.977E-03    0.81       1.0  T
  21   -207.3191791 -0.126420E-04  0.804E-03    0.81       1.2  T
  22   -207.3191887 -0.961802E-05  0.527E-03    0.81       1.8  T
  23   -207.3191959 -0.719117E-05  0.147E-03    0.81       6.4  T
  24   -207.3191962 -0.301305E-06  0.236E-04    0.81      39.6  T
  25   -207.3191962 -0.857600E-08  0.142E-04    0.81      66.1  T
  26   -207.3191962 -0.312232E-08  0.102E-04    0.81      92.0  T

   *** convergence criteria satisfied after 26 iterations ***

         #    Occupation            Energy/Eh            Energy/eV
      -------------------------------------------------------------
         1        2.0000           -0.7845532             -21.3488
       ...           ...                  ...                  ...
       183        2.0000           -0.4011710             -10.9164
       184        2.0000           -0.4011318             -10.9154
       185        2.0000           -0.4003796             -10.8949
       186        2.0000           -0.4002983             -10.8927
       187        2.0000           -0.3963811             -10.7861
       188        2.0000           -0.3899046             -10.6098
       189        2.0000           -0.3845133             -10.4631 (HOMO)
       190        0.0000           -0.3546658              -9.6509 (LUMO)
       191                         -0.3423020              -9.3145
       192                         -0.3422568              -9.3133
       193                         -0.3360186              -9.1435
       194                         -0.3333113              -9.0699
       ...                                ...                  ...
       398                          2.4199616              65.8505
      -------------------------------------------------------------
                  HL-Gap            0.0298474 Eh            0.8122 eV
             Fermi-level           -0.3695879 Eh          -10.0570 eV

 SCC (total)                   0 d,  0 h,  0 min,  1.971 sec
 SCC setup                      ...        0 min,  0.006 sec (  0.280%)
 Dispersion                     ...        0 min,  0.005 sec (  0.234%)
 classical contributions        ...        0 min,  0.002 sec (  0.084%)
 integral evaluation            ...        0 min,  0.169 sec (  8.562%)
 iterations                     ...        0 min,  1.356 sec ( 68.800%)
 molecular gradient             ...        0 min,  0.420 sec ( 21.311%)
 printout                       ...        0 min,  0.014 sec (  0.726%)

         :::::::::::::::::::::::::::::::::::::::::::::::::::::
         ::                     SUMMARY                     ::
         :::::::::::::::::::::::::::::::::::::::::::::::::::::
         :: total energy            -203.778185244774 Eh    ::
         :: gradient norm              1.316117308141 Eh/a0 ::
         :: HOMO-LUMO gap              0.812190087201 eV    ::
         ::.................................................::
         :: SCC energy              -207.319196221248 Eh    ::
         :: -> electrostatic           0.167290357515 Eh    ::
         :: repulsion energy           3.643150472363 Eh    ::
         :: dispersion energy         -0.102139495888 Eh    ::
         :: halogen bond corr.         0.000000000000 Eh    ::
         :: add. restraining           0.000000000000 Eh    ::
         :: total charge               0.000000001071 e     ::
         :::::::::::::::::::::::::::::::::::::::::::::::::::::

      ----------------------------------------------------------- 
     |                   =====================                   |
     |                        A N C O P T                        |
     |                   =====================                   |
     |               Approximate Normal Coordinate               |
     |                Rational Function Optimizer                |
      ----------------------------------------------------------- 

          ...................................................
          :                      SETUP                      :
          :.................................................:
          :   optimization level            normal          :
          :   max. optcycles                   342          :
          :   ANC micro-cycles                  20          :
          :   degrees of freedom               336          :
          :.................................................:
          :   RF solver                   davidson          :
          :   write xtbopt.log                true          :
          :   linear?                        false          :
          :   energy convergence         0.5000000E-05 Eh   :
          :   grad. convergence          0.1000000E-02 Eh/α :
          :   maximium RF displ.         1.0000000          :
          :   Hlow (freq-cutoff)         0.1000000E-01      :
          :   Hmax (freq-cutoff)         5.0000000          :
          :   S6 in model hess.         20.0000000          :
          ...................................................

generating ANC from model Hessian ...
Using Lindh-Hessian (1995)
 Shifting diagonal of input Hessian by    1.0027503227333763E-002
 Lowest  eigenvalues of input Hessian
    0.010000    0.010007    0.010022    0.000000    0.000000    0.000000
    0.000000    0.000000    0.000000    0.010042    0.010089    0.010220
    0.010245    0.010587    0.010665    0.010729    0.010741    0.010817
 Highest eigenvalues
    2.102481    2.421078    2.556139    2.610049    3.563762    3.583804


........................................................................
.............................. CYCLE    1 ..............................
........................................................................
   1   -207.3191962 -0.207319E+03  0.268E-05    0.81       0.0  T
   2   -207.3191962 -0.379146E-10  0.235E-05    0.81     399.0  T
   3   -207.3191962 -0.120082E-09  0.566E-06    0.81    1654.0  T
     SCC iter.                  ...        0 min,  0.165 sec
     gradient                   ...        0 min,  0.417 sec
 * total energy  :  -203.7781852 Eh     change       -0.1972893E-08 Eh
   gradient norm :     1.3161179 Eh/α   predicted     0.0000000E+00 (-100.00%)
   displ. norm   :     0.4831095 α      lambda       -0.5682564E+00
   maximum displ.:     0.2387195 α      in ANC's #336, #266, #334, ...

........................................................................
.............................. CYCLE    2 ..............................
........................................................................
   1   -207.3736405 -0.207374E+03  0.192E-01    1.03       0.0  T
   2   -207.3775630 -0.392255E-02  0.122E-01    1.04       1.0  T
   3   -207.3793825 -0.181954E-02  0.367E-02    1.04       1.0  T
   4   -207.3793472  0.353759E-04  0.276E-02    1.04       1.0  T
   5   -207.3793756 -0.284643E-04  0.125E-02    1.04       1.0  T
   6   -207.3794197 -0.440928E-04  0.326E-03    1.04       2.9  T
   7   -207.3794227 -0.292838E-05  0.803E-04    1.04      11.7  T
   8   -207.3794227 -0.823970E-07  0.237E-04    1.04      39.6  T
   9   -207.3794228 -0.881684E-08  0.909E-05    1.04     103.0  T
  10   -207.3794228 -0.996607E-09  0.239E-05    1.04     391.5  T
     SCC iter.                  ...        0 min,  0.543 sec
     gradient                   ...        0 min,  0.416 sec
 * total energy  :  -204.0998774 Eh     change       -0.3216921E+00 Eh
   gradient norm :     0.3368115 Eh/α   predicted    -0.3504640E+00 (   8.94%)
   displ. norm   :     0.4425494 α      lambda       -0.9988828E-01
   maximum displ.:     0.1220351 α      in ANC's #155, #100, #266, ...

........................................................................
.............................. CYCLE    3 ..............................
........................................................................
   1   -207.4246466 -0.207425E+03  0.124E-01    1.05       0.0  T
   2   -207.4264952 -0.184866E-02  0.628E-02    1.05       1.0  T
   3   -207.4273592 -0.863936E-03  0.284E-02    1.06       1.0  T
   4   -207.4274841 -0.124920E-03  0.158E-02    1.05       1.0  T
   5   -207.4275177 -0.336601E-04  0.933E-03    1.06       1.0  T
   6   -207.4275413 -0.235636E-04  0.144E-03    1.05       6.5  T
   7   -207.4275416 -0.323774E-06  0.544E-04    1.05      17.2  T
   8   -207.4275416 -0.235188E-07  0.248E-04    1.05      37.8  T
   9   -207.4275417 -0.148401E-07  0.127E-04    1.05      73.6  T
  10   -207.4275417 -0.742585E-08  0.289E-05    1.05     323.5  T
     SCC iter.                  ...        0 min,  0.536 sec
     gradient                   ...        0 min,  0.418 sec
 * total energy  :  -204.1728640 Eh     change       -0.7298664E-01 Eh
   gradient norm :     0.1649449 Eh/α   predicted    -0.5975954E-01 ( -18.12%)
   displ. norm   :     0.4883147 α      lambda       -0.4642856E-01
   maximum displ.:     0.1315940 α      in ANC's #100, #86, #76, ...

........................................................................
.............................. CYCLE    4 ..............................
........................................................................
   1   -207.4798707 -0.207480E+03  0.111E-01    1.13       0.0  T
   2   -207.4810672 -0.119654E-02  0.522E-02    1.12       1.0  T
   3   -207.4817295 -0.662243E-03  0.275E-02    1.12       1.0  T
   4   -207.4819755 -0.246058E-03  0.127E-02    1.12       1.0  T
   5   -207.4819994 -0.238751E-04  0.642E-03    1.12       1.5  T
   6   -207.4820075 -0.806006E-05  0.129E-03    1.12       7.2  T
   7   -207.4820077 -0.272394E-06  0.516E-04    1.12      18.2  T
   8   -207.4820078 -0.344075E-07  0.307E-04    1.12      30.5  T
   9   -207.4820078 -0.306846E-07  0.108E-04    1.12      86.6  T
  10   -207.4820078 -0.512455E-08  0.199E-05    1.12     470.3  T
     SCC iter.                  ...        0 min,  0.529 sec
     gradient                   ...        0 min,  0.417 sec
 * total energy  :  -204.2029512 Eh     change       -0.3008724E-01 Eh
   gradient norm :     0.0543366 Eh/α   predicted    -0.2874986E-01 (  -4.45%)
   displ. norm   :     0.5023389 α      lambda       -0.1359479E-01
   maximum displ.:     0.1651968 α      in ANC's #58, #22, #54, ...

........................................................................
.............................. CYCLE    5 ..............................
........................................................................
   1   -207.4931876 -0.207493E+03  0.410E-02    1.17       0.0  T
   2   -207.4932866 -0.990506E-04  0.213E-02    1.17       1.0  T
   3   -207.4933940 -0.107398E-03  0.119E-02    1.17       1.0  T
   4   -207.4934405 -0.464636E-04  0.620E-03    1.17       1.5  T
   5   -207.4934446 -0.415778E-05  0.230E-03    1.17       4.1  T
   6   -207.4934461 -0.140766E-05  0.492E-04    1.17      19.0  T
   7   -207.4934461 -0.335642E-07  0.199E-04    1.17      47.0  T
   8   -207.4934461 -0.331588E-08  0.125E-04    1.17      74.7  T
     SCC iter.                  ...        0 min,  0.433 sec
     gradient                   ...        0 min,  0.413 sec
 * total energy  :  -204.2129936 Eh     change       -0.1004234E-01 Eh
   gradient norm :     0.0340956 Eh/α   predicted    -0.8513602E-02 ( -15.22%)
   displ. norm   :     0.5641236 α      lambda       -0.8322176E-02
   maximum displ.:     0.2515405 α      in ANC's #22, #58, #29, ...

........................................................................
.............................. CYCLE    6 ..............................
........................................................................
   1   -207.4902844 -0.207490E+03  0.252E-02    1.20       0.0  T
   2   -207.4903119 -0.275504E-04  0.130E-02    1.21       1.0  T
   3   -207.4903468 -0.349139E-04  0.773E-03    1.20       1.2  T
   4   -207.4903587 -0.118960E-04  0.443E-03    1.21       2.1  T
   5   -207.4903606 -0.188742E-05  0.146E-03    1.21       6.4  T
   6   -207.4903616 -0.942765E-06  0.158E-04    1.21      59.2  T
   7   -207.4903616 -0.283410E-08  0.745E-05    1.21     125.6  T
     SCC iter.                  ...        0 min,  0.381 sec
     gradient                   ...        0 min,  0.416 sec
 * total energy  :  -204.2188042 Eh     change       -0.5810656E-02 Eh
   gradient norm :     0.0271157 Eh/α   predicted    -0.5485297E-02 (  -5.60%)
   displ. norm   :     0.5662820 α      lambda       -0.5149650E-02
   maximum displ.:     0.3012341 α      in ANC's #22, #23, #29, ...

........................................................................
.............................. CYCLE    7 ..............................
........................................................................
   1   -207.4811097 -0.207481E+03  0.171E-02    1.22       0.0  T
   2   -207.4811295 -0.197810E-04  0.814E-03    1.23       1.2  T
   3   -207.4811385 -0.902622E-05  0.485E-03    1.23       1.9  T
   4   -207.4811403 -0.180257E-05  0.267E-03    1.23       3.5  T
   5   -207.4811407 -0.427211E-06  0.127E-03    1.23       7.4  T
   6   -207.4811416 -0.812441E-06  0.148E-04    1.23      63.4  T
   7   -207.4811416 -0.381283E-08  0.441E-05    1.23     212.2  T
     SCC iter.                  ...        0 min,  0.378 sec
     gradient                   ...        0 min,  0.414 sec
 * total energy  :  -204.2213827 Eh     change       -0.2578414E-02 Eh
   gradient norm :     0.0247035 Eh/α   predicted    -0.3400558E-02 (  31.89%)
   displ. norm   :     0.4054652 α      lambda       -0.2912950E-02
   maximum displ.:     0.2861006 α      in ANC's #22, #29, #60, ...

........................................................................
.............................. CYCLE    8 ..............................
........................................................................
   1   -207.4779564 -0.207478E+03  0.104E-02    1.23       0.0  T
   2   -207.4779638 -0.744680E-05  0.485E-03    1.23       1.9  T
   3   -207.4779679 -0.412325E-05  0.313E-03    1.23       3.0  T
   4   -207.4779705 -0.259471E-05  0.144E-03    1.23       6.5  T
   5   -207.4779707 -0.127487E-06  0.658E-04    1.23      14.2  T
   6   -207.4779708 -0.127295E-06  0.121E-04    1.23      77.6  T
   7   -207.4779708 -0.121688E-08  0.479E-05    1.23     195.4  T
     SCC iter.                  ...        0 min,  0.374 sec
     gradient                   ...        0 min,  0.415 sec
 * total energy  :  -204.2232550 Eh     change       -0.1872311E-02 Eh
   gradient norm :     0.0154686 Eh/α   predicted    -0.1695923E-02 (  -9.42%)
   displ. norm   :     0.3765234 α      lambda       -0.1399071E-02
   maximum displ.:     0.2812057 α      in ANC's #22, #8, #23, ...

........................................................................
.............................. CYCLE    9 ..............................
........................................................................
   1   -207.4795586 -0.207480E+03  0.914E-03    1.23       0.0  T
   2   -207.4795622 -0.360482E-05  0.547E-03    1.23       1.7  T
   3   -207.4795712 -0.897835E-05  0.275E-03    1.23       3.4  T
   4   -207.4795737 -0.250911E-05  0.131E-03    1.23       7.2  T
   5   -207.4795739 -0.157755E-06  0.489E-04    1.23      19.2  T
   6   -207.4795739 -0.499868E-07  0.108E-04    1.23      86.7  T
   7   -207.4795739 -0.162473E-08  0.375E-05    1.23     249.6  T
     SCC iter.                  ...        0 min,  0.375 sec
     gradient                   ...        0 min,  0.420 sec
 * total energy  :  -204.2243657 Eh     change       -0.1110726E-02 Eh
   gradient norm :     0.0092079 Eh/α   predicted    -0.7987078E-03 ( -28.09%)
   displ. norm   :     0.4565716 α      lambda       -0.1260214E-02
   maximum displ.:     0.3051576 α      in ANC's #22, #8, #23, ...

........................................................................
.............................. CYCLE   10 ..............................
........................................................................
   1   -207.4794965 -0.207479E+03  0.821E-03    1.22       0.0  T
   2   -207.4794980 -0.149728E-05  0.562E-03    1.22       1.7  T
   3   -207.4795076 -0.962639E-05  0.221E-03    1.22       4.2  T
   4   -207.4795089 -0.128272E-05  0.140E-03    1.22       6.7  T
   5   -207.4795092 -0.284431E-06  0.384E-04    1.22      24.4  T
   6   -207.4795092 -0.340947E-07  0.867E-05    1.22     108.0  T
   7   -207.4795092 -0.109199E-08  0.285E-05    1.22     328.4  T
     SCC iter.                  ...        0 min,  0.375 sec
     gradient                   ...        0 min,  0.420 sec
 * total energy  :  -204.2253056 Eh     change       -0.9398659E-03 Eh
   gradient norm :     0.0096660 Eh/α   predicted    -0.7614574E-03 ( -18.98%)
   displ. norm   :     0.4488815 α      lambda       -0.7508536E-03
   maximum displ.:     0.2736554 α      in ANC's #22, #8, #23, ...

........................................................................
.............................. CYCLE   11 ..............................
........................................................................
   1   -207.4752703 -0.207475E+03  0.445E-03    1.22       0.0  T
   2   -207.4752711 -0.805527E-06  0.254E-03    1.22       3.7  T
   3   -207.4752721 -0.979333E-06  0.132E-03    1.22       7.1  T
   4   -207.4752722 -0.138674E-06  0.847E-04    1.22      11.1  T
   5   -207.4752724 -0.142957E-06  0.272E-04    1.22      34.4  T
   6   -207.4752724 -0.305373E-07  0.355E-05    1.22     263.8  T
   7   -207.4752724 -0.173969E-09  0.142E-05    1.22     660.9  T
     SCC iter.                  ...        0 min,  0.381 sec
     gradient                   ...        0 min,  0.416 sec
 * total energy  :  -204.2258490 Eh     change       -0.5434833E-03 Eh
   gradient norm :     0.0091337 Eh/α   predicted    -0.4510740E-03 ( -17.00%)
   displ. norm   :     0.3727211 α      lambda       -0.4337772E-03
   maximum displ.:     0.2166625 α      in ANC's #8, #22, #23, ...

........................................................................
.............................. CYCLE   12 ..............................
........................................................................
   1   -207.4707556 -0.207471E+03  0.388E-03    1.22       0.0  T
   2   -207.4707566 -0.927106E-06  0.229E-03    1.22       4.1  T
   3   -207.4707571 -0.576088E-06  0.110E-03    1.22       8.5  T
   4   -207.4707571  0.102486E-08  0.739E-04    1.22      12.7  T
   5   -207.4707572 -0.839660E-07  0.295E-04    1.22      31.7  T
   6   -207.4707573 -0.399567E-07  0.428E-05    1.22     218.8  T
   7   -207.4707573 -0.530491E-09  0.133E-05    1.22     701.8  T
     SCC iter.                  ...        0 min,  0.378 sec
     gradient                   ...        0 min,  0.416 sec
 * total energy  :  -204.2261554 Eh     change       -0.3063479E-03 Eh
   gradient norm :     0.0065695 Eh/α   predicted    -0.2470206E-03 ( -19.37%)
   displ. norm   :     0.2789561 α      lambda       -0.2859221E-03
   maximum displ.:     0.1869320 α      in ANC's #8, #22, #23, ...

........................................................................
.............................. CYCLE   13 ..............................
........................................................................
   1   -207.4671631 -0.207467E+03  0.358E-03    1.23       0.0  T
   2   -207.4671636 -0.491019E-06  0.241E-03    1.23       3.9  T
   3   -207.4671650 -0.136437E-05  0.109E-03    1.23       8.6  T
   4   -207.4671652 -0.223997E-06  0.775E-04    1.23      12.1  T
   5   -207.4671653 -0.114233E-06  0.183E-04    1.23      51.1  T
   6   -207.4671653 -0.553030E-08  0.376E-05    1.23     249.2  T
     SCC iter.                  ...        0 min,  0.321 sec
     gradient                   ...        0 min,  0.417 sec
 * total energy  :  -204.2263531 Eh     change       -0.1977361E-03 Eh
   gradient norm :     0.0041450 Eh/α   predicted    -0.1540892E-03 ( -22.07%)
   displ. norm   :     0.2264320 α      lambda       -0.2353952E-03
   maximum displ.:     0.1668034 α      in ANC's #8, #17, #18, ...

........................................................................
.............................. CYCLE   14 ..............................
........................................................................
   1   -207.4647956 -0.207465E+03  0.291E-03    1.23       0.0  T
   2   -207.4647958 -0.252691E-06  0.204E-03    1.23       4.6  T
   3   -207.4647969 -0.109282E-05  0.832E-04    1.23      11.3  T
   4   -207.4647971 -0.137395E-06  0.618E-04    1.23      15.2  T
   5   -207.4647971 -0.729167E-07  0.143E-04    1.23      65.6  T
   6   -207.4647971 -0.292911E-08  0.290E-05    1.23     322.7  T
     SCC iter.                  ...        0 min,  0.325 sec
     gradient                   ...        0 min,  0.415 sec
 * total energy  :  -204.2265172 Eh     change       -0.1640438E-03 Eh
   gradient norm :     0.0046720 Eh/α   predicted    -0.1237350E-03 ( -24.57%)
   displ. norm   :     0.2113570 α      lambda       -0.1949558E-03
   maximum displ.:     0.1509119 α      in ANC's #8, #17, #18, ...

........................................................................
.............................. CYCLE   15 ..............................
........................................................................
   1   -207.4636743 -0.207464E+03  0.190E-03    1.23       0.0  T
   2   -207.4636744 -0.127375E-06  0.112E-03    1.23       8.3  T
   3   -207.4636747 -0.282585E-06  0.535E-04    1.23      17.5  T
   4   -207.4636748 -0.682128E-07  0.336E-04    1.23      27.9  T
   5   -207.4636748 -0.191895E-07  0.103E-04    1.23      90.8  T
   6   -207.4636748 -0.238231E-08  0.204E-05    1.23     458.9  T
     SCC iter.                  ...        0 min,  0.323 sec
     gradient                   ...        0 min,  0.413 sec
 * total energy  :  -204.2266544 Eh     change       -0.1372731E-03 Eh
   gradient norm :     0.0056584 Eh/α   predicted    -0.1018335E-03 ( -25.82%)
   displ. norm   :     0.2384470 α      lambda       -0.2017917E-03
   maximum displ.:     0.1614165 α      in ANC's #8, #17, #22, ...

........................................................................
.............................. CYCLE   16 ..............................
........................................................................
   1   -207.4631926 -0.207463E+03  0.195E-03    1.23       0.0  T
   2   -207.4631927 -0.125836E-06  0.128E-03    1.23       7.3  T
   3   -207.4631932 -0.466312E-06  0.545E-04    1.23      17.2  T
   4   -207.4631933 -0.770445E-07  0.339E-04    1.23      27.7  T
   5   -207.4631933 -0.165639E-07  0.122E-04    1.23      76.5  T
   6   -207.4631933 -0.255037E-08  0.239E-05    1.23     392.5  T
     SCC iter.                  ...        0 min,  0.324 sec
     gradient                   ...        0 min,  0.420 sec
 * total energy  :  -204.2267828 Eh     change       -0.1283657E-03 Eh
   gradient norm :     0.0053318 Eh/α   predicted    -0.1066356E-03 ( -16.93%)
   displ. norm   :     0.2005082 α      lambda       -0.1538668E-03
   maximum displ.:     0.1407649 α      in ANC's #8, #17, #22, ...

........................................................................
.............................. CYCLE   17 ..............................
........................................................................
   1   -207.4638568 -0.207464E+03  0.219E-03    1.23       0.0  T
   2   -207.4638568 -0.609556E-07  0.176E-03    1.23       5.3  T
   3   -207.4638579 -0.103888E-05  0.567E-04    1.23      16.5  T
   4   -207.4638579 -0.548933E-07  0.452E-04    1.23      20.7  T
   5   -207.4638580 -0.371998E-07  0.125E-04    1.23      74.7  T
   6   -207.4638580 -0.194885E-08  0.279E-05    1.23     335.7  T
     SCC iter.                  ...        0 min,  0.329 sec
     gradient                   ...        0 min,  0.415 sec
 * total energy  :  -204.2269001 Eh     change       -0.1172457E-03 Eh
   gradient norm :     0.0040792 Eh/α   predicted    -0.8002970E-04 ( -31.74%)
   displ. norm   :     0.2126254 α      lambda       -0.1352683E-03
   maximum displ.:     0.1522730 α      in ANC's #8, #17, #4, ...

........................................................................
.............................. CYCLE   18 ..............................
........................................................................
   1   -207.4661143 -0.207466E+03  0.238E-03    1.23       0.0  T
   2   -207.4661145 -0.123015E-06  0.180E-03    1.23       5.2  T
   3   -207.4661155 -0.991788E-06  0.617E-04    1.23      15.2  T
   4   -207.4661155 -0.747207E-07  0.487E-04    1.23      19.2  T
   5   -207.4661156 -0.439049E-07  0.120E-04    1.23      77.9  T
   6   -207.4661156 -0.187148E-08  0.287E-05    1.23     326.4  T
     SCC iter.                  ...        0 min,  0.324 sec
     gradient                   ...        0 min,  0.415 sec
 * total energy  :  -204.2270077 Eh     change       -0.1076360E-03 Eh
   gradient norm :     0.0035660 Eh/α   predicted    -0.7069397E-04 ( -34.32%)
   displ. norm   :     0.2250883 α      lambda       -0.1151773E-03
   maximum displ.:     0.1623983 α      in ANC's #8, #17, #4, ...

........................................................................
.............................. CYCLE   19 ..............................
........................................................................
   1   -207.4679023 -0.207468E+03  0.173E-03    1.22       0.0  T
   2   -207.4679025 -0.188891E-06  0.933E-04    1.22      10.0  T
   3   -207.4679026 -0.137920E-06  0.462E-04    1.22      20.3  T
   4   -207.4679027 -0.382296E-07  0.304E-04    1.22      30.8  T
   5   -207.4679027 -0.160105E-07  0.100E-04    1.22      93.3  T
   6   -207.4679027 -0.264018E-08  0.204E-05    1.22     460.1  T
     SCC iter.                  ...        0 min,  0.331 sec
     gradient                   ...        0 min,  0.416 sec
 * total energy  :  -204.2271007 Eh     change       -0.9296720E-04 Eh
   gradient norm :     0.0033227 Eh/α   predicted    -0.6050840E-04 ( -34.91%)
   displ. norm   :     0.2226741 α      lambda       -0.9410259E-04
   maximum displ.:     0.1608842 α      in ANC's #8, #17, #4, ...

........................................................................
.............................. CYCLE   20 ..............................
........................................................................
   1   -207.4686297 -0.207469E+03  0.132E-03    1.22       0.0  T
   2   -207.4686298 -0.973868E-07  0.704E-04    1.22      13.3  T
   3   -207.4686299 -0.855810E-07  0.348E-04    1.22      26.9  T
   4   -207.4686299 -0.388141E-07  0.219E-04    1.22      42.7  T
   5   -207.4686299 -0.839529E-08  0.697E-05    1.22     134.4  T
   6   -207.4686299 -0.491781E-09  0.146E-05    1.22     642.5  T
     SCC iter.                  ...        0 min,  0.330 sec
     gradient                   ...        0 min,  0.416 sec
 * total energy  :  -204.2271780 Eh     change       -0.7733554E-04 Eh
   gradient norm :     0.0028625 Eh/α   predicted    -0.4938590E-04 ( -36.14%)
   displ. norm   :     0.2136847 α      lambda       -0.7810982E-04
   maximum displ.:     0.1546580 α      in ANC's #8, #17, #4, ...
 * RMSD in coord.:     0.4365775 α      energy gain  -0.4489928E+00 Eh

generating ANC from model Hessian ...
Using Lindh-Hessian (1995)
 Shifting diagonal of input Hessian by    1.0025696347388773E-002
 Lowest  eigenvalues of input Hessian
    0.010000    0.010005    0.010018    0.000000    0.000000    0.000000
    0.000000    0.000000    0.000000    0.010027    0.010040    0.010221
    0.010241    0.010465    0.010621    0.010709    0.010865    0.010883
 Highest eigenvalues
    2.113107    2.146137    2.146141    2.238139    2.661868    2.990760


........................................................................
.............................. CYCLE   21 ..............................
........................................................................
   1   -207.4684338 -0.207468E+03  0.140E-03    1.22       0.0  T
   2   -207.4684338 -0.773230E-08  0.106E-03    1.22       8.8  T
   3   -207.4684341 -0.371654E-06  0.324E-04    1.22      28.9  T
   4   -207.4684342 -0.330691E-07  0.268E-04    1.22      35.0  T
   5   -207.4684342 -0.140841E-07  0.763E-05    1.22     122.7  T
   6   -207.4684342 -0.619877E-09  0.133E-05    1.22     702.3  T
     SCC iter.                  ...        0 min,  0.324 sec
     gradient                   ...        0 min,  0.416 sec
 * total energy  :  -204.2272420 Eh     change       -0.6401057E-04 Eh
   gradient norm :     0.0023106 Eh/α   predicted     0.0000000E+00 (-100.00%)
   displ. norm   :     0.0350246 α      lambda       -0.2127492E-04
   maximum displ.:     0.0221436 α      in ANC's #9, #8, #13, ...

........................................................................
.............................. CYCLE   22 ..............................
........................................................................
   1   -207.4679841 -0.207468E+03  0.609E-04    1.22       0.0  T
   2   -207.4679841 -0.438857E-08  0.445E-04    1.22      21.0  T
   3   -207.4679842 -0.485530E-07  0.177E-04    1.22      53.0  T
   4   -207.4679842 -0.434815E-08  0.129E-04    1.22      72.6  T
     SCC iter.                  ...        0 min,  0.210 sec
     gradient                   ...        0 min,  0.418 sec
 * total energy  :  -204.2272613 Eh     change       -0.1928816E-04 Eh
   gradient norm :     0.0014297 Eh/α   predicted    -0.1132461E-04 ( -41.29%)
   displ. norm   :     0.2172743 α      lambda       -0.6919434E-04
   maximum displ.:     0.1219562 α      in ANC's #9, #8, #13, ...

........................................................................
.............................. CYCLE   23 ..............................
........................................................................
   1   -207.4652519 -0.207465E+03  0.291E-03    1.22       0.0  T
   2   -207.4652520 -0.784515E-07  0.211E-03    1.22       4.4  T
   3   -207.4652531 -0.116079E-05  0.849E-04    1.22      11.0  T
   4   -207.4652533 -0.129359E-06  0.601E-04    1.22      15.6  T
   5   -207.4652533 -0.662327E-07  0.145E-04    1.22      64.6  T
   6   -207.4652533 -0.348984E-08  0.307E-05    1.22     304.7  T
     SCC iter.                  ...        0 min,  0.324 sec
     gradient                   ...        0 min,  0.417 sec
 * total energy  :  -204.2273022 Eh     change       -0.4090340E-04 Eh
   gradient norm :     0.0038728 Eh/α   predicted    -0.3532865E-04 ( -13.63%)
   displ. norm   :     0.0592662 α      lambda       -0.3435738E-04
   maximum displ.:     0.0368316 α      in ANC's #9, #13, #8, ...

........................................................................
.............................. CYCLE   24 ..............................
........................................................................
   1   -207.4652640 -0.207465E+03  0.462E-04    1.22       0.0  T
   2   -207.4652640 -0.131731E-07  0.253E-04    1.22      37.0  T
   3   -207.4652640 -0.652895E-08  0.145E-04    1.22      64.6  T
   4   -207.4652640 -0.537909E-09  0.879E-05    1.22     106.6  T
     SCC iter.                  ...        0 min,  0.215 sec
     gradient                   ...        0 min,  0.416 sec
 * total energy  :  -204.2273227 Eh     change       -0.2050602E-04 Eh
   gradient norm :     0.0032029 Eh/α   predicted    -0.1723955E-04 ( -15.93%)
   displ. norm   :     0.0915802 α      lambda       -0.5464572E-04
   maximum displ.:     0.0546327 α      in ANC's #9, #13, #5, ...

........................................................................
.............................. CYCLE   25 ..............................
........................................................................
   1   -207.4659597 -0.207466E+03  0.133E-03    1.22       0.0  T
   2   -207.4659598 -0.838378E-07  0.816E-04    1.22      11.5  T
   3   -207.4659599 -0.953455E-07  0.424E-04    1.22      22.1  T
   4   -207.4659599 -0.974839E-08  0.278E-04    1.22      33.7  T
   5   -207.4659599 -0.192490E-07  0.790E-05    1.22     118.6  T
   6   -207.4659599 -0.199546E-08  0.139E-05    1.22     675.3  T
     SCC iter.                  ...        0 min,  0.327 sec
     gradient                   ...        0 min,  0.416 sec
 * total energy  :  -204.2273431 Eh     change       -0.2041051E-04 Eh
   gradient norm :     0.0023375 Eh/α   predicted    -0.2755305E-04 (  34.99%)
   displ. norm   :     0.0925934 α      lambda       -0.5125187E-04
   maximum displ.:     0.0508694 α      in ANC's #9, #8, #13, ...

........................................................................
.............................. CYCLE   26 ..............................
........................................................................
   1   -207.4664957 -0.207466E+03  0.932E-04    1.22       0.0  T
   2   -207.4664957 -0.508924E-07  0.533E-04    1.22      17.6  T
   3   -207.4664958 -0.443213E-07  0.262E-04    1.22      35.7  T
   4   -207.4664958 -0.576938E-08  0.175E-04    1.22      53.6  T
   5   -207.4664958 -0.655803E-08  0.513E-05    1.22     182.7  T
     SCC iter.                  ...        0 min,  0.273 sec
     gradient                   ...        0 min,  0.419 sec
 * total energy  :  -204.2273782 Eh     change       -0.3511746E-04 Eh
   gradient norm :     0.0020428 Eh/α   predicted    -0.2585032E-04 ( -26.39%)
   displ. norm   :     0.1621005 α      lambda       -0.4369304E-04
   maximum displ.:     0.0962439 α      in ANC's #9, #8, #13, ...

........................................................................
.............................. CYCLE   27 ..............................
........................................................................
   1   -207.4664443 -0.207466E+03  0.583E-04    1.22       0.0  T
   2   -207.4664443 -0.305418E-07  0.301E-04    1.22      31.1  T
   3   -207.4664443 -0.823272E-08  0.159E-04    1.22      59.1  T
   4   -207.4664443  0.130879E-08  0.105E-04    1.22      88.9  T
     SCC iter.                  ...        0 min,  0.220 sec
     gradient                   ...        0 min,  0.416 sec
 * total energy  :  -204.2274100 Eh     change       -0.3172884E-04 Eh
   gradient norm :     0.0020184 Eh/α   predicted    -0.2242075E-04 ( -29.34%)
   displ. norm   :     0.2057063 α      lambda       -0.3716196E-04
   maximum displ.:     0.1233995 α      in ANC's #9, #13, #8, ...

........................................................................
.............................. CYCLE   28 ..............................
........................................................................
   1   -207.4659992 -0.207466E+03  0.575E-04    1.22       0.0  T
   2   -207.4659992  0.119584E-08  0.453E-04    1.22      20.7  T
   3   -207.4659993 -0.482490E-07  0.191E-04    1.22      49.1  T
   4   -207.4659993 -0.232617E-08  0.135E-04    1.22      69.2  T
     SCC iter.                  ...        0 min,  0.214 sec
     gradient                   ...        0 min,  0.416 sec
 * total energy  :  -204.2274389 Eh     change       -0.2893302E-04 Eh
   gradient norm :     0.0016952 Eh/α   predicted    -0.1936805E-04 ( -33.06%)
   displ. norm   :     0.2736830 α      lambda       -0.2837525E-04
   maximum displ.:     0.1638234 α      in ANC's #9, #13, #8, ...

........................................................................
.............................. CYCLE   29 ..............................
........................................................................
   1   -207.4656442 -0.207466E+03  0.938E-04    1.22       0.0  T
   2   -207.4656442  0.117697E-07  0.709E-04    1.22      13.2  T
   3   -207.4656443 -0.132084E-06  0.295E-04    1.22      31.8  T
   4   -207.4656444 -0.131396E-07  0.197E-04    1.22      47.6  T
   5   -207.4656444 -0.866217E-08  0.402E-05    1.22     232.9  T
     SCC iter.                  ...        0 min,  0.274 sec
     gradient                   ...        0 min,  0.415 sec
 * total energy  :  -204.2274681 Eh     change       -0.2922693E-04 Eh
   gradient norm :     0.0013477 Eh/α   predicted    -0.1466369E-04 ( -49.83%)
   displ. norm   :     0.1715171 α      lambda       -0.1438746E-04
   maximum displ.:     0.0998046 α      in ANC's #9, #13, #5, ...

........................................................................
.............................. CYCLE   30 ..............................
........................................................................
   1   -207.4659760 -0.207466E+03  0.497E-04    1.22       0.0  T
   2   -207.4659760 -0.826006E-08  0.308E-04    1.22      30.4  T
   3   -207.4659760 -0.212363E-07  0.162E-04    1.22      57.7  T
   4   -207.4659760 -0.602017E-08  0.945E-05    1.22      99.1  T
     SCC iter.                  ...        0 min,  0.213 sec
     gradient                   ...        0 min,  0.416 sec
 * total energy  :  -204.2274849 Eh     change       -0.1677382E-04 Eh
   gradient norm :     0.0011246 Eh/α   predicted    -0.7289264E-05 ( -56.54%)
   displ. norm   :     0.2096184 α      lambda       -0.1809402E-04
   maximum displ.:     0.1157605 α      in ANC's #9, #13, #5, ...

........................................................................
.............................. CYCLE   31 ..............................
........................................................................
   1   -207.4664666 -0.207466E+03  0.631E-04    1.22       0.0  T
   2   -207.4664666 -0.159581E-07  0.368E-04    1.22      25.4  T
   3   -207.4664667 -0.327265E-07  0.196E-04    1.22      47.8  T
   4   -207.4664667 -0.109868E-07  0.103E-04    1.22      91.1  T
     SCC iter.                  ...        0 min,  0.215 sec
     gradient                   ...        0 min,  0.415 sec
 * total energy  :  -204.2275054 Eh     change       -0.2045808E-04 Eh
   gradient norm :     0.0012653 Eh/α   predicted    -0.9224012E-05 ( -54.91%)
   displ. norm   :     0.2024929 α      lambda       -0.1694902E-04
   maximum displ.:     0.1086623 α      in ANC's #13, #9, #11, ...

........................................................................
.............................. CYCLE   32 ..............................
........................................................................
   1   -207.4665285 -0.207467E+03  0.494E-04    1.22       0.0  T
   2   -207.4665285 -0.122344E-07  0.241E-04    1.22      38.9  T
   3   -207.4665285 -0.639088E-08  0.147E-04    1.22      63.6  T
   4   -207.4665285 -0.291300E-08  0.898E-05    1.22     104.4  T
     SCC iter.                  ...        0 min,  0.215 sec
     gradient                   ...        0 min,  0.419 sec
 * total energy  :  -204.2275241 Eh     change       -0.1870605E-04 Eh
   gradient norm :     0.0011996 Eh/α   predicted    -0.8632182E-05 ( -53.85%)
   displ. norm   :     0.1541024 α      lambda       -0.1264532E-04
   maximum displ.:     0.0831900 α      in ANC's #13, #11, #5, ...

........................................................................
.............................. CYCLE   33 ..............................
........................................................................
   1   -207.4667889 -0.207467E+03  0.463E-04    1.22       0.0  T
   2   -207.4667889 -0.111669E-07  0.226E-04    1.22      41.5  T
   3   -207.4667889 -0.447614E-08  0.139E-04    1.22      67.6  T
   4   -207.4667889 -0.105160E-10  0.701E-05    1.22     133.6  T
     SCC iter.                  ...        0 min,  0.210 sec
     gradient                   ...        0 min,  0.415 sec
 * total energy  :  -204.2275380 Eh     change       -0.1397035E-04 Eh
   gradient norm :     0.0008413 Eh/α   predicted    -0.6392812E-05 ( -54.24%)
   displ. norm   :     0.1178412 α      lambda       -0.9537115E-05
   maximum displ.:     0.0626848 α      in ANC's #13, #11, #5, ...

........................................................................
.............................. CYCLE   34 ..............................
........................................................................
   1   -207.4668102 -0.207467E+03  0.471E-04    1.22       0.0  T
   2   -207.4668102 -0.119197E-07  0.249E-04    1.22      37.7  T
   3   -207.4668102 -0.954020E-08  0.139E-04    1.22      67.3  T
   4   -207.4668102 -0.233013E-08  0.880E-05    1.22     106.4  T
     SCC iter.                  ...        0 min,  0.209 sec
     gradient                   ...        0 min,  0.421 sec
 * total energy  :  -204.2275485 Eh     change       -0.1042688E-04 Eh
   gradient norm :     0.0006202 Eh/α   predicted    -0.4800820E-05 ( -53.96%)
   displ. norm   :     0.1024879 α      lambda       -0.8232014E-05
   maximum displ.:     0.0550944 α      in ANC's #11, #13, #5, ...

........................................................................
.............................. CYCLE   35 ..............................
........................................................................
   1   -207.4665696 -0.207467E+03  0.512E-04    1.22       0.0  T
   2   -207.4665697 -0.147939E-07  0.273E-04    1.22      34.3  T
   3   -207.4665697 -0.138478E-07  0.149E-04    1.22      62.6  T
   4   -207.4665697 -0.471883E-08  0.871E-05    1.22     107.5  T
     SCC iter.                  ...        0 min,  0.212 sec
     gradient                   ...        0 min,  0.419 sec
 * total energy  :  -204.2275574 Eh     change       -0.8970864E-05 Eh
   gradient norm :     0.0007559 Eh/α   predicted    -0.4137346E-05 ( -53.88%)
   displ. norm   :     0.1069560 α      lambda       -0.8140665E-05
   maximum displ.:     0.0568524 α      in ANC's #11, #13, #5, ...

........................................................................
.............................. CYCLE   36 ..............................
........................................................................
   1   -207.4663550 -0.207466E+03  0.426E-04    1.22       0.0  T
   2   -207.4663550 -0.110726E-07  0.227E-04    1.22      41.2  T
   3   -207.4663550 -0.913309E-08  0.125E-04    1.22      74.8  T
   4   -207.4663550 -0.280554E-08  0.720E-05    1.22     130.2  T
     SCC iter.                  ...        0 min,  0.211 sec
     gradient                   ...        0 min,  0.421 sec
 * total energy  :  -204.2275668 Eh     change       -0.9328323E-05 Eh
   gradient norm :     0.0010177 Eh/α   predicted    -0.4092005E-05 ( -56.13%)
   displ. norm   :     0.1395391 α      lambda       -0.1029561E-04
   maximum displ.:     0.0737926 α      in ANC's #11, #13, #5, ...

........................................................................
.............................. CYCLE   37 ..............................
........................................................................
   1   -207.4660998 -0.207466E+03  0.385E-04    1.22       0.0  T
   2   -207.4660998 -0.955626E-08  0.217E-04    1.22      43.2  T
   3   -207.4660998 -0.604595E-08  0.115E-04    1.22      81.8  T
   4   -207.4660998 -0.565478E-09  0.681E-05    1.22     137.5  T
     SCC iter.                  ...        0 min,  0.209 sec
     gradient                   ...        0 min,  0.423 sec
 * total energy  :  -204.2275780 Eh     change       -0.1125535E-04 Eh
   gradient norm :     0.0010885 Eh/α   predicted    -0.5196618E-05 ( -53.83%)
   displ. norm   :     0.1667520 α      lambda       -0.1163603E-04
   maximum displ.:     0.0904615 α      in ANC's #11, #13, #5, ...

........................................................................
.............................. CYCLE   38 ..............................
........................................................................
   1   -207.4658241 -0.207466E+03  0.363E-04    1.22       0.0  T
   2   -207.4658241 -0.849766E-08  0.184E-04    1.22      50.8  T
   3   -207.4658241 -0.289276E-08  0.116E-04    1.22      80.6  T
     SCC iter.                  ...        0 min,  0.159 sec
     gradient                   ...        0 min,  0.420 sec
 * total energy  :  -204.2275894 Eh     change       -0.1138474E-04 Eh
   gradient norm :     0.0008996 Eh/α   predicted    -0.5891793E-05 ( -48.25%)
   displ. norm   :     0.1398467 α      lambda       -0.8936563E-05
   maximum displ.:     0.0792267 α      in ANC's #11, #13, #5, ...

........................................................................
.............................. CYCLE   39 ..............................
........................................................................
   1   -207.4660176 -0.207466E+03  0.385E-04    1.22       0.0  T
   2   -207.4660176 -0.108365E-07  0.185E-04    1.22      50.6  T
   3   -207.4660176 -0.224327E-08  0.958E-05    1.22      97.8  T
     SCC iter.                  ...        0 min,  0.156 sec
     gradient                   ...        0 min,  0.422 sec
 * total energy  :  -204.2275990 Eh     change       -0.9616794E-05 Eh
   gradient norm :     0.0005867 Eh/α   predicted    -0.4507867E-05 ( -53.13%)
   displ. norm   :     0.1463159 α      lambda       -0.8676677E-05
   maximum displ.:     0.0861494 α      in ANC's #13, #11, #5, ...

........................................................................
.............................. CYCLE   40 ..............................
........................................................................
   1   -207.4665894 -0.207467E+03  0.491E-04    1.22       0.0  T
   2   -207.4665894 -0.175130E-07  0.202E-04    1.22      46.4  T
   3   -207.4665894 -0.249889E-08  0.130E-04    1.22      71.9  T
   4   -207.4665894 -0.315822E-09  0.796E-05    1.22     117.7  T
     SCC iter.                  ...        0 min,  0.208 sec
     gradient                   ...        0 min,  0.418 sec
 * total energy  :  -204.2276086 Eh     change       -0.9545026E-05 Eh
   gradient norm :     0.0006788 Eh/α   predicted    -0.4380946E-05 ( -54.10%)
   displ. norm   :     0.1605248 α      lambda       -0.8084429E-05
   maximum displ.:     0.0956198 α      in ANC's #13, #11, #5, ...

........................................................................
.............................. CYCLE   41 ..............................
........................................................................
   1   -207.4669619 -0.207467E+03  0.439E-04    1.22       0.0  T
   2   -207.4669619 -0.980211E-08  0.218E-04    1.22      43.0  T
   3   -207.4669619 -0.436120E-08  0.128E-04    1.22      73.0  T
   4   -207.4669619 -0.142697E-08  0.742E-05    1.22     126.2  T
     SCC iter.                  ...        0 min,  0.207 sec
     gradient                   ...        0 min,  0.422 sec
 * total energy  :  -204.2276180 Eh     change       -0.9393241E-05 Eh
   gradient norm :     0.0008211 Eh/α   predicted    -0.4090239E-05 ( -56.46%)
   displ. norm   :     0.1691779 α      lambda       -0.7502435E-05
   maximum displ.:     0.1009482 α      in ANC's #13, #11, #5, ...

........................................................................
.............................. CYCLE   42 ..............................
........................................................................
   1   -207.4672900 -0.207467E+03  0.411E-04    1.22       0.0  T
   2   -207.4672900 -0.458698E-09  0.272E-04    1.22      34.5  T
   3   -207.4672900 -0.152347E-07  0.138E-04    1.22      68.1  T
   4   -207.4672900 -0.349945E-08  0.832E-05    1.22     112.6  T
     SCC iter.                  ...        0 min,  0.210 sec
     gradient                   ...        0 min,  0.420 sec
 * total energy  :  -204.2276273 Eh     change       -0.9345035E-05 Eh
   gradient norm :     0.0007391 Eh/α   predicted    -0.3801559E-05 ( -59.32%)
   displ. norm   :     0.2117918 α      lambda       -0.8612868E-05
   maximum displ.:     0.1264090 α      in ANC's #13, #11, #5, ...
 * RMSD in coord.:     0.2622095 α      energy gain  -0.4492995E-03 Eh

generating ANC from model Hessian ...
Using Lindh-Hessian (1995)
 Shifting diagonal of input Hessian by    1.0021530359679034E-002
 Lowest  eigenvalues of input Hessian
    0.010000    0.010009    0.010015    0.000000    0.000000    0.000000
    0.000000    0.000000    0.000000    0.010037    0.010109    0.010223
    0.010263    0.010585    0.010643    0.010722    0.010794    0.010823
 Highest eigenvalues
    2.111277    2.148721    2.148735    2.235238    2.658107    2.987300


........................................................................
.............................. CYCLE   43 ..............................
........................................................................
   1   -207.4677324 -0.207468E+03  0.477E-04    1.22       0.0  T
   2   -207.4677324 -0.383375E-08  0.311E-04    1.22      30.1  T
   3   -207.4677324 -0.201063E-07  0.148E-04    1.22      63.4  T
   4   -207.4677324 -0.428494E-08  0.100E-04    1.22      93.5  T
     SCC iter.                  ...        0 min,  0.212 sec
     gradient                   ...        0 min,  0.422 sec
 * total energy  :  -204.2276376 Eh     change       -0.1032376E-04 Eh
   gradient norm :     0.0005139 Eh/α   predicted     0.0000000E+00 (-100.00%)
   displ. norm   :     0.0190503 α      lambda       -0.2587098E-06
   maximum displ.:     0.0079580 α      in ANC's #23, #14, #8, ...

........................................................................
.............................. CYCLE   44 ..............................
........................................................................
   1   -207.4680447 -0.207468E+03  0.233E-04    1.22       0.0  T
   2   -207.4680447 -0.226132E-08  0.120E-04    1.22      78.3  T
   3   -207.4680447 -0.767955E-10  0.785E-05    1.22     119.2  T
     SCC iter.                  ...        0 min,  0.160 sec
     gradient                   ...        0 min,  0.422 sec
 * total energy  :  -204.2276381 Eh     change       -0.4410372E-06 Eh
   gradient norm :     0.0006670 Eh/α   predicted    -0.1315274E-05 ( 198.22%)
   displ. norm   :     0.0620973 α      lambda       -0.9351159E-05
   maximum displ.:     0.0291328 α      in ANC's #23, #14, #11, ...

   *** GEOMETRY OPTIMIZATION CONVERGED AFTER 44 ITERATIONS ***

------------------------------------------------------------------------
 total energy gain   :        -0.4494528 Eh     -282.0359 kcal/mol
 total RMSD          :         0.5707263 a0        0.3020 Å
 total power (kW/mol):       -26.8190503 (step)  -29.4116 (real)
------------------------------------------------------------------------

 ANCopt (total)                0 d,  0 h,  0 min, 40.122 sec
 optimizer setup                ...        0 min,  0.001 sec (  0.002%)
 model hessian                  ...        0 min,  0.179 sec (  0.445%)
 ANC generation                 ...        0 min,  0.078 sec (  0.194%)
 coordinate transformation      ...        0 min,  0.009 sec (  0.024%)
 single point calculation       ...        0 min, 39.773 sec ( 99.132%)
 optimization log               ...        0 min,  0.030 sec (  0.074%)
 hessian update                 ...        0 min,  0.008 sec (  0.020%)
 rational function              ...        0 min,  0.023 sec (  0.056%)

================
 final structure:
================
114
 xtb: 6.5.1 (b24c23e)
Ni          11.09377592842670       -0.04829880756778       -0.02004250843224
C            7.69956091008631       -0.06795825210601       -0.07477757432939
C            8.35253319669648       -1.28220763241309       -0.04375315017041
C            7.67293761054162       -2.54147185789392       -0.01763192597063
C            8.62553423274331       -3.49359895278483        0.11295781745748
C            9.88798341823692       -2.81507486546881        0.15379491162996
N            9.71074601669381       -1.45851448642437        0.04441328058589
C           11.10284181579216       -3.45549281539462        0.35744365932758
C           11.10686598214298       -4.92783676514400        0.53416833878093
C           11.47082071828099       -5.50873992586079        1.74772248871754
C           11.45288016744221       -6.88966461184546        1.86679282586172
N           11.10769052449442       -7.69805284193196        0.86996937209904
C           10.76347154506522       -7.15153886268357       -0.29156815097361
C           10.74500213561969       -5.78221476207710       -0.50597682666279
C           12.31414200151664       -2.77941542254081        0.39546078459170
C           13.57879483767472       -3.43036227483704        0.55789960623327
C           14.52954165762970       -2.47382591587691        0.43456820552537
N           12.48966256020423       -1.42967013733946        0.18684909856224
C           13.84453482978706       -1.24341810639338        0.19579169011397
C           14.50811749764633       -0.03778962558673       -0.04699166013761
C           13.83298264790672        1.16718252955576       -0.25902380858686
C           14.50448371514077        2.40140499237588       -0.51544583380384
C           13.54749849470955        3.35742278728747       -0.58391686156989
C           12.29343172514261        2.70319272432348       -0.36360695865148
N           12.47898396225950        1.34959010287698       -0.19505436990258
C           11.07584092376313        3.36848555368232       -0.31580221928379
C           11.06950403889970        4.84452906846188       -0.44285523241816
C           10.42844082934841        5.47524533364474       -1.50842620865139
C           10.45196399813328        6.85871113916098       -1.58780488836193
N           11.05772953054082        7.62555188857170       -0.68699352720787
C           11.66980122116400        7.03223150816077        0.33274324030023
C           11.70532656333921        5.65623508116126        0.49560452848727
C            9.86330734166823        2.70735926285979       -0.16975511427970
C            8.59498737003602        3.37229240149671       -0.09803043145829
C            7.64873889658027        2.40622576716377       -0.04560758161332
C            8.33995430310628        1.15341154342476       -0.06778773010379
N            9.69803838981926        1.34590796377974       -0.11560953863619
H            6.61594419329748       -0.07368429243616       -0.09124218575055
H            6.60275821576553       -2.65930947183259       -0.07819407668030
H            8.49806107993695       -4.56123341834813        0.18778880362638
H           11.75051017698635       -4.88766529319034        2.59028322059390
H           11.72712606990974       -7.36627702618376        2.80338171015228
H           10.48968141952133       -7.83827618052933       -1.08718306962172
H           10.46642363352378       -5.38081983023868       -1.47300632086133
H           13.71142984488680       -4.48630067366521        0.72751418986643
H           15.60117608513389       -2.57726922243093        0.48913202795796
H           15.57165825308531        2.50651026229101       -0.62554532379843
H           13.66890543936027        4.41126572267840       -0.77370492179342
H            9.93197260206157        4.88951404865435       -2.27287019077765
H            9.96349949898046        7.37234129559528       -2.41070372350242
H           12.15396550708863        7.68565824076954        1.05259040117544
H           12.20793449161857        5.21689202402968        1.34899720371373
H            8.46008397776790        4.44156228899435       -0.08663482277226
H            6.57689228128603        2.51149725339620        0.00822016129269
Ni          27.09632531032919        0.03986019755517       -0.03298228454019
C           30.49061906692521        0.04336473529764       -0.08720844643914
C           29.83793307774247        1.21410110392390       -0.41141401794577
C           30.51770268118338        2.42661660546308       -0.75198100799856
C           29.56506124878016        3.37524417857947       -0.90571945631664
C           28.30245366858446        2.73768486798462       -0.67079619488918
N           28.47963537201207        1.40810389015414       -0.38026522935576
C           27.08745455079972        3.40941655125837       -0.66350070491759
C           27.08338665674496        4.86943562941800       -0.92306752876115
C           26.71849964613100        5.77836469832010        0.06857249971542
C           26.73620846278818        7.13414247479635       -0.21950427148353
N           27.08206304969589        7.61742872908862       -1.40825511391329
C           27.42728712819495        6.75655294946873       -2.36011588417800
C           27.44605898421337        5.38411871660619       -2.16659871863918
C           25.87611074284894        2.77355857644489       -0.43084928452042
C           24.61144426230570        3.44357439106946       -0.46505456423470
C           23.66069573176071        2.49256458908721       -0.30463616114473
N           25.70057166633181        1.42150527100809       -0.23762033329439
C           24.34568052191643        1.24589411805438       -0.17508579918779
C           23.68195463081985        0.02181819964081       -0.05687566687819
C           24.35693687817625       -1.19280006555002        0.09068628252915
C           23.68534800275519       -2.44821484525994        0.20403979195743
C           24.64229163700487       -3.38294533835481        0.41621066671785
C           25.89637772731559       -2.69296730811026        0.43700489791012
N           25.71090283350048       -1.34877986919841        0.20505345304892
C           27.11394308420722       -3.31562095118727        0.67623078800040
C           27.12034655436509       -4.76494354131972        0.98330194771599
C           27.76197294056244       -5.67783099648021        0.14714930991547
C           27.73864234871018       -7.02470561553695        0.47305906569790
N           27.13253026604234       -7.49696096917183        1.55752292469188
C           26.51988563726529       -6.63316436192085        2.36067137654774
C           26.48414206783583       -5.26920169027606        2.11679903761863
C           28.32640897671806       -2.64039590218102        0.62480202038185
C           29.59454486933840       -3.25570588119849        0.88773464923802
C           30.54087415514756       -2.31578653829353        0.65880618060202
C           29.84988673743915       -1.12343471985597        0.27325120910898
N           28.49181315084478       -1.32177066255853        0.28173435248141
H           31.57425941485948        0.04417775022497       -0.10308469816125
H           31.58799338388177        2.52201858468889       -0.84263363571234
H           29.69258030776101        4.41844431467450       -1.14482055336805
H           26.43824810543693        5.42936701603947        1.05524737376578
H           26.46117000268624        7.86267555143474        0.53757008591422
H           27.70162777839073        7.18202379566943       -3.32099303556593
H           27.72546903499779        4.71869532080524       -2.97469021149484
H           24.47881504252454        4.50316769182964       -0.61007688587792
H           22.58906068985858        2.60737942509727       -0.28253880074691
H           22.61816435795437       -2.58073984129236        0.12926673117124
H           24.52079598389432       -4.44645821081107        0.54081056523255
H           28.25876439017164       -5.33928146033139       -0.75424934310618
H           28.22759491477732       -7.75510005433775       -0.16492486244104
H           26.03544134338867       -7.04943043496126        3.23907803684651
H           25.98109943142936       -4.60102416165694        2.80556841715094
H           29.72926038930428       -4.27565955792932        1.20899505070380
H           31.61263716297114       -2.40068992692142        0.74213945942755
C           19.70886252442722       -0.00671932407998       -0.09329136287095
C           18.48120360519535       -0.02189819691839       -0.09080354688587
C           17.13625494792857       -0.02673588915188       -0.08319421743036
C           15.91309548176355       -0.03446061234789       -0.06892271120463
C           21.05381715723986       -0.00014578673357       -0.08785784533450
C           22.27696991359509        0.01205533692138       -0.07631062513767

 Bond Distances (Angstroems)
 ---------------------------
Ni1-N7=1.9763        Ni1-N18=1.9747       Ni1-N25=1.9757       Ni1-N37=1.9751       C2-C3=1.3790         C2-C36=1.3791        
C2-H38=1.0838        C3-C2=1.3790         C3-C4=1.4312         C3-N7=1.3724         C4-C3=1.4312         C4-C5=1.3532         
C4-H39=1.0783        C5-C4=1.3532         C5-C6=1.4338         C5-H40=1.0778        C6-C5=1.4338         C6-N7=1.3725         
C6-C8=1.3883         N7-Ni1=1.9763        N7-C3=1.3724         N7-C6=1.3725         C8-C6=1.3883         C8-C9=1.4829         
C8-C15=1.3877        C9-C8=1.4829         C9-C10=1.3938        C9-C14=1.3938        C10-C9=1.3938        C10-C11=1.3862       
C10-H41=1.0835       C11-C10=1.3862       C11-N12=1.3290       C11-H42=1.0861       N12-C11=1.3290       N12-C13=1.3290       
C13-N12=1.3290       C13-C14=1.3861       C13-H43=1.0861       C14-C9=1.3938        C14-C13=1.3861       C14-H44=1.0835       
C15-C8=1.3877        C15-C16=1.4316       C15-N18=1.3770       C16-C15=1.4316       C16-C17=1.3543       C16-H45=1.0777       
C17-C16=1.3543       C17-C19=1.4283       C17-H46=1.0780       N18-Ni1=1.9747       N18-C15=1.3770       N18-C19=1.3676       
C19-C17=1.4283       C19-N18=1.3676       C19-C20=1.3974       C20-C19=1.3974       C20-C21=1.3974       C20-C112=1.4052      
C21-C20=1.3974       C21-C22=1.4283       C21-N25=1.3677       C22-C21=1.4283       C22-C23=1.3544       C22-H47=1.0780       
C23-C22=1.3544       C23-C24=1.4315       C23-H48=1.0777       C24-C23=1.4315       C24-N25=1.3766       C24-C26=1.3883       
N25-Ni1=1.9757       N25-C21=1.3677       N25-C24=1.3766       C26-C24=1.3883       C26-C27=1.4815       C26-C33=1.3888       
C27-C26=1.4815       C27-C28=1.3943       C27-C32=1.3942       C28-C27=1.3943       C28-C29=1.3859       C28-H49=1.0835       
C29-C28=1.3859       C29-N30=1.3291       C29-H50=1.0861       N30-C29=1.3291       N30-C31=1.3291       C31-N30=1.3291       
C31-C32=1.3861       C31-H51=1.0861       C32-C27=1.3942       C32-C31=1.3861       C32-H52=1.0835       C33-C26=1.3888       
C33-C34=1.4338       C33-N37=1.3725       C34-C33=1.4338       C34-C35=1.3533       C34-H53=1.0778       C35-C34=1.3533       
C35-C36=1.4310       C35-H54=1.0783       C36-C2=1.3791        C36-C35=1.4310       C36-N37=1.3725       N37-Ni1=1.9751       
N37-C33=1.3725       N37-C36=1.3725       H38-C2=1.0838        H39-C4=1.0783        H40-C5=1.0778        H41-C10=1.0835       
H42-C11=1.0861       H43-C13=1.0861       H44-C14=1.0835       H45-C16=1.0777       H46-C17=1.0780       H47-C22=1.0780       
H48-C23=1.0777       H49-C28=1.0835       H50-C29=1.0861       H51-C31=1.0861       H52-C32=1.0835       H53-C34=1.0778       
H54-C35=1.0783       Ni55-N61=1.9764      Ni55-N72=1.9746      Ni55-N79=1.9760      Ni55-N91=1.9750      C56-C57=1.3790       
C56-C90=1.3791       C56-H92=1.0838       C57-C56=1.3790       C57-C58=1.4312       C57-N61=1.3724       C58-C57=1.4312       
C58-C59=1.3532       C58-H93=1.0784       C59-C58=1.3532       C59-C60=1.4338       C59-H94=1.0778       C60-C59=1.4338       
C60-N61=1.3724       C60-C62=1.3883       N61-Ni55=1.9764      N61-C57=1.3724       N61-C60=1.3724       C62-C60=1.3883       
C62-C63=1.4829       C62-C69=1.3877       C63-C62=1.4829       C63-C64=1.3938       C63-C68=1.3938       C64-C63=1.3938       
C64-C65=1.3862       C64-H95=1.0835       C65-C64=1.3862       C65-N66=1.3290       C65-H96=1.0861       N66-C65=1.3290       
N66-C67=1.3290       C67-N66=1.3290       C67-C68=1.3861       C67-H97=1.0861       C68-C63=1.3938       C68-C67=1.3861       
C68-H98=1.0835       C69-C62=1.3877       C69-C70=1.4316       C69-N72=1.3770       C70-C69=1.4316       C70-C71=1.3543       
C70-H99=1.0777       C71-C70=1.3543       C71-C73=1.4283       C71-H100=1.0780      N72-Ni55=1.9746      N72-C69=1.3770       
N72-C73=1.3677       C73-C71=1.4283       C73-N72=1.3677       C73-C74=1.3975       C74-C73=1.3975       C74-C75=1.3974       
C74-C114=1.4052      C75-C74=1.3974       C75-C76=1.4283       C75-N79=1.3677       C76-C75=1.4283       C76-C77=1.3544       
C76-H101=1.0780      C77-C76=1.3544       C77-C78=1.4315       C77-H102=1.0777      C78-C77=1.4315       C78-N79=1.3766       
C78-C80=1.3883       N79-Ni55=1.9760      N79-C75=1.3677       N79-C78=1.3766       C80-C78=1.3883       C80-C81=1.4815       
C80-C87=1.3888       C81-C80=1.4815       C81-C82=1.3943       C81-C86=1.3942       C82-C81=1.3943       C82-C83=1.3859       
C82-H103=1.0835      C83-C82=1.3859       C83-N84=1.3291       C83-H104=1.0861      N84-C83=1.3291       N84-C85=1.3291       
C85-N84=1.3291       C85-C86=1.3861       C85-H105=1.0861      C86-C81=1.3942       C86-C85=1.3861       C86-H106=1.0835      
C87-C80=1.3888       C87-C88=1.4338       C87-N91=1.3725       C88-C87=1.4338       C88-C89=1.3533       C88-H107=1.0778      
C89-C88=1.3533       C89-C90=1.4310       C89-H108=1.0783      C90-C56=1.3791       C90-C89=1.4310       C90-N91=1.3725       
N91-Ni55=1.9750      N91-C87=1.3725       N91-C90=1.3725       H92-C56=1.0838       H93-C58=1.0784       H94-C59=1.0778       
H95-C64=1.0835       H96-C65=1.0861       H97-C67=1.0861       H98-C68=1.0835       H99-C70=1.0777       H100-C71=1.0780      
H101-C76=1.0780      H102-C77=1.0777      H103-C82=1.0835      H104-C83=1.0861      H105-C85=1.0861      H106-C86=1.0835      
H107-C88=1.0778      H108-C89=1.0783      C109-C110=1.2278     C109-C113=1.3450     C110-C109=1.2278     C110-C111=1.3450     
C111-C110=1.3450     C111-C112=1.2233     C112-C20=1.4052      C112-C111=1.2233     C113-C109=1.3450     C113-C114=1.2233     
C114-C74=1.4052      C114-C113=1.2233     
 C  H  Rav=1.0815 sigma=0.0035  Rmin=1.0777  Rmax=1.0861    34
 C  C  Rav=1.3923 sigma=0.0487  Rmin=1.2233  Rmax=1.4829    67
 N  C  Rav=1.3579 sigma=0.0206  Rmin=1.3290  Rmax=1.3770    24
 Ni N  Rav=1.9755 sigma=0.0007  Rmin=1.9746  Rmax=1.9764     8

 selected bond angles (degree)
 --------------------
N18-Ni1-N7= 89.55              N25-Ni1-N7=176.77              N25-Ni1-N18= 90.49             N37-Ni1-N7= 90.62              
N37-Ni1-N18=176.75             N37-Ni1-N25= 89.53             C36-C2-C3=124.04               H38-C2-C3=117.98               
H38-C2-C36=117.97              C4-C3-C2=123.39                N7-C3-C2=125.67                N7-C3-C4=110.84                
C5-C4-C3=106.65                H39-C4-C3=124.50               H39-C4-C5=128.84               C6-C5-C4=106.83                
H40-C5-C4=128.35               H40-C5-C6=124.81               N7-C6-C5=110.60                C8-C6-C5=123.80                
C8-C6-N7=125.50                C3-N7-Ni1=126.78               C6-N7-Ni1=128.14               C6-N7-C3=105.06                
C9-C8-C6=118.55                C15-C8-C6=122.89               C15-C8-C9=118.56               C10-C9-C8=121.22               
C14-C9-C8=121.26               C14-C9-C10=117.52              C11-C10-C9=119.12              H41-C10-C9=120.37              
H41-C10-C11=120.50             

 selected dihedral angles (degree)
 ---------------------------------
C4-C3-C2-C36=178.38           C4-C3-C2-H38=359.30           N7-C3-C2-C36=  2.39           N7-C3-C2-H38=183.31           
C5-C4-C3-C2=184.61            C5-C4-C3-N7=  1.13            H39-C4-C3-C2=  3.77           H39-C4-C3-N7=180.29           
C6-C5-C4-C3=359.47            C6-C5-C4-H39=180.35           H40-C5-C4-C3=178.73           H40-C5-C4-H39=359.62          
N7-C6-C5-C4=359.79            N7-C6-C5-H40=180.49           C8-C6-C5-C4=176.23            C8-C6-C5-H40=356.93           
C3-N7-Ni1-N18=180.00          C3-N7-Ni1-N25=270.75          C3-N7-Ni1-N37=  3.25          C6-N7-Ni1-N18=358.34          
C6-N7-Ni1-N25= 89.09          C6-N7-Ni1-N37=181.59          Ni1-N7-C3-C2=353.84           Ni1-N7-C3-C4=177.42           
C6-N7-C3-C2=175.19            C6-N7-C3-C4=358.78            Ni1-N7-C6-C5=182.26           Ni1-N7-C6-C8=  5.89           
C3-N7-C6-C5=  0.88            C3-N7-C6-C8=184.52            C9-C8-C6-C5=  0.47            C9-C8-C6-N7=176.37            
C15-C8-C6-C5=180.10           C15-C8-C6-N7=356.00           C10-C9-C8-C6=246.40           C10-C9-C8-C15= 66.75          
C14-C9-C8-C6= 66.30           C14-C9-C8-C15=246.65          C11-C10-C9-C8=179.69          C11-C10-C9-C14=359.78         
H41-C10-C9-C8=  0.53          H41-C10-C9-C14=180.63         
           -------------------------------------------------
          |                Final Singlepoint                |
           -------------------------------------------------

          ...................................................
          :                      SETUP                      :
          :.................................................:
          :  # basis functions                 400          :
          :  # atomic orbitals                 398          :
          :  # shells                          230          :
          :  # electrons                       378          :
          :  # halogen bonds                     0          :
          :  max. iterations                   250          :
          :  Hamiltonian                  GFN1-xTB          :
          :  restarted?                      false          :
          :  GBSA solvation                  false          :
          :  PC potential                    false          :
          :  electronic temp.          300.0000000     K    :
          :  accuracy                    1.0000000          :
          :  -> integral cutoff          0.2500000E+02      :
          :  -> integral neglect         0.1000000E-07      :
          :  -> SCF convergence          0.1000000E-05 Eh   :
          :  -> wf. convergence          0.2000000E-04 e    :
          :  Broyden damping             0.4000000          :
          ...................................................

 iter      E             dE          RMSdq      gap      omega  full diag
   1   -207.4680447 -0.207468E+03  0.462E-05    1.22       0.0  T
   2   -207.4680447  0.545953E-09  0.539E-05    1.22     173.9  T
   3   -207.4680447 -0.148813E-08  0.114E-05    1.22     825.1  T

   *** convergence criteria satisfied after 3 iterations ***

         #    Occupation            Energy/Eh            Energy/eV
      -------------------------------------------------------------
         1        2.0000           -0.7869891             -21.4151
       ...           ...                  ...                  ...
       183        2.0000           -0.4034634             -10.9788
       184        2.0000           -0.4024088             -10.9501
       185        2.0000           -0.4024049             -10.9500
       186        2.0000           -0.4023362             -10.9481
       187        2.0000           -0.4023361             -10.9481
       188        2.0000           -0.4012588             -10.9188
       189        2.0000           -0.3905916             -10.6285 (HOMO)
       190                         -0.3457474              -9.4083 (LUMO)
       191                         -0.3364652              -9.1557
       192                         -0.3364649              -9.1557
       193                         -0.3348632              -9.1121
       194                         -0.3348459              -9.1116
       ...                                ...                  ...
       398                          1.5753007              42.8661
      -------------------------------------------------------------
                  HL-Gap            0.0448442 Eh            1.2203 eV
             Fermi-level           -0.3681695 Eh          -10.0184 eV

 SCC (total)                   0 d,  0 h,  0 min,  0.778 sec
[...]
   111C    -0.01460 -0.01537   1.074  2.941  0.000
   112C    -0.02830 -0.03007   1.102  2.926  0.000
   113C    -0.01460 -0.01537   1.074  2.941  0.000
   114C    -0.02830 -0.03006   1.102  2.926  0.000

Wiberg/Mayer (AO) data.
largest (>0.10) Wiberg bond orders for each atom

 ---------------------------------------------------------------------------
     #   Z sym  total        # sym  WBO       # sym  WBO       # sym  WBO
 ---------------------------------------------------------------------------
     1  28 Ni   3.010 --    37 N    0.664     7 N    0.664    18 N    0.661
                            25 N    0.661
     2   6 C    3.935 --     3 C    1.364    36 C    1.364    38 H    0.970
     3   6 C    3.923 --     2 C    1.364     7 N    1.214     4 C    1.174
     4   6 C    3.960 --     5 C    1.651     3 C    1.174    39 H    0.975
     5   6 C    3.963 --     4 C    1.651     6 C    1.176    40 H    0.972
     6   6 C    3.920 --     8 C    1.324     7 N    1.221     5 C    1.176
     7   7 N    3.402 --     6 C    1.221     3 C    1.214     1 Ni   0.664
     8   6 C    3.939 --    15 C    1.330     6 C    1.324     9 C    1.022
     9   6 C    3.986 --    10 C    1.395    14 C    1.395     8 C    1.022
                            12 N    0.107
    10   6 C    3.988 --    11 C    1.441     9 C    1.395    41 H    0.973
                            13 C    0.109
    11   6 C    3.972 --    10 C    1.441    12 N    1.416    42 H    0.972
                            14 C    0.109
    12   7 N    3.032 --    11 C    1.416    13 C    1.416     9 C    0.107
    13   6 C    3.972 --    14 C    1.441    12 N    1.416    43 H    0.972
                            10 C    0.109
    14   6 C    3.988 --    13 C    1.441     9 C    1.395    44 H    0.973
                            11 C    0.109
    15   6 C    3.915 --     8 C    1.330    18 N    1.205    16 C    1.183
    16   6 C    3.959 --    17 C    1.637    15 C    1.183    45 H    0.973
    17   6 C    3.961 --    16 C    1.637    19 C    1.190    46 H    0.973
    18   7 N    3.407 --    19 C    1.240    15 C    1.205     1 Ni   0.661
    19   6 C    3.903 --    20 C    1.263    18 N    1.240    17 C    1.190
    20   6 C    3.944 --    21 C    1.263    19 C    1.263   112 C    1.184
    21   6 C    3.903 --    20 C    1.263    25 N    1.239    22 C    1.191
    22   6 C    3.961 --    23 C    1.636    21 C    1.191    47 H    0.973
    23   6 C    3.959 --    22 C    1.636    24 C    1.183    48 H    0.973
    24   6 C    3.915 --    26 C    1.328    25 N    1.207    23 C    1.183
    25   7 N    3.406 --    21 C    1.239    24 C    1.207     1 Ni   0.661
    26   6 C    3.939 --    24 C    1.328    33 C    1.322    27 C    1.027
    27   6 C    3.986 --    32 C    1.393    28 C    1.393    26 C    1.027
                            30 N    0.107
    28   6 C    3.987 --    29 C    1.442    27 C    1.393    49 H    0.973
                            31 C    0.109
    29   6 C    3.972 --    28 C    1.442    30 N    1.416    50 H    0.972
                            32 C    0.109
    30   7 N    3.030 --    31 C    1.416    29 C    1.416    27 C    0.107
    31   6 C    3.972 --    32 C    1.442    30 N    1.416    51 H    0.972
                            28 C    0.109
    32   6 C    3.987 --    31 C    1.442    27 C    1.393    52 H    0.973
                            29 C    0.109
    33   6 C    3.920 --    26 C    1.322    37 N    1.221    34 C    1.176
    34   6 C    3.963 --    35 C    1.649    33 C    1.176    53 H    0.972
    35   6 C    3.960 --    34 C    1.649    36 C    1.175    54 H    0.975
    36   6 C    3.923 --     2 C    1.364    37 N    1.213    35 C    1.175
    37   7 N    3.402 --    33 C    1.221    36 C    1.213     1 Ni   0.664
    38   1 H    1.000 --     2 C    0.970
    39   1 H    0.997 --     4 C    0.975
    40   1 H    1.004 --     5 C    0.972
    41   1 H    1.003 --    10 C    0.973
    42   1 H    1.013 --    11 C    0.972
    43   1 H    1.013 --    13 C    0.972
    44   1 H    1.003 --    14 C    0.973
    45   1 H    1.004 --    16 C    0.973
    46   1 H    1.002 --    17 C    0.973
    47   1 H    1.002 --    22 C    0.973
    48   1 H    1.004 --    23 C    0.973
    49   1 H    1.004 --    28 C    0.973
    50   1 H    1.013 --    29 C    0.972
    51   1 H    1.013 --    31 C    0.972
    52   1 H    1.004 --    32 C    0.973
    53   1 H    1.004 --    34 C    0.972
    54   1 H    0.997 --    35 C    0.975
    55  28 Ni   3.010 --    91 N    0.664    61 N    0.664    72 N    0.661
                            79 N    0.661
    56   6 C    3.935 --    57 C    1.364    90 C    1.364    92 H    0.970
    57   6 C    3.923 --    56 C    1.364    61 N    1.214    58 C    1.174
    58   6 C    3.960 --    59 C    1.651    57 C    1.174    93 H    0.975
    59   6 C    3.963 --    58 C    1.651    60 C    1.176    94 H    0.972
    60   6 C    3.920 --    62 C    1.324    61 N    1.221    59 C    1.176
    61   7 N    3.402 --    60 C    1.221    57 C    1.214    55 Ni   0.664
    62   6 C    3.939 --    69 C    1.330    60 C    1.324    63 C    1.022
    63   6 C    3.986 --    64 C    1.395    68 C    1.395    62 C    1.022
                            66 N    0.107
    64   6 C    3.988 --    65 C    1.441    63 C    1.395    95 H    0.973
                            67 C    0.109
    65   6 C    3.972 --    64 C    1.441    66 N    1.416    96 H    0.972
                            68 C    0.109
    66   7 N    3.032 --    65 C    1.416    67 C    1.416    63 C    0.107
    67   6 C    3.972 --    68 C    1.441    66 N    1.416    97 H    0.972
                            64 C    0.109
    68   6 C    3.988 --    67 C    1.441    63 C    1.395    98 H    0.973
                            65 C    0.109
    69   6 C    3.915 --    62 C    1.330    72 N    1.205    70 C    1.183
    70   6 C    3.959 --    71 C    1.637    69 C    1.183    99 H    0.973
    71   6 C    3.961 --    70 C    1.637    73 C    1.190   100 H    0.973
    72   7 N    3.407 --    73 C    1.240    69 C    1.205    55 Ni   0.661
    73   6 C    3.903 --    74 C    1.263    72 N    1.240    71 C    1.190
    74   6 C    3.944 --    75 C    1.263    73 C    1.263   114 C    1.184
    75   6 C    3.903 --    74 C    1.263    79 N    1.239    76 C    1.191
    76   6 C    3.961 --    77 C    1.636    75 C    1.191   101 H    0.973
    77   6 C    3.959 --    76 C    1.636    78 C    1.183   102 H    0.973
    78   6 C    3.915 --    80 C    1.328    79 N    1.207    77 C    1.183
    79   7 N    3.406 --    75 C    1.239    78 C    1.207    55 Ni   0.661
    80   6 C    3.939 --    78 C    1.328    87 C    1.322    81 C    1.027
    81   6 C    3.986 --    86 C    1.393    82 C    1.393    80 C    1.027
                            84 N    0.107
    82   6 C    3.987 --    83 C    1.442    81 C    1.393   103 H    0.973
                            85 C    0.109
    83   6 C    3.972 --    82 C    1.442    84 N    1.416   104 H    0.972
                            86 C    0.109
    84   7 N    3.030 --    85 C    1.416    83 C    1.416    81 C    0.107
    85   6 C    3.972 --    86 C    1.442    84 N    1.416   105 H    0.972
                            82 C    0.109
    86   6 C    3.987 --    85 C    1.442    81 C    1.393   106 H    0.973
                            83 C    0.109
    87   6 C    3.920 --    80 C    1.322    91 N    1.221    88 C    1.176
    88   6 C    3.963 --    89 C    1.649    87 C    1.176   107 H    0.972
    89   6 C    3.960 --    88 C    1.649    90 C    1.175   108 H    0.975
    90   6 C    3.923 --    56 C    1.364    91 N    1.213    89 C    1.175
    91   7 N    3.402 --    87 C    1.221    90 C    1.213    55 Ni   0.664
    92   1 H    1.000 --    56 C    0.970
    93   1 H    0.997 --    58 C    0.975
    94   1 H    1.004 --    59 C    0.972
    95   1 H    1.003 --    64 C    0.973
    96   1 H    1.013 --    65 C    0.972
    97   1 H    1.013 --    67 C    0.972
    98   1 H    1.003 --    68 C    0.973
    99   1 H    1.004 --    70 C    0.973
   100   1 H    1.002 --    71 C    0.973
   101   1 H    1.002 --    76 C    0.973
   102   1 H    1.004 --    77 C    0.973
   103   1 H    1.004 --    82 C    0.973
   104   1 H    1.013 --    83 C    0.972
   105   1 H    1.013 --    85 C    0.972
   106   1 H    1.004 --    86 C    0.973
   107   1 H    1.004 --    88 C    0.972
   108   1 H    0.997 --    89 C    0.975
   109   6 C    3.928 --   110 C    2.376   113 C    1.330   112 C    0.191
   110   6 C    3.928 --   109 C    2.376   111 C    1.330   114 C    0.191
   111   6 C    3.938 --   112 C    2.457   110 C    1.330
   112   6 C    3.892 --   111 C    2.457    20 C    1.184   109 C    0.191
   113   6 C    3.938 --   114 C    2.457   109 C    1.330
   114   6 C    3.892 --   113 C    2.457    74 C    1.184   110 C    0.191
 ---------------------------------------------------------------------------

Topologies differ in total number of bonds
Writing topology from bond orders to xtbtopo.mol

 dipole moment from electron density (au)
     X       Y       Z   
   0.0000  -0.0059  -0.0397  total (Debye):    0.102

           -------------------------------------------------
          |                Geometry Summary                 |
           -------------------------------------------------

      molecular mass/u    :     1112.4456876
   center of mass at/Å    :       19.0950362      -0.0011518      -0.0055540
  moments of inertia/u·Å² :        0.1682394E+05   0.7116230E+05   0.8733963E+05
rotational constants/cm⁻¹ :        0.1002002E-02   0.2368899E-03   0.1930124E-03

 * 117 selected distances

     #   Z          #   Z                                           value/Å
     2   6 C        3   6 C                                       1.3790349
     3   6 C        4   6 C                                       1.4311811
     4   6 C        5   6 C                                       1.3531594
     5   6 C        6   6 C                                       1.4338204
     3   6 C        7   7 N                                       1.3724430
     6   6 C        7   7 N                                       1.3724554
     6   6 C        8   6 C                                       1.3883405
     9   6 C       10   6 C                                       1.3937810
    10   6 C       11   6 C                                       1.3861648
    11   6 C       12   7 N                                       1.3290240
    12   7 N       13   6 C                                       1.3290350
     9   6 C       14   6 C                                       1.3938470
    13   6 C       14   6 C                                       1.3861317
     8   6 C       15   6 C                                       1.3877228
    15   6 C       16   6 C                                       1.4315954
    16   6 C       17   6 C                                       1.3542866
    15   6 C       18   7 N                                       1.3770036
    17   6 C       19   6 C                                       1.4283390
    18   7 N       19   6 C                                       1.3676436
    19   6 C       20   6 C                                       1.3974355
    20   6 C       21   6 C                                       1.3973986
    21   6 C       22   6 C                                       1.4282757
    22   6 C       23   6 C                                       1.3544295
    23   6 C       24   6 C                                       1.4315157
    21   6 C       25   7 N                                       1.3677271
    24   6 C       25   7 N                                       1.3766191
    24   6 C       26   6 C                                       1.3883182
    27   6 C       28   6 C                                       1.3943482
    28   6 C       29   6 C                                       1.3859409
    29   6 C       30   7 N                                       1.3290817
    30   7 N       31   6 C                                       1.3291066
    27   6 C       32   6 C                                       1.3942181
    31   6 C       32   6 C                                       1.3860564
    26   6 C       33   6 C                                       1.3887605
    33   6 C       34   6 C                                       1.4338467 (max)
    34   6 C       35   6 C                                       1.3532995
     2   6 C       36   6 C                                       1.3790928
    35   6 C       36   6 C                                       1.4310187
    33   6 C       37   7 N                                       1.3725143
    36   6 C       37   7 N                                       1.3724921
     2   6 C       38   1 H                                       1.0837570
     4   6 C       39   1 H                                       1.0783495
     5   6 C       40   1 H                                       1.0778185
    10   6 C       41   1 H                                       1.0834522
    11   6 C       42   1 H                                       1.0860797
    13   6 C       43   1 H                                       1.0860813
    14   6 C       44   1 H                                       1.0834529
    16   6 C       45   1 H                                       1.0776675
    17   6 C       46   1 H                                       1.0779974
    22   6 C       47   1 H                                       1.0779753
    23   6 C       48   1 H                                       1.0776569 (min)
    28   6 C       49   1 H                                       1.0834836
    29   6 C       50   1 H                                       1.0860830
    31   6 C       51   1 H                                       1.0860763
    32   6 C       52   1 H                                       1.0834742
    34   6 C       53   1 H                                       1.0778066
    35   6 C       54   1 H                                       1.0783482
    56   6 C       57   6 C                                       1.3790331
    57   6 C       58   6 C                                       1.4311767
    58   6 C       59   6 C                                       1.3531651
    59   6 C       60   6 C                                       1.4338232
    57   6 C       61   7 N                                       1.3724359
    60   6 C       61   7 N                                       1.3724385
    60   6 C       62   6 C                                       1.3883443
    63   6 C       64   6 C                                       1.3937880
    64   6 C       65   6 C                                       1.3861586
    65   6 C       66   7 N                                       1.3290259
    66   7 N       67   6 C                                       1.3290320
    63   6 C       68   6 C                                       1.3938436
    67   6 C       68   6 C                                       1.3861376
    62   6 C       69   6 C                                       1.3877306
    69   6 C       70   6 C                                       1.4315980
    70   6 C       71   6 C                                       1.3542809
    69   6 C       72   7 N                                       1.3770257
    71   6 C       73   6 C                                       1.4283470
    72   7 N       73   6 C                                       1.3676550
    73   6 C       74   6 C                                       1.3974505
    74   6 C       75   6 C                                       1.3973809
    75   6 C       76   6 C                                       1.4282672
    76   6 C       77   6 C                                       1.3544294
    77   6 C       78   6 C                                       1.4315147
    75   6 C       79   7 N                                       1.3677111
    78   6 C       79   7 N                                       1.3766055
    78   6 C       80   6 C                                       1.3883056
    81   6 C       82   6 C                                       1.3943456
    82   6 C       83   6 C                                       1.3859412
    83   6 C       84   7 N                                       1.3290821
    84   7 N       85   6 C                                       1.3291071
    81   6 C       86   6 C                                       1.3942197
    85   6 C       86   6 C                                       1.3860541
    80   6 C       87   6 C                                       1.3887576
    87   6 C       88   6 C                                       1.4338441
    88   6 C       89   6 C                                       1.3532908
    56   6 C       90   6 C                                       1.3790904
    89   6 C       90   6 C                                       1.4310204
    87   6 C       91   7 N                                       1.3725257
    90   6 C       91   7 N                                       1.3725062
    56   6 C       92   1 H                                       1.0837570
    58   6 C       93   1 H                                       1.0783514
    59   6 C       94   1 H                                       1.0778206
    64   6 C       95   1 H                                       1.0834518
    65   6 C       96   1 H                                       1.0860794
    67   6 C       97   1 H                                       1.0860817
    68   6 C       98   1 H                                       1.0834530
    70   6 C       99   1 H                                       1.0776642
    71   6 C      100   1 H                                       1.0779947
    76   6 C      101   1 H                                       1.0779773
    77   6 C      102   1 H                                       1.0776577
    82   6 C      103   1 H                                       1.0834839
    83   6 C      104   1 H                                       1.0860821
    85   6 C      105   1 H                                       1.0860765
    86   6 C      106   1 H                                       1.0834743
    88   6 C      107   1 H                                       1.0778044
    89   6 C      108   1 H                                       1.0783456
   109   6 C      110   6 C                                       1.2277554
   111   6 C      112   6 C                                       1.2232672
   113   6 C      114   6 C                                       1.2232682

 * 3 distinct bonds (by element types)

   Z      Z             #   av. dist./Å        max./Å        min./Å
   1 H    6 C          34     1.0815034     1.0860830     1.0776569
   6 C    6 C          59     1.3874066     1.4338467     1.2232672
   6 C    7 N          24     1.3579290     1.3770257     1.3290240


optimized geometry written to: xtbopt.xyz


           -------------------------------------------------
          | TOTAL ENERGY             -204.227638063119 Eh   |
          | GRADIENT NORM               0.000666937256 Eh/α |
          | HOMO-LUMO GAP               1.220272780665 eV   |
           -------------------------------------------------

------------------------------------------------------------------------
 * finished run on 2022/07/30 at 02:33:33.302     
------------------------------------------------------------------------
 total:
 * wall-time:     0 d,  0 h,  0 min, 43.079 sec
 *  cpu-time:     0 d,  0 h,  0 min, 42.723 sec
 * ratio c/w:     0.992 speedup
 SCF:
 * wall-time:     0 d,  0 h,  0 min,  1.973 sec
 *  cpu-time:     0 d,  0 h,  0 min,  1.958 sec
 * ratio c/w:     0.992 speedup
 ANC optimizer:
 * wall-time:     0 d,  0 h,  0 min, 40.912 sec
 *  cpu-time:     0 d,  0 h,  0 min, 40.578 sec
 * ratio c/w:     0.992 speedup

