282
 energy: -450.994037332937 gnorm: 0.741909452630 xtb: 6.5.1 (b24c23e)
Co          44.63646599999999       -0.02519300000000       -0.02677100000000
C           41.27777699999999        0.17806800000000       -0.26208100000000
C           41.94209700000000        1.27890400000000        0.09939400000000
C           41.29244800000000        2.52239300000000        0.49684000000000
C           42.23516200000000        3.39823200000000        0.78699200000000
C           43.54088399999999        2.75746500000000        0.57968100000000
N           43.36171800000000        1.40890800000000        0.14660800000000
C           44.73605600000000        3.35297300000000        0.76595400000000
C           46.03137300000000        2.66151100000000        0.53813200000000
C           47.32814300000000        3.34815400000000        0.53902900000000
C           48.26132600000000        2.44518600000000        0.32196200000000
N           46.16424300000000        1.38726300000000        0.32618700000000
C           47.56770000000000        1.17018300000000        0.17867000000000
C           48.15928900000000       -0.01992900000000       -0.02031800000000
C           47.40072100000000       -1.28640300000000       -0.16142700000000
C           47.95790899999999       -2.49092800000000       -0.14511200000000
C           46.91067300000000       -3.45651100000000       -0.40508700000000
C           45.77650500000000       -2.78218000000000       -0.55989000000000
C           44.47455200000000       -3.40672900000000       -0.91852300000000
C           44.44948600000000       -4.84852300000000       -1.25308800000000
C           44.38300900000000       -5.26157500000000       -2.59134800000000
C           44.37836700000000       -6.62748500000000       -2.91085200000000
C           44.27258499999999       -7.06735500000000       -4.34117900000000
C           44.40617300000000       -7.57952200000000       -1.87989800000000
C           44.46323599999999       -7.17443000000000       -0.53805700000000
C           44.52998100000000       -8.20501700000000        0.55047400000000
C           44.49477399999999       -5.80603400000000       -0.22958600000000
C           43.32140700000000       -2.71233000000000       -0.93238100000000
C           42.00073699999999       -3.25277100000000       -1.25090300000000
C           41.14548300000000       -2.26826600000000       -1.06146600000000
C           41.90916600000000       -1.10032700000000       -0.62586000000000
N           43.17938500000000       -1.34731900000000       -0.54669200000000
N           45.99672400000000       -1.37696500000000       -0.41290700000000
C           44.78558799999999        4.76323800000000        1.21065400000000
C           44.47010499999999        5.79872900000000        0.31887400000000
C           44.51309100000000        7.13500400000000        0.74216200000000
C           44.19294600000000        8.24402000000000       -0.21638000000000
C           44.91372700000000        7.43311500000000        2.05318900000000
C           45.25475500000000        6.40455800000000        2.94423500000000
C           45.63708599999999        6.72532800000000        4.35889600000000
C           45.17363900000000        5.06967100000000        2.52221700000000
H           40.19482699999999        0.21504700000000       -0.28036000000000
H           40.22783299999999        2.70894600000000        0.55621700000000
H           42.04922899999999        4.41091700000000        1.11962200000000
H           47.50806699999999        4.40506300000000        0.68549200000000
H           49.32356400000000        2.64270000000000        0.26722000000000
H           49.00354800000000       -2.72239100000000        0.00507200000000
H           47.04623500000000       -4.52619700000000       -0.49153100000000
H           44.33892400000000       -4.52016700000000       -3.38115400000000
H           44.77508400000000       -8.04711800000000       -4.48873600000000
H           43.20226400000000       -7.16381000000000       -4.61870400000000
H           44.75710900000000       -6.32870000000000       -5.01531000000000
H           44.38503699999999       -8.63598700000000       -2.12139300000000
H           44.36141800000000       -7.74979700000000        1.55079000000000
H           43.75121200000000       -8.97995300000000        0.38699700000000
H           45.52916000000000       -8.68905700000000        0.54129800000000
H           44.55154100000000       -5.48231800000000        0.80383500000000
H           41.74688700000000       -4.25612500000000       -1.56600100000000
H           40.07388300000000       -2.32977800000000       -1.19863400000000
H           44.18607900000000        5.56322500000000       -0.70016000000000
H           43.70404300000000        9.08787300000000        0.31565200000000
H           43.50175500000000        7.89213200000000       -1.01132400000000
H           45.13022700000000        8.60768600000000       -0.68631600000000
H           44.95954300000000        8.46593100000000        2.37926700000000
H           44.72762500000000        6.73255900000000        4.99390800000000
H           46.12721500000000        7.72021600000000        4.41744600000000
H           46.34840900000000        5.96812200000000        4.75370800000000
H           45.41570200000000        4.26872700000000        3.21113000000000
Co          88.57815700000000       -0.01226500000000       -0.01705800000000
C           91.93684500000001        0.15716400000000       -0.27778600000000
C           91.27252600000000       -0.49645700000000       -1.23449200000000
C           91.92217499999998       -1.22433500000000       -2.31819900000000
C           90.97945999999999       -1.74682100000000       -3.07865300000000
C           89.67373900000000       -1.36933700000000       -2.52092000000000
N           89.85290499999999       -0.57799200000000       -1.34621500000000
C           88.47856700000000       -1.71401500000000       -3.04103900000000
C           87.18325000000000       -1.30272100000000       -2.44032500000000
C           85.88648000000001       -1.49471800000000       -3.09957800000000
C           84.95329599999999       -1.03487700000000       -2.29272300000000
N           87.05038000000000       -0.74444800000000       -1.27543700000000
C           85.64692300000000       -0.54233500000000       -1.10800000000000
C           85.05533399999999       -0.01992900000000       -0.02031800000000
C           85.81390200000000        0.46814300000000        1.15682100000000
C           85.25671300000000        0.78776800000000        2.31827900000000
C           86.30394900000000        1.30625100000000        3.17333100000000
C           87.43811800000000        1.26722600000000        2.48256100000000
C           88.74007099999999        1.78553600000000        2.98259500000000
C           88.76513700000000        2.50822000000000        4.27427300000000
C           88.83161399999999        3.90856500000000        4.29847700000000
C           88.83625499999999        4.59566000000000        5.52146200000000
C           88.94203700000000        6.09189800000000        5.54579700000000
C           88.80844899999998        3.87046500000000        6.72285100000000
C           88.75138599999998        2.46889700000000        6.70728900000000
C           88.68464099999998        1.71026600000000        8.00015000000000
C           88.71984800000000        1.79170700000000        5.47884400000000
C           89.89321500000000        1.60555100000000        2.31178400000000
C           91.21388600000000        2.06192300000000        2.74219900000000
C           92.06913900000001        1.60592300000000        1.84933900000000
C           91.30545699999999        0.86242300000000        0.84881800000000
N           90.03523800000001        0.85513800000000        1.10808500000000
N           87.21789900000000        0.73489300000000        1.17380100000000
C           88.42903400000000       -2.53370500000000       -4.27177600000000
C           88.74451699999999       -1.96541400000000       -5.51457900000000
C           88.70153200000000       -2.74394100000000       -6.68021200000000
C           89.02167599999999       -2.13199400000000       -8.01221800000000
C           88.30089599999999       -4.08613500000000       -6.60159900000000
C           87.95986800000000       -4.65565000000000       -5.36566000000000
C           87.57753599999998       -6.10368900000000       -5.27996300000000
C           88.04098299999998       -3.87872900000000       -4.20100800000000
H           93.01979599999999        0.16442700000000       -0.31839200000000
H           92.98678900000000       -1.33329400000000       -2.48085000000000
H           91.16539400000001       -2.34819800000000       -3.95872100000000
H           85.70655499999999       -1.92959700000000       -4.07394400000000
H           83.89105800000000       -1.03728000000000       -2.49766800000000
H           84.21107400000000        0.70795100000000        2.58240000000000
H           86.16838700000000        1.68703900000000        4.17667600000000
H           88.87569800000000        4.46077400000000        3.36652000000000
H           88.43953800000000        6.50635300000000        6.44576100000000
H           90.01235800000001        6.38530400000000        5.56118700000000
H           88.45751300000001        6.53377000000000        4.64868300000000
H           88.82958600000001        4.39649600000000        7.67033600000000
H           88.85320399999999        0.62277000000000        7.84137300000000
H           89.46341099999999        2.08299600000000        8.69895100000000
H           87.68546299999998        1.85381800000000        8.46250400000000
H           88.66308099999999        0.70902000000000        5.45559000000000
H           91.46773600000000        2.64386400000000        3.61818500000000
H           93.14073900000000        1.75479300000000        1.87023700000000
H           89.02854300000000       -0.92110100000000       -5.57204500000000
H           89.51057900000001       -2.87789600000000       -8.67462100000000
H           89.71286800000000       -1.27051800000000       -7.89552100000000
H           88.08439600000000       -1.78186400000000       -8.49232300000000
H           88.25507899999998       -4.68682200000000       -7.50282500000000
H           88.48699800000000       -6.71561600000000       -5.11014400000000
H           87.08740800000000       -6.43686500000000       -6.21923000000000
H           86.86621399999999       -6.27211800000000       -4.44278300000000
H           87.79892100000001       -4.31746100000000       -3.23995200000000
C           51.93479700000000       -0.00719700000000       -0.01779300000000
C           50.68252600000000       -0.02637800000000       -0.02214100000000
C           53.24846500000000       -0.00796300000000       -0.01586000000000
C           54.75159800000000       -0.02637800000000       -0.02214100000000
C           65.86808000000001       -0.00719700000000       -0.01779300000000
C           64.61581000000000       -0.02637800000000       -0.02214100000000
C           67.18174900000000       -0.00796300000000       -0.01586000000000
C           68.68488199999999       -0.02637800000000       -0.02214100000000
C           79.80136399999999       -0.00719700000000       -0.01779300000000
C           78.54909399999998       -0.02637800000000       -0.02214100000000
C           81.11503199999999       -0.00796300000000       -0.01586000000000
C           82.61816600000000       -0.02637800000000       -0.02214100000000
Co          59.53582500000000       -0.07131800000000       -0.03258500000000
C           56.16646300000000        0.02258800000000        0.02260400000000
C           56.82273200000000        1.19350900000000       -0.07606100000000
C           56.18276699999999        2.51055200000000       -0.09096200000000
C           57.11893000000000        3.42414000000000       -0.25254100000000
C           58.41537000000000        2.74571000000000       -0.35261400000000
N           58.23719000000000        1.33246500000000       -0.23150700000000
C           59.59942000000000        3.36562700000000       -0.54299900000000
C           60.89674200000000        2.64300500000000       -0.57818600000000
C           62.16571700000000        3.26019500000000       -0.98538000000000
C           63.11845500000000        2.36370200000000       -0.83058400000000
N           61.06470800000000        1.41539800000000       -0.19639600000000
C           62.46334200000000        1.16225800000000       -0.32965100000000
C           63.07827399999999        0.02258800000000        0.02260400000000
C           62.32709400000000       -1.16136500000000        0.49042600000000
C           62.86159300000000       -2.17377900000000        1.16125400000000
C           61.82917900000000       -3.18154500000000        1.31120500000000
C           60.73555000000000       -2.71693700000000        0.71760600000000
C           59.48257400000000       -3.48953300000000        0.54115600000000
C           59.54590800000000       -4.96910000000000        0.62715700000000
C           58.84823399999999       -5.65374600000000        1.63429300000000
C           58.92391200000000       -7.05084900000000        1.72669300000000
C           58.21383399999999       -7.77025100000000        2.83472200000000
C           59.72929400000000       -7.76132100000000        0.82393900000000
C           60.42450300000000       -7.08731700000000       -0.19096000000000
C           61.30905099999999       -7.85177200000000       -1.13079700000000
C           60.34163100000000       -5.68979500000000       -0.27549600000000
C           58.31066800000000       -2.87714700000000        0.28479800000000
C           57.03585799999999       -3.53701100000000        0.02251600000000
C           56.14759500000000       -2.57449800000000       -0.12038500000000
C           56.84416299999999       -1.29406300000000        0.04335800000000
N           58.10845500000000       -1.46404800000000        0.27721100000000
N           60.95958100000000       -1.41774300000000        0.17348300000000
C           59.63381700000000        4.83654600000000       -0.71599700000000
C           60.22119099999999        5.64532900000000        0.26766000000000
C           60.26964400000000        7.03754600000000        0.10586900000000
C           60.94140200000000        7.89266000000000        1.13943400000000
C           59.75090100000000        7.61661000000000       -1.06230700000000
C           59.15036599999999        6.81698700000000       -2.04643200000000
C           58.62851500000000        7.43964100000000       -3.30679900000000
C           59.10829999999999        5.42551200000000       -1.87600800000000
H           55.12876799999999        2.73018100000000        0.01377400000000
H           56.93363500000000        4.48987100000000       -0.29170000000000
H           62.31502900000000        4.26881300000000       -1.34794500000000
H           64.16805800000000        2.51888600000000       -1.04224300000000
H           63.88548299999999       -2.25693100000000        1.50081400000000
H           61.94566000000000       -4.14951500000000        1.78081200000000
H           58.25434100000000       -5.09717700000000        2.35001100000000
H           57.97497500000000       -8.81431200000000        2.53795500000000
H           58.86184000000000       -7.78938300000000        3.73570600000000
H           57.26094199999999       -7.25756600000000        3.08508800000000
H           59.81666800000000       -8.83817500000000        0.91147800000000
H           61.45789599999999       -7.29219200000000       -2.07949100000000
H           60.85209500000000       -8.83355800000000       -1.37970800000000
H           62.29707200000000       -8.02075700000000       -0.65256800000000
H           60.89481499999999       -5.16092900000000       -1.04281700000000
H           56.83322800000000       -4.59705600000000       -0.05436600000000
H           55.09817300000000       -2.72797300000000       -0.33243500000000
H           60.64201499999999        5.18899500000000        1.15632500000000
H           60.50800600000000        8.91546900000000        1.14570900000000
H           62.02611000000000        7.96064300000000        0.91373500000000
H           60.80806500000000        7.45803500000000        2.15285000000000
H           59.81429100000000        8.68884700000000       -1.20599600000000
H           58.20227200000000        8.44351000000000       -3.09640400000000
H           57.82733400000000        6.81315700000000       -3.75477200000000
H           59.45746499999999        7.54322400000000       -4.03806500000000
H           58.67261599999999        4.79849900000000       -2.64554600000000
Co          73.46910899999999       -0.07131800000000       -0.03258500000000
C           70.09974699999999        0.02258800000000        0.02260400000000
C           70.75601600000000        1.19350900000000       -0.07606100000000
C           70.11605100000000        2.51055200000000       -0.09096200000000
C           71.05221299999999        3.42414000000000       -0.25254100000000
C           72.34865400000000        2.74571000000000       -0.35261400000000
N           72.17047300000000        1.33246500000000       -0.23150700000000
C           73.53270400000000        3.36562700000000       -0.54299900000000
C           74.83002600000000        2.64300500000000       -0.57818600000000
C           76.09900099999999        3.26019500000000       -0.98538000000000
C           77.05173799999999        2.36370200000000       -0.83058400000000
N           74.99799100000000        1.41539800000000       -0.19639600000000
C           76.39662599999998        1.16225800000000       -0.32965100000000
C           77.01155700000000        0.02258800000000        0.02260400000000
C           76.26037799999999       -1.16136500000000        0.49042600000000
C           76.79487700000000       -2.17377900000000        1.16125400000000
C           75.76246300000000       -3.18154500000000        1.31120500000000
C           74.66883399999999       -2.71693700000000        0.71760600000000
C           73.41585700000000       -3.48953300000000        0.54115600000000
C           73.47919200000000       -4.96910000000000        0.62715700000000
C           72.78151800000001       -5.65374600000000        1.63429300000000
C           72.85719599999999       -7.05084900000000        1.72669300000000
C           72.14711800000001       -7.77025100000000        2.83472200000000
C           73.66257800000000       -7.76132100000000        0.82393900000000
C           74.35778699999999       -7.08731700000000       -0.19096000000000
C           75.24233500000000       -7.85177200000000       -1.13079700000000
C           74.27491400000000       -5.68979500000000       -0.27549600000000
C           72.24395199999998       -2.87714700000000        0.28479800000000
C           70.96914099999999       -3.53701100000000        0.02251600000000
C           70.08087900000000       -2.57449800000000       -0.12038500000000
C           70.77744700000000       -1.29406300000000        0.04335800000000
N           72.04173899999999       -1.46404800000000        0.27721100000000
N           74.89286499999999       -1.41774300000000        0.17348300000000
C           73.56710099999999        4.83654600000000       -0.71599700000000
C           74.15447499999999        5.64532900000000        0.26766000000000
C           74.20292699999999        7.03754600000000        0.10586900000000
C           74.87468600000000        7.89266000000000        1.13943400000000
C           73.68418400000000        7.61661000000000       -1.06230700000000
C           73.08365000000001        6.81698700000000       -2.04643200000000
C           72.56179899999999        7.43964100000000       -3.30679900000000
C           73.04158400000000        5.42551200000000       -1.87600800000000
H           69.06205199999999        2.73018100000000        0.01377400000000
H           70.86691899999998        4.48987100000000       -0.29170000000000
H           76.24831200000000        4.26881300000000       -1.34794500000000
H           78.10134100000001        2.51888600000000       -1.04224300000000
H           77.81876699999999       -2.25693100000000        1.50081400000000
H           75.87894400000000       -4.14951500000000        1.78081200000000
H           72.18762500000000       -5.09717700000000        2.35001100000000
H           71.90825800000000       -8.81431200000000        2.53795500000000
H           72.79512400000000       -7.78938300000000        3.73570600000000
H           71.19422600000000       -7.25756600000000        3.08508800000000
H           73.74995099999998       -8.83817500000000        0.91147800000000
H           75.39118000000001       -7.29219200000000       -2.07949100000000
H           74.78537799999999       -8.83355800000000       -1.37970800000000
H           76.23035600000000       -8.02075700000000       -0.65256800000000
H           74.82809800000000       -5.16092900000000       -1.04281700000000
H           70.76651199999999       -4.59705600000000       -0.05436600000000
H           69.03145700000000       -2.72797300000000       -0.33243500000000
H           74.57529900000000        5.18899500000000        1.15632500000000
H           74.44129000000000        8.91546900000000        1.14570900000000
H           75.95939300000001        7.96064300000000        0.91373500000000
H           74.74134900000000        7.45803500000000        2.15285000000000
H           73.74757500000000        8.68884700000000       -1.20599600000000
H           72.13555599999999        8.44351000000000       -3.09640400000000
H           71.76061799999999        6.81315700000000       -3.75477200000000
H           73.39074900000000        7.54322400000000       -4.03806500000000
H           72.60590000000001        4.79849900000000       -2.64554600000000
282
 energy: -451.266202184127 gnorm: 0.472354107376 xtb: 6.5.1 (b24c23e)
Co          44.64520278188314       -0.01573006844593       -0.03955325489538
C           41.27871586203080        0.16115199546858       -0.26748930815294
C           41.95043239872815        1.27656701978046        0.10043902192294
C           41.29405385124836        2.51419814394202        0.49381607127293
C           42.24758256637782        3.39835418076084        0.78715608094913
C           43.54284859527165        2.74742993613540        0.57835323819774
N           43.35035059962414        1.41493337033639        0.15495509488704
C           44.75274448322740        3.34889262452211        0.76288210486990
C           46.02356870791818        2.67308752445985        0.54196812435083
C           47.31398222227916        3.35625799655880        0.54379116323651
C           48.25984588615492        2.43737103557454        0.31938705304351
N           46.16968770722595        1.37789976936426        0.32195194659578
C           47.57821020035006        1.16263859283793        0.17769488731705
C           48.15304106275301       -0.03753283658542       -0.02185486386831
C           47.39904687447433       -1.26846749394007       -0.16386367960552
C           47.96043695361444       -2.51260025161821       -0.14804346410815
C           46.93205854885855       -3.45715837277397       -0.40422879925615
C           45.76495715306937       -2.76475905462641       -0.56170756931440
C           44.49094034410741       -3.39586177253802       -0.91368191603215
C           44.45805771127591       -4.84794719956507       -1.25232995723696
C           44.38379761431644       -5.26388783657916       -2.58664696960873
C           44.37500116640390       -6.62564652165881       -2.90603366565383
C           44.27463427352860       -7.06724986366470       -4.34168094298223
C           44.40663278175359       -7.57293455504667       -1.87842955731037
C           44.46456583373728       -7.17033564603501       -0.54051910842014
C           44.52853291488061       -8.20493500466080        0.55126531541243
C           44.49644974995294       -5.80685633826198       -0.23398896977790
C           43.32426804820791       -2.70601959369581       -0.93021217825340
C           42.01093838002546       -3.24974448454420       -1.24903994412589
C           41.13773065909128       -2.25471654135101       -1.05795415075465
C           41.89380215997327       -1.08935292549126       -0.62198609357071
N           43.18573712028343       -1.34820853179451       -0.54781032200713
N           45.99550289644984       -1.37392897759950       -0.40611793961282
C           44.79247300733734        4.76615471950750        1.20971743870842
C           44.46982947842554        5.79994402758372        0.32397470907361
C           44.51590470268540        7.13194825982338        0.74404861155086
C           44.19092304312598        8.24436975134555       -0.21628457256091
C           44.91334854310784        7.42727596581391        2.05140866670653
C           45.25054576684205        6.40361469156440        2.94139120368462
C           45.63933680083910        6.72554318956645        4.35904327376284
C           45.17490947473845        5.07372093785894        2.51878895203360
H           40.19556307941611        0.20878409117764       -0.28320447131096
H           40.22925681051137        2.69945899541588        0.55275196390016
H           42.06199685371816        4.41091649532452        1.11938998687080
H           47.49777297269752        4.40922107594021        0.68757136035696
H           49.32218662817422        2.63114002786036        0.26531633199295
H           49.00483335228122       -2.72874083664140        0.00462003397203
H           47.05192070653997       -4.52614369363097       -0.48961463333412
H           44.34009928288123       -4.52194092398040       -3.37859878011965
H           44.76940764668858       -8.04037731688190       -4.48819751042691
H           43.21186663988092       -7.16378385435301       -4.61919065280564
H           44.75151874371956       -6.33407153832117       -5.01121854219852
H           44.38549399353106       -8.63232459280024       -2.12065587833145
H           44.36381195612233       -7.75353939264658        1.54271823845580
H           43.75865773959232       -8.97607327619236        0.38903418116196
H           45.52004785199383       -8.68707997468847        0.54304290456218
H           44.55117622421586       -5.48334330244234        0.80116336999781
H           41.75905980859277       -4.25422462389913       -1.56460602133896
H           40.07035669570290       -2.32113203822867       -1.19677219713023
H           44.18645164519418        5.56347393176919       -0.69725872699415
H           43.70921296547951        9.08300897585968        0.31074341321038
H           43.50832395184508        7.89526729606937       -1.00667390292735
H           45.12115908100705        8.60673757052364       -0.68402034462915
H           44.95954884895033        8.46265183073179        2.37826541892209
H           44.73650016945955        6.73307299779658        4.99125148877802
H           46.12215903463326        7.71342354507452        4.41834437624468
H           46.34167961003349        5.97353397384141        4.75232132219470
H           45.41572543283346        4.27078904961181        3.20906872260977
Co          88.56964715435660       -0.00261002519675       -0.02963974108846
C           91.93591944140583        0.16706539116899       -0.26307960549660
C           91.26423234526099       -0.49677147959348       -1.23198490984592
C           91.92056916725853       -1.21914166054224       -2.31117391007079
C           90.96700485967710       -1.74698782793099       -3.07872309867001
C           89.67173319330323       -1.36530863649667       -2.51156153802854
N           89.86427335048370       -0.58770009473835       -1.34967154347515
C           88.46168165551406       -1.70997847586938       -3.03773893170257
C           87.19080891387311       -1.30950353516205       -2.44996226324637
C           85.90056308930671       -1.50145336344653       -3.10601455793360
C           84.95444146406709       -1.03043464904324       -2.28612666897569
N           87.04366207177596       -0.73691298602088       -1.26719304981782
C           85.63463759711662       -0.53913579906730       -1.10092628818628
C           85.05515082780094       -0.01400683510746       -0.00381142040259
C           85.81390655481317        0.46568049391306        1.13865018076466
C           85.25379108104553        0.79678841752453        2.33835127038410
C           86.28254774080705        1.30554506315852        3.17413304858812
C           87.44939669984007        1.26400806969421        2.46506013704974
C           88.72360120910290        1.77779998706950        2.97342620373361
C           88.75653655902929        2.50733166184357        4.27389062254932
C           88.83083128463203        3.90469588995409        4.30199644662765
C           88.83961986784763        4.59051588076904        5.52103790806761
C           88.93998740183842        6.09234968141586        5.54555532906976
C           88.80799210262388        3.86721706827422        6.71692767389664
C           88.75005777484733        2.47011599831256        6.70267037335159
C           88.68608885665274        1.70948204665194        8.00028407205574
C           88.71816793302230        1.79616234406040        5.47838748760531
C           89.89030948393550        1.60168072439496        2.30633258620691
C           91.20365998732905        2.05928735154174        2.73980726677352
C           92.07688129688819        1.59876331421068        1.83731877702384
C           91.32081739775880        0.85565389782693        0.83935986449875
N           90.02891116283233        0.85651169281784        1.10855156365178