126
 energy: -250.684044605580 gnorm: 0.643996220302 xtb: 6.5.1 (b24c23e)
Cu          17.33174100000000       -0.02912900000000        0.00110600000000
C           13.99860200000000        0.12188300000000        0.10751500000000
C           14.66541400000000        1.27882900000000        0.08611600000000
C           14.01704300000000        2.58444700000000        0.08491100000000
C           14.96068300000000        3.50651700000000        0.07695000000000
C           16.26583000000000        2.83146700000000        0.07488200000000
N           16.08584800000000        1.41524200000000        0.07991800000000
C           17.45978000000000        3.45635900000000        0.10479900000000
C           17.49730400000000        4.93506200000000        0.11231400000000
C           17.28796500000000        5.65033700000000       -1.07466000000000
C           17.30961900000000        7.04867600000000       -1.07172200000000
O           17.09534200000000        7.72985400000000       -2.27011000000000
C           17.54268300000000        7.74433500000000        0.12842900000000
O           17.55831200000000        9.13986800000000        0.12436400000000
C           17.75645900000000        7.02832100000000        1.32052100000000
O           17.98930400000000        7.71101900000000        2.51316200000000
C           17.73398200000000        5.62709100000000        1.30712800000000
C           18.75798800000000        2.73225400000000        0.14315500000000
C           20.05726100000000        3.40178000000000        0.27457900000000
C           20.99158700000000        2.47461000000000        0.25992400000000
N           18.89261100000000        1.44447900000000        0.04257000000000
C           20.29848200000000        1.20070800000000        0.10839600000000
C           20.89369100000000        0.00000000000000        0.00000000000000
C           20.14073200000000       -1.26553100000000       -0.18015100000000
C           20.70602100000000       -2.42747300000000       -0.48527900000000
C           19.65852500000000       -3.42653300000000       -0.51547600000000
C           18.51683600000000       -2.81236500000000       -0.22942000000000
N           18.73058600000000       -1.41564800000000       -0.00313100000000
C           17.20772500000000       -3.50607900000000       -0.11095100000000
C           17.18890900000000       -4.98486100000000       -0.12955700000000
C           17.33553900000000       -5.70286300000000        1.06385100000000
C           17.31425500000000       -7.10132500000000        1.05499400000000
O           17.45598400000000       -7.78660900000000        2.26172500000000
C           17.15092800000000       -7.79329100000000       -0.15899100000000
O           17.13409700000000       -9.18872500000000       -0.16000700000000
C           17.00902400000000       -7.07351000000000       -1.35953500000000
O           16.85158400000000       -7.75291400000000       -2.56674500000000
C           17.02719700000000       -5.67219800000000       -1.33952100000000
C           16.04505100000000       -2.84090400000000        0.01114300000000
C           14.72112100000000       -3.44907500000000        0.12985900000000
C           13.86211000000000       -2.45043200000000        0.18159400000000
C           14.62822100000000       -1.20780100000000        0.10160000000000
N           15.90295400000000       -1.42255300000000        0.00115600000000
H           12.91571800000000        0.15466700000000        0.13213500000000
H           12.95241600000000        2.78020700000000        0.09402500000000
H           14.77700300000000        4.57316700000000        0.08350800000000
H           17.10423300000000        5.12001500000000       -2.00135100000000
H           17.10031600000000        8.74129300000000       -2.32308500000000
H           17.70868500000000        9.68012300000000        0.96737000000000
H           18.14561700000000        7.21869400000000        3.38508300000000
H           17.89670800000000        5.07649200000000        2.22578800000000
H           20.24082700000000        4.46434000000000        0.36449200000000
H           22.05537500000000        2.65778600000000        0.33468000000000
H           21.75567300000000       -2.61238100000000       -0.66725200000000
H           19.79341900000000       -4.48129800000000       -0.71842000000000
H           17.46271400000000       -5.17510800000000        2.00130000000000
H           17.43766700000000       -8.79767600000000        2.31209300000000
H           17.02020400000000       -9.72684300000000       -1.01043400000000
H           16.75174600000000       -7.25861400000000       -3.44616200000000
H           16.91685700000000       -5.11871500000000       -2.26456600000000
H           14.46922900000000       -4.50123400000000        0.16435200000000
H           12.78711200000000       -2.54823500000000        0.26503900000000
Cu          28.09378200000000        0.02881600000000        0.00440000000000
C           31.42692100000000       -0.13328400000000        0.09300700000000
C           30.76010900000000       -1.28034800000000       -0.05938900000000
C           31.40848000000000       -2.57741600000000       -0.20857200000000
C           30.46484000000000       -3.49264200000000       -0.32099400000000
C           29.15969300000000       -2.82170800000000       -0.24653500000000
N           29.33967500000000       -1.41518000000000       -0.08100900000000
C           27.96574300000000       -3.44596300000000       -0.28763900000000
C           27.92821900000000       -4.91598900000000       -0.44777700000000
C           28.13755799999999       -5.49211600000000       -1.70817500000000
C           28.11590400000000       -6.88177700000000       -1.86375200000000
O           28.33018100000000       -7.42273300000000       -3.13162500000000
C           27.88284000000000       -7.70898400000000       -0.75018400000000
O           27.86721100000000       -9.09506300000000       -0.91240100000000
C           27.66906500000000       -7.13270300000000        0.51538200000000
O           27.43621900000000       -7.94618300000000        1.62295700000000
C           27.69154100000000       -5.73898500000000        0.66089900000000
C           26.66753500000000       -2.73087200000000       -0.16745700000000
C           25.36826200000000       -3.41098000000000       -0.11276700000000
C           24.43393600000000       -2.48812400000000       -0.02223700000000
N           26.53291200000000       -1.43999600000000       -0.12143000000000
C           25.12704100000000       -1.20525700000000       -0.02839700000000
C           24.53183200000000        0.00000000000000        0.00000000000000
C           25.28479100000000        1.27779500000000       -0.03554800000000
C           24.71950200000000        2.46683300000000       -0.20700800000000
C           25.76699800000000        3.46287800000000       -0.12377200000000
C           26.90868800000000        2.82024500000000        0.09082800000000
N           26.69493700000000        1.40687900000000        0.15734700000000
C           28.21779800000000        3.49606100000000        0.28716300000000
C           28.23661400000000        4.96742100000000        0.43629000000000
C           28.08998400000000        5.54552900000000        1.70339000000000
C           28.11126800000000        6.93598200000000        1.85309900000000
O           27.96953999999999        7.48007300000000        3.12972700000000
C           28.27459500000000        7.76108900000000        0.72536900000000
O           28.29142600000000        9.14764600000000        0.88252500000000
C           28.41649900000000        7.18202300000000       -0.54902300000000
O           28.57393900000000        7.99388000000000       -1.67144500000000
C           28.39832699999999        5.78747300000000       -0.68797100000000
C           29.38047200000000        2.82133300000000        0.33307500000000
C           30.70440200000000        3.41212900000000        0.51995900000000
C           31.56341300000000        2.41405800000000        0.45816900000000
C           30.79730199999999        1.18850100000000        0.23784500000000
N           29.52256900000000        1.41325500000000        0.16238900000000
H           32.50980500000000       -0.16864800000000        0.11375300000000
H           32.47310700000000       -2.77294700000000       -0.22170500000000
H           30.64852000000000       -4.55316100000000       -0.43537800000000
H           28.32129000000000       -4.86017500000000       -2.56878500000000
H           28.32520700000000       -8.42165000000000       -3.29890100000000
H           27.71683800000000       -9.72738800000000       -0.13606300000000
H           27.27990600000000       -7.55585900000000        2.54506200000000
H           27.52881500000000       -5.29606000000000        1.63604600000000
H           25.18469600000000       -4.47688300000000       -0.14387000000000
H           23.37014800000000       -2.67859300000000        0.03127400000000
H           23.66985000000000        2.67117600000000       -0.36685000000000
H           25.63210500000000        4.53384900000000       -0.20585500000000
H           27.96280900000000        4.91491900000000        2.57497900000000
H           27.98785600000000        8.47891500000000        3.29437000000000
H           28.40531900000000        9.77868700000000        0.09857200000000
H           28.67377700000000        7.60244400000000       -2.60122200000000
H           28.50866600000000        5.34240700000000       -1.66978800000000
H           30.95629400000000        4.45359800000000        0.67348800000000
H           32.63841100000000        2.50177200000000        0.55216200000000
C           22.10180300000000        0.00000000000000        0.00000000000000
C           23.32372000000000        0.00000000000000        0.00000000000000
126
 energy: -250.853184124309 gnorm: 0.291667513703 xtb: 6.5.1 (b24c23e)
Cu          17.33815803373371       -0.02138915652788        0.00458328352718
C           13.99801378940620        0.10230358901292        0.10763853299730
C           14.66982591194415        1.27967925996853        0.08553493083921
C           14.01677650061620        2.57689500662837        0.08524439416865
C           14.97211742117887        3.50925330869554        0.07655470809023
C           16.26412866063068        2.82826696762682        0.07341525499495
N           16.06229821490774        1.43773251181123        0.08047765993482
C           17.47413740507371        3.45920254735076        0.10389442144774
C           17.50193587470670        4.94512876292252        0.11097714188584
C           17.28787904509997        5.66277513741589       -1.07121102726908
C           17.31045476122947        7.06380597124948       -1.06633890953441
O           17.09650184695647        7.72429971970385       -2.26229903510087
C           17.54513587016247        7.75441532444378        0.14100664214178
O           17.55703460717729        9.14063939992698        0.11805717432085
C           17.75824536402907        7.02775505693863        1.32824812951519
O           17.98784577092810        7.71825347819716        2.50745356234114
C           17.73570945875821        5.63136841092362        1.30563021726826
C           18.74231404027856        2.76412250788212        0.14386515636645
C           20.03547172261847        3.42068714988206        0.27373617196582
C           20.97433656155325        2.46480657970372        0.25945867611373
N           18.88447327485426        1.45728293113924        0.04698723864969
C           20.25225532502653        1.21694317663321        0.11096896955518
C           20.81110359291706       -0.01964128633922       -0.00226799178080
C           20.10009441474444       -1.26975734161134       -0.17639564813946
C           20.69980314022436       -2.45391862943676       -0.48879141230718
C           19.67956671070122       -3.43508600833222       -0.51689919347754
C           18.50232402819347       -2.80713931310869       -0.22281404468105
N           18.72238400594112       -1.43166727552745       -0.00870162156680
C           17.22369649856597       -3.49785904099113       -0.10949553637301
C           17.19901146955776       -4.98946856598049       -0.12957536987246
C           17.33618767298262       -5.71363836297341        1.06021673657374
C           17.31280917049493       -7.11546586839363        1.04935464629041
O           17.45454838042025       -7.78039189643765        2.25358457600881
C           17.14952432453191       -7.80267353447878       -0.17176140881916
O           17.13448907481898       -9.18893456765120       -0.15363905386797
C           17.00816301092666       -7.07145612966868       -1.36692933677462
O           16.85163425125495       -7.75911073013039       -2.56020904502842
C           17.02866354196282       -5.67401911840073       -1.33764603111951
C           16.04467238864955       -2.83937974060448        0.01227359100146
C           14.72933750270944       -3.44632583625296        0.12882796962777
C           13.84969312813875       -2.43693702173427        0.18212586281230
C           14.60462610880677       -1.19888655803878        0.10166413513853
N           15.89766090552573       -1.43460983239364        0.00150861852347
H           12.91560896176101        0.14523493420768        0.13276017732178
H           12.95258863534147        2.76805093361636        0.09392780889624
H           14.79235084551606        4.57479740163166        0.08287866340818
H           17.10537237614895        5.12761301947509       -1.99824155468443
H           17.10559048370881        8.71293377524027       -2.29372295487205
H           17.70685093751634        9.64259657646944        0.95642531635688
H           18.13863893901669        7.21657525043749        3.34665056459605
H           17.89660555400263        5.07804898951831        2.22420948615469
H           20.22860097075808        4.47519761478576        0.36464917571624
H           22.04147089212792        2.63818379733228        0.33588649467631
H           21.74967676812424       -2.61786069866047       -0.67169108074250
H           19.80283320001755       -4.48514900478521       -0.72104953518254
H           17.46257184963116       -5.18252440807400        1.99849089064379
H           17.43473704999674       -8.76893044080805        2.28239599789686
H           17.02211822928565       -9.68900033983235       -0.99921479313636
H           16.75662140497913       -7.25637741891778       -3.40708947042261
H           16.91727494344087       -5.11957137803176       -2.26279427510100
H           14.48385638226041       -4.49925908490052        0.16353562479237
H           12.78022678850007       -2.53747292362125        0.26564691775690
Cu          28.08736488727130        0.02073187482806        0.00697765769848
C           31.42750921750438       -0.11384469447608        0.09534908777020
C           30.75569689388979       -1.28112719627901       -0.06006267974655
C           31.40874639890607       -2.56995046898049       -0.20738479041255
C           30.45340561738372       -3.49531561215472       -0.32169686680381
C           29.16139433467171       -2.81836208266957       -0.24762957819639
N           29.36322462518977       -1.43758883136605       -0.08300208830937
C           27.95138559940522       -3.44868591888244       -0.28886019870981
C           27.92358714142781       -4.92583935827909       -0.45024630255774
C           28.13764395183381       -5.50486496759616       -1.70615813760841
C           28.11506828143004       -6.89741946724773       -1.86011834685880
O           28.32902113083813       -7.41809998016682       -3.12323485846019
C           27.88038721594034       -7.72042512035554       -0.73883018759229
O           27.86848840954205       -9.09511469777405       -0.91875457427713
C           27.66727834406465       -7.13301657566738        0.52312367759311
O           27.43767731440883       -7.95272359808351        1.61646520447310
C           27.68981362667200       -5.74306508779453        0.65892594466708
C           26.68320900522266       -2.76261569601651       -0.17036339426150
C           25.39005132553058       -3.42966971940381       -0.11574752469459
C           24.45118646403861       -2.47833096520920       -0.02158818691508
N           26.54104980004522       -1.45321764096373       -0.11849246209387
C           25.17326764528028       -1.22167885296176       -0.02768094436760
C           24.61441949172775        0.01977170180081       -0.00002715249357
C           25.32542876805301        1.28156818391361       -0.03133774491558
C           24.72571997035782        2.49350660627648       -0.20750042399722
C           25.74595647228528        3.47153708415645       -0.12421637621706
C           26.92319958984274        2.81430410294639        0.09679897264246
N           26.70313919907137        1.42342667023079        0.15362784853274
C           28.20182653625007        3.48772875970017        0.28767727132222
C           28.22651158850522        4.97200119035150        0.43679401514696
C           28.08933534815680        5.55664670071793        1.70100028800631
C           28.11271391287535        6.95067117366720        1.84909877805505
O           27.97097553747713        7.47481858043005        3.12093446702386
C           28.27599870450193        7.77185849734582        0.71374418479529
O           28.29103388934663        9.14713214526206        0.88887579114950
C           28.41736003418163        7.18082041260913       -0.55660223720982
O           28.57388876871197        7.99929612661967       -1.66424898333751
C           28.39686017342625        5.78906987292711       -0.68590104209040
C           29.38085058448997        2.81969038846999        0.33402556462466
C           30.69618545862379        3.40951441367965        0.51862312435187
C           31.57582984266562        2.40058952432750        0.45716796155099
C           30.82089682632700        1.17963697062924        0.23689802889659
N           29.52786197208363        1.42519386268915        0.16410598293035
H           32.50991402652561       -0.15934743723605        0.11544320974559
H           32.47293433604082       -2.76085831031867       -0.22042375230885
H           30.63317220750500       -4.55470961384714       -0.43618807846257
H           28.32015057465548       -4.86807666988158       -2.56655655501613
H           28.31993250499402       -8.39680141566272       -3.26651371401895
H           27.71867207218845       -9.68886273393761       -0.14268377101969
H           27.28688412013613       -7.54939770953821        2.50711723454135
H           27.52891743159788       -5.29742800099712        1.63430138105963
H           25.19692202097193       -4.48768878670984       -0.14494453494321
H           23.38405211944447       -2.65925384763753        0.03469466118708
H           23.67584634500266        2.67712356319609       -0.37063937570914
H           25.62269081647342        4.53797293899181       -0.20803105058212
H           27.96295116494887        4.92260602970162        2.57302843379344
H           27.99078595690060        8.45372084348102        3.26160627023469
H           28.40340479425454        9.73981678014314        0.10542946769930
H           28.66890158600916        7.59579315110435       -2.56265472187899
H           28.50824815376201        5.34305678887092       -1.66793092495531
H           30.94166658043029        4.45172825308915        0.67245291921345
H           32.64529620913642        2.49101036318394        0.55154615324188
C           22.11616375672813       -0.00823727811054       -0.00124443624136
C           23.30935932776352        0.00832520273880       -0.00030277514707
126
 energy: -250.933048909255 gnorm: 0.104211454145 xtb: 6.5.1 (b24c23e)
Cu          17.34913194051129       -0.01209557135643        0.01173925234128
C           14.00107074592978        0.08281875939662        0.10773520105071
C           14.67407103190461        1.28437330632597        0.08489440396750
C           14.01664205518024        2.57026560439910        0.08535751862634
C           14.98166061207682        3.51117346002494        0.07594912025312
C           16.25704544447540        2.82541330050254        0.07136447199389
N           16.03468903659012        1.46534264685388        0.07899791796061
C           17.48699248298074        3.46183339587356        0.10276130617658
C           17.50307526618764        4.95533952688931        0.11087195860557
C           17.28766900120840        5.67465233669310       -1.06563390210826
C           17.31127291058064        7.07521133133016       -1.05945460490789
O           17.09812314286416        7.71407246559431       -2.25037264545728
C           17.54656530251273        7.76252063809745        0.14966455701054
O           17.55462615350282        9.13868974693513        0.10645670091828
C           17.75942648742975        7.03009752701612        1.33223110625664
O           17.98487115330102        7.73247304380540        2.49476252645666
C           17.73766630834120        5.63742672794853        1.30506800104726
C           18.72432189353173        2.79900631064710        0.14484584529532
C           20.01380076297773        3.43649075000691        0.27205506791643
C           20.95042440251438        2.45761809629806        0.25946521507188
N           18.88107212892729        1.46809472130291        0.05454254657928
C           20.21551091509161        1.22748412436904        0.11416554527350
C           20.74791821839813       -0.03937790943578       -0.00785271453098
C           20.06740078142257       -1.26748566980143       -0.17117975726695
C           20.69122860724546       -2.48309331649298       -0.48882703460233
C           19.70513738887807       -3.44047301468778       -0.51427035535300
C           18.48908491131276       -2.80458599446588       -0.21467366857090
N           18.72112793040418       -1.45350986027978       -0.02175209630614
C           17.24546945220573       -3.48659940616655       -0.10774225358678
C           17.21241707441544       -4.99122037767317       -0.13104443586306
C           17.33893875481356       -5.72197294708884        1.05348774013288
C           17.31154074486470       -7.12414814600709        1.04185160205290
O           17.45250291236307       -7.76834523315526        2.24105235076958
C           17.14860700679425       -7.80873562789263       -0.18052766443757
O           17.13575035522749       -9.18531396596955       -0.14197712187408
C           17.00795744282855       -7.07020412574463       -1.37005381738475
O           16.85203535910778       -7.77074907278817       -2.54584538913938
C           17.03245520454724       -5.67556961953841       -1.33647918451108
C           16.04127888741122       -2.83268928681000        0.01448406255090
C           14.73710641232816       -3.43868170636916        0.12773097269091
C           13.83985026656636       -2.42561290974014        0.18127598759532
C           14.57948468027290       -1.19072612685303        0.10155567865467
N           15.89323341055794       -1.45008363029507        0.00343203594066
H           12.91787700414266        0.13651262902284        0.13446583545489
H           12.95251474623979        2.75253892883244        0.09388448274704
H           14.81154497817309        4.57665007370938        0.08180827617417
H           17.10676554964201        5.13923929538469       -1.99335575659280
H           17.11343077757202        8.68356957528488       -2.24903004430015
H           17.70568400626321        9.59392519265732        0.94941573191890
H           18.12982409836501        7.21139122095266        3.29932323217085
H           17.89713362457649        5.08178485859494        2.22322311583044
H           20.21384451320317        4.48793927212001        0.36408046745768
H           22.01801616027801        2.61619931191348        0.33879510614619
H           21.74129704385788       -2.62368729536706       -0.67808174494107
H           19.81275510600063       -4.48987802175774       -0.72357019973812
H           17.46339057112461       -5.19331790081131        1.99391709240820
H           17.42977652416323       -8.73809458453982        2.23680527349150
H           17.02386606692379       -9.63938652721886       -0.99177581600900
H           16.76266583536533       -7.25055439755447       -3.35882590081224
H           16.91873390768835       -5.12160118350449       -2.26208023418338
H           14.50290261892932       -4.49367367831861        0.16275129932555
H           12.77234226502274       -2.52683121332769        0.26596433954934
Cu          28.07639182494933        0.01068754324857        0.01303341169995
C           31.42445276770377       -0.09449643327173        0.09765388648757
C           30.75145303148880       -1.28571955484078       -0.06123103033386
C           31.40888178256543       -2.56337748036828       -0.20652092723307
C           30.44386334257384       -3.49715573900009       -0.32251619156649
C           29.16847840696701       -2.81529604142734       -0.24934365079144
N           29.39083556341818       -1.46485572836622       -0.08760296051409
C           27.93853056963401       -3.45117219416113       -0.29028445763498
C           27.92244764615785       -4.93597270889130       -0.45150846226401
C           28.13785399962552       -5.51729799781548       -1.70196341353774
C           28.11425014981785       -6.90953164117554       -1.85457098387606
O           28.32739983352316       -7.40929062562093       -3.11022619470692
C           27.87895784546334       -7.72945977168643       -0.73114697445859
O           27.87089688085758       -9.09186287777217       -0.93005921797884
C           27.66609691742403       -7.13579553850464        0.52681566034391
O           27.44065204482444       -7.96541277343426        1.60224404978260
C           27.68785680575655       -5.74902077892493        0.65768047269853
C           26.70119992453312       -2.79738770588650       -0.17334290008869
C           25.41172121556343       -3.44518204181546       -0.11920900412835
C           24.47509751467213       -2.47119043090061       -0.02076700163163
N           26.54444860720565       -1.46481809807330       -0.11221129018701
C           25.21001051204248       -1.23251486319021       -0.02569952870405
C           24.67760417436734        0.04001404087172       -0.00333862968649
C           25.35812080884462        1.27872084222728       -0.02641237438876
C           24.73429345070979        2.52249850402669       -0.20422933419136
C           25.72038492543577        3.47659238718540       -0.12099404017547
C           26.93643737137990        2.81084562660276        0.10459763521792
N           26.70439290118182        1.44660989699581        0.14313849896538
C           28.18005371924017        3.47634310455978        0.28814300591366
C           28.21310594503566        4.97390862190730        0.43553295608887
C           28.08658426489049        5.56569025106580        1.69525916457449
C           28.11398241755642        6.96014820126075        1.84262821048455
O           27.97302089233525        7.46426996622700        3.10711769546408
C           28.27691604800991        7.77887516022561        0.70572137678665
O           28.28977258703957        9.14221282287312        0.90005232959672
C           28.41756563462245        7.17993060595306       -0.55984832178445
O           28.57348769471430        8.00923162256337       -1.64865897198305
C           28.39306818421182        5.79047817513685       -0.68456555344136
C           29.38424533685066        2.81279432407321        0.33546372216913
C           30.68841772492751        3.40204508917555        0.51666698862543
C           31.58567406485772        2.38943567644930        0.45504052428469
C           30.84604025126038        1.17154290363262        0.23586530958059
N           29.53229200164083        1.44035226958864        0.16777117164072
H           32.50764635048598       -0.15087455915895        0.11812650908570
H           32.47300900382361       -2.74544182917643       -0.21870860522595
H           30.61397876169119       -4.55642995043458       -0.43746160789159
H           28.31875737774687       -4.88018201205927       -2.56301991736301
H           28.31209221393520       -8.37269207117813       -3.21878047122897
H           27.71983902219871       -9.63971039428099       -0.14413154913896
H           27.29569900774271       -7.53888265736412        2.46068230059175
H           27.52838938655206       -5.30102804233998        1.63289798401550
H           25.21167772704634       -4.50028503764385       -0.14695379923192
H           23.40750595826389       -2.63774124105578        0.04007654772250
H           23.68422526331096        2.68363759690103       -0.37632882200779
H           25.61276821339477        4.54295778106740       -0.20999979852929
H           27.96213246031406        4.93384849533579        2.56970735456564
H           27.99574649070788        8.42825135431219        3.21281432708616
H           28.40165697875289        9.68967972988234        0.10719685731347
H           28.66285716260780        7.58453722158785       -2.51536217207155
H           28.50678928571805        5.34499244563767       -1.66699161540747
H           30.92262107182335        4.44626863350518        0.67104063763678
H           32.65318182084597        2.48040201092540        0.55065552676900
C           22.10989592825484       -0.02294307434743       -0.00504599809580
C           23.31562655078603        0.02336713139079       -0.00241294709968
126
 energy: -250.959953425724 gnorm: 0.044615026100 xtb: 6.5.1 (b24c23e)
Cu          17.35378706737158       -0.00485125460724        0.02200545729121
C           13.99798628566963        0.07730706640613        0.10807539487056