227
 energy: -404.814797595020 gnorm: 0.000611524028 xtb: 6.5.1 (b24c23e)
Cu          28.57658083101789        0.08667273625123       -0.04304037333987
C           25.16939768795434        0.19231307909033       -0.11151200130233
C           25.80337341864690        1.04468675943616        0.78036325861486
C           25.12850750365756        1.94064637591858        1.67630743571807
C           26.08729588069454        2.58339928681708        2.38807818264816
C           27.35675553209248        2.09011994506445        1.92909420652453
N           27.15310859985317        1.15815176993224        0.95275980300284
C           28.59810869184300        2.48736806143713        2.42684890482905
C           29.83005302742681        1.99382027424790        2.00066121559573
C           31.10447077246285        2.43454446702570        2.49220356375882
C           32.05422147804546        1.74224283218888        1.81403333658401
N           30.02381510708586        1.04258301718421        1.03392131903339
C           31.36740832580566        0.87545056228811        0.90272176983749
C           32.00652402634591       -0.00176084127362        0.00890082006704
C           31.34990210629388       -0.85286073201658       -0.89733884596126
C           32.01821341289191       -1.76500244905193       -1.77752326353929
C           31.05479554956253       -2.41843593020509       -2.47464036668439
C           29.79052986835627       -1.90466218062292       -2.02990591772185
C           28.54799714996975       -2.33281660814586       -2.49495513254987
C           28.53422286099823       -3.38607940560911       -3.55033935237850
C           28.95898326981557       -3.09273744953937       -4.85272966278874
O           29.36166759752248       -1.81280422578174       -5.07178692744717
C           29.82606989564306       -1.41697335641096       -6.34636027119671
C           28.94264214004746       -4.07877899833068       -5.83878530814193
C           28.50616582716988       -5.35504453414207       -5.51704799059042
C           28.08320823902531       -5.66935631219350       -4.23436885925308
C           28.09495027952790       -4.68203800602816       -3.24965055275352
O           27.70661340290538       -4.89356988237052       -1.96384332663277
C           27.24359353311546       -6.16478008495381       -1.55606362715909
C           27.31475715814839       -1.85378871098809       -2.05121600543261
C           26.03648661006278       -2.26870472962371       -2.56073121702589
C           25.09194269468049       -1.55938741616828       -1.89463808964783
C           25.78468119598072       -0.70166640088765       -0.97526358000429
N           27.13050573263576       -0.90191490180099       -1.09041962944341
N           30.00397170211354       -0.95276775769741       -1.06784531749725
C           28.60721387916755        3.52240759141722        3.50045822187377
C           28.94309383379192        3.17477628482883        4.81536139448611
O           29.24047381858434        1.86484512975592        5.02503985599890
C           29.59789825056759        1.40962865545562        6.31434290962731
C           28.94851569747601        4.14121798173387        5.82072417908134
C           28.62252159641449        5.45174818037972        5.50544645185165
C           28.28903066139545        5.81957879344315        4.21057062238383
C           28.27904833581080        4.85207261314026        3.20624745158733
O           27.97206241279589        5.11422728839287        1.90781108350435
C           27.63699480530516        6.42600784994277        1.50294220937169
H           24.08484798701159        0.22679619098425       -0.13425874181157
H           24.05720425324959        2.04903588573291        1.74458352345527
H           25.95664262898184        3.32598791320837        3.15895093277052
H           31.24684438345806        3.18215136346635        3.25587767223388
H           33.12629622223057        1.80693660373126        1.91175046168000
H           33.08797496674080       -1.88604097612181       -1.84114381872678
H           31.18177334643660       -3.18347912188871       -3.22353191378098
H           29.04530936033398       -1.52261917573495       -7.10947885443532
H           30.09907241010265       -0.36385165774967       -6.25661911423169
H           30.70890061946396       -1.99314482822950       -6.64903186309947
H           29.26456490009955       -3.86143795352528       -6.84844292767837
H           28.49521331779831       -6.12225872411832       -6.28347505506424
H           27.74981464418433       -6.67402776812830       -4.01126044662783
H           26.99144385782287       -6.07123447784821       -0.49807647320745
H           26.34818094226008       -6.46443992352135       -2.11415971388183
H           28.01828906330654       -6.93206957716550       -1.67491491670273
H           25.89058403276129       -3.00745094118954       -3.33254099226572
H           24.01971361324879       -1.59938796699734       -2.00801677552762
H           29.79277507785692        0.34012280017892        6.21575034611812
H           28.78462454934231        1.56233518186806        7.03438204683670
H           30.50393336604053        1.90828698625821        6.67980886278459
H           29.20251133062343        3.88260335943092        6.84005079295108
H           28.62828214154927        6.20372081218411        6.28689787858018
H           28.04064700204300        6.84988180202765        3.99344592781537
H           28.46331079467192        7.12498087408372        1.68116501152423
H           27.43852486746432        6.37196271818887        0.43078315401781
H           26.73845050639798        6.78839251320851        2.01725374914922
Cu          60.66836243433533        0.01645850308842       -0.09630488907577
C           64.07511211642866        0.10789736716457       -0.17971917404663
C           63.44609247090774       -0.64707467757044       -1.15859432006065
C           64.12625797294226       -1.40036875584279       -2.17382201655697
C           63.17104133689899       -2.00082441716854       -2.92614667021465
C           61.89846158037500       -1.61323256856723       -2.38215557962960
N           62.09687111588736       -0.79408688929978       -1.30834680751947
C           60.65838149238644       -2.02598611363872       -2.87084616857903
C           59.42340361893095       -1.66867083391360       -2.33174420251267
C           58.15067355209351       -2.05928000734796       -2.86797309383942
C           57.19769616266811       -1.50222176272483       -2.07875674121196
N           59.22540954744064       -0.87893162770732       -1.22983965627844
C           57.88088197242574       -0.76673304772342       -1.05622846895954
C           57.23827126644375       -0.05266231933214       -0.02945378687069
C           57.89191800007231        0.67871564427840        0.97810218921362
C           57.22026158002680        1.37281143910512        2.03648713119372
C           58.18025709499030        1.95565843447873        2.79793048826818
C           59.44571271320635        1.62699145619413        2.20582724586508
C           60.68538176026789        2.03641430566040        2.69540700220318
C           60.69323344612839        2.90983677548638        3.90354792369839
C           60.22271974325816        4.22769160770052        3.82942122200575
O           59.78402002726931        4.63407093835422        2.60849653545092
C           59.25916908262726        5.93429515752057        2.43262762160832
C           60.23322010568921        5.04536095278099        4.95901702001758
C           60.70984898866723        4.54081904391743        6.15944633104232
C           61.17848931797074        3.23944558635496        6.25770680886362
C           61.17239959003050        2.42325134634394        5.12705236575554
O           61.60335585686909        1.13355162357956        5.12569011759816
C           62.11680159606813        0.54944316687136        6.30543401551098
C           61.92022254170143        1.69518076831887        2.14173875856343
C           63.19540321966481        2.15032275031217        2.62390931121586
C           64.14292040466555        1.61047061078942        1.81790369091587
C           63.45505331260086        0.82538169707237        0.83245569155756
N           62.10902780791520        0.89595422265489        1.05137209423734
N           59.23663476827124        0.84297716963644        1.10173859509786
C           60.65387784809408       -2.92100227416384       -4.06344376169873
C           60.28016927952680       -4.26541304024581       -3.93675024967045
O           59.94342483656371       -4.67223037248265       -2.68404506522609
C           59.54248198541467       -6.00672916974963       -2.44823134383105
C           60.27921215392991       -5.10514298025625       -5.05011253620140
C           60.64774314534607       -4.59579256737590       -6.28608960418033
C           61.01917378777652       -3.26822522101423       -6.43609740872853
C           61.02433655261500       -2.42962152591239       -5.32187885330410
O           61.36578275998639       -1.11429678800138       -5.36854483031516
C           61.75047862532251       -0.51809701350249       -6.59069186730227
H           65.15967525495634        0.13843071814266       -0.20715676544567
H           65.19833175195646       -1.45765044041557       -2.28116466513707
H           63.30632005698330       -2.65074420435110       -3.77585065584845
H           58.01149355524844       -2.67762553002702       -3.74014657311079
H           56.12573940484057       -1.57467605033780       -2.17244650318171
H           56.15079505026988        1.40038015617830        2.17252137416420
H           58.04989350919949        2.55476001955555        3.68466291074599
H           60.01219001844055        6.70385600790593        2.64180380199494
H           58.95958932535869        6.00171475951973        1.38512190010573
H           58.38222214532232        6.10280186696802        3.06938065652542
H           59.87635517052122        6.06544991384584        4.91069757570266
H           60.71644995518267        5.17622867362683        7.03827344637278
H           61.54248104691627        2.87151236415770        7.20765934017471
H           62.40050110263697       -0.47093280590485        6.04068142222088
H           63.00203931358043        1.08654373591549        6.66735703829309
H           61.36176514119360        0.51825965223644        7.10039542701415
H           63.33771863669609        2.80185935958138        3.47118343139024
H           65.21413115059934        1.72800275403819        1.87088155644645
H           59.32095025615578       -6.07341706840310       -1.38134943214328
H           60.34189418205656       -6.71623145610471       -2.69477790060701
H           58.64177039954546       -6.26258937999819       -3.01949969189969
H           59.99612946351267       -6.14553821196817       -4.96218247521191
H           60.64569658184076       -5.24845200473508       -7.15221859809367
H           61.30034904750188       -2.89782221343637       -7.41280716134702
H           60.94239226021730       -0.56171078681578       -7.33117950286105
H           61.97165553979875        0.52646149446868       -6.36308847596690
H           62.64790258078700       -0.99371254879284       -7.00511841230633
C           37.20980239228353       -0.06891320972676        0.04054403459664
C           35.98174242920496       -0.06048411768594        0.03528184592718
C           34.63634982570401       -0.04564590609131        0.02946171765540
C           33.41288311098260       -0.02877772751913        0.02204839061829
C           38.55517539243872       -0.07732291444837        0.04195397250965
C           39.77887007788317       -0.07920922658249        0.04592868162083
C           53.26346013223719       -0.08923915486144        0.02525370781973
C           52.03527532918628       -0.09398171064000        0.03779760885091
C           50.69016534919464       -0.09548988822880        0.04759577052233
C           49.46640088338440       -0.09341520968563        0.05536871913774
C           54.60863885509150       -0.08025470859410        0.00986000639019
C           55.83215813814100       -0.07125479971361       -0.00776838484411
Cu          44.62266617646254       -0.08013982051921        0.05130622887981
C           41.18494468605805       -0.08036844837041        0.04725312380660
C           41.83247461161146       -0.06802812972288        1.29554887944859
C           41.15408623099332       -0.08209419282877        2.55732351879613
C           42.11090607343432       -0.06268312405821        3.51964744835786
C           43.38005735599728       -0.03179310449169        2.85089631484368
N           43.17725797424534       -0.03950334269902        1.49663127006467
C           44.61882418836868       -0.01399070587312        3.49145208464951
C           45.85934445643243       -0.02368655099562        2.85442018456852
C           47.12701367422611        0.03059431748451        3.52439122113051
C           48.08604536514631        0.01032890363610        2.56419526438870
N           46.06526352888915       -0.06925615372107        1.50124630311339
C           47.41047852902105       -0.05131931255592        1.30231325097645
C           48.06057214468932       -0.09179264072697        0.05575363152407
C           47.41263061656424       -0.12556737941745       -1.19225676218544
C           48.09075708720449       -0.18541217086452       -2.45281896664358
C           47.13405758095823       -0.19033287279028       -3.41545970577041
C           45.86519813103230       -0.12943548528734       -2.74836461533364
C           44.62653371190420       -0.12309971306117       -3.38950059739689
C           44.62977485769267       -0.12877157672252       -4.88050808962380
C           44.19571419196619       -1.25755333927423       -5.58791942161298
O           43.79538252680040       -2.31428974072613       -4.83212199492317
C           43.31422182759795       -3.49240180124071       -5.44638588677166
C           44.20193563208277       -1.26141026424292       -6.98244725066997
C           44.63732365763575       -0.13480133307217       -7.66367783165085
C           45.06872782610110        0.99497638405345       -6.98515943945936
C           45.06724065331104        0.99720596992117       -5.59067180256775
O           45.46241495497234        2.05748822051899       -4.83731752282313
C           45.94205793021388        3.23514111426984       -5.45369215882310
C           43.38599196829914       -0.10969418987509       -2.75227540237976
C           42.11823852585620       -0.07222694833389       -3.42331024990893
C           41.15935677296154       -0.06355317765462       -2.46289795710125
C           41.83504388677690       -0.08854547182648       -1.19982151280547
N           43.18022589671512       -0.11496987032149       -1.39835359025302
N           46.06806992666786       -0.09562315759815       -1.39442567414974
C           44.61474517650979        0.02086210207511        4.98217791826262
C           45.02972100680726       -1.09541602158555        5.72002688659429
O           45.41588997728824       -2.17739113024433        4.99331678845403
C           45.85860935384755       -3.35320135702313        5.64021563417695
C           45.01978611348282       -1.06233371201003        7.11419444703595
C           44.59938171035228        0.08815313279481        7.76416235618388
C           44.18677025141820        1.20605734743583        7.05493804487626
C           44.19230441407613        1.17150087080426        5.66090719143442
O           43.81419842772305        2.21664365036289        4.87811414696668
C           43.35104084607869        3.41757512752849        5.46129885961107
H           40.08293462635388       -0.10818751563644        2.67989988568362
H           41.97557992403316       -0.07193029369698        4.58917810914503
H           47.25977765289492        0.08010457631658        4.59312483892701
H           49.15701275314562        0.03797324197981        2.68807583963494
H           49.16166079127732       -0.22213438876996       -2.57456181854462
H           47.26932173915978       -0.23475877250579       -4.48409770803971
H           42.42804633761794       -3.29180247208457       -6.06071609873445
H           43.04139978481555       -4.16870345854659       -4.63408054944899
H           44.08503296446924       -3.96660332591951       -6.06610884966942
H           43.87321286001636       -2.12960529361681       -7.53784135104225
H           44.64039788910015       -0.13727622581000       -8.74817377342421
H           45.40046439061092        1.86076011392411       -7.54251635175611
H           46.20672651538688        3.91613867600825       -4.64264414028932
H           45.17297638489318        3.70320720842565       -6.08013968674863
H           46.83294356921463        3.03601447924887       -6.06158043584415
H           41.98496667107870       -0.05288424364784       -4.49291305193775
H           40.08846352829417       -0.03720268885714       -2.58757283855851
H           45.07059744710787       -3.78820349696664        6.26697538595703
H           46.11536586541922       -4.05791744255148        4.84711857154420
H           46.74712765040877       -3.16358093863028        6.25467495803291
H           45.33419262144693       -1.92024570214572        7.69333873626012
H           44.59308157558753        0.11414695265174        8.84833614374560
H           43.86596947103793        2.09083483121707        7.58832094527956
H           44.12513251101507        3.88984641687885        6.07836553911661
H           42.45481636976579        3.24861742728637        6.07059900875148
H           43.10022769352566        4.08109310486350        4.63151059362794
