227
 energy: -403.943685927642 gnorm: 1.455167126749 xtb: 6.5.1 (b24c23e)
Cu          27.83840900000000       -0.01884000000000       -0.03470100000000
C           24.49435800000000        0.11077700000000        0.05767200000000
C           25.16223200000000        0.89526600000000        0.90815500000000
C           24.51734300000000        1.77459000000000        1.87641800000000
C           25.46323700000000        2.42504000000000        2.52789700000000
C           26.76516300000000        1.99385800000000        2.00228100000000
N           26.58190500000000        1.01844300000000        0.97627900000000
C           27.95875600000000        2.47216700000000        2.40496000000000
C           29.25228500000000        2.01936100000000        1.83291700000000
C           30.54385000000000        2.63666200000000        2.15528600000000
C           31.47822200000000        1.98126400000000        1.49756100000000
N           29.38996400000000        1.02261000000000        1.01294500000000
C           30.79072400000000        0.93412500000000        0.75114700000000
C           31.38385900000000        0.00119200000000       -0.01233800000000
C           30.62345600000000       -1.04668000000000       -0.73264400000000
C           31.17009100000000       -2.14067700000000       -1.24859000000000
C           30.12158700000000       -2.86280200000000       -1.94090400000000
C           29.00208700000000       -2.16192500000000       -1.80469000000000
C           27.70738900000000       -2.52786800000000       -2.43474200000000
C           27.71125300000000       -3.53705300000000       -3.52402500000000
C           28.23889700000000       -3.19834700000000       -4.78617100000000
O           28.73692600000000       -1.89960500000000       -4.98558500000000
C           29.30012500000000       -1.42831100000000       -6.20490000000000
C           28.25014400000000       -4.16331200000000       -5.81000700000000
C           27.74554800000000       -5.44273300000000       -5.57822800000000
C           27.22853600000000       -5.77995000000000       -4.32744800000000
C           27.21051300000000       -4.83349700000000       -3.28646400000000
O           26.71113400000000       -5.14414700000000       -2.01013600000000
C           26.16370700000000       -6.40564400000000       -1.64191800000000
C           26.54437400000000       -1.96770500000000       -2.05355700000000
C           25.22771600000000       -2.24955800000000       -2.62196000000000
C           24.36716600000000       -1.53073200000000       -1.92767800000000
C           25.12577300000000       -0.78389500000000       -0.92538200000000
N           26.39631600000000       -1.03127700000000       -0.98893600000000
N           29.22853200000000       -0.97991300000000       -1.03350300000000
C           28.00282800000000        3.51148500000000        3.45955000000000
C           28.13324800000000        3.13169700000000        4.80956600000000
O           28.21848100000000        1.76473200000000        5.12288300000000
C           28.34008700000000        1.24473900000000        6.44300100000000
C           28.17296600000000        4.12697100000000        5.80341800000000
C           28.08626600000000        5.47509000000000        5.45415600000000
C           27.96130900000000        5.85013400000000        4.11591600000000
C           27.92003400000000        4.87231700000000        3.10491400000000
O           27.79950800000000        5.21185600000000        1.74677200000000
C           27.72060000000000        6.54463400000000        1.25153600000000
H           23.41096500000000        0.13357700000000        0.08012900000000
H           23.45353900000000        1.88917000000000        2.04146600000000
H           25.28290000000000        3.15424800000000        3.30727100000000
H           30.72043600000000        3.47809200000000        2.81247500000000
H           32.53749400000000        2.19719900000000        1.53370700000000
H           32.20846100000000       -2.43759100000000       -1.18764200000000
H           30.24053900000000       -3.78917300000000       -2.48775200000000
H           28.54495100000000       -1.47610300000000       -7.01765700000000
H           29.61489200000000       -0.37259700000000       -6.07399500000000
H           30.19173000000000       -2.03361200000000       -6.47263600000000
H           28.64602900000000       -3.93427900000000       -6.78992900000000
H           27.75806200000000       -6.17858800000000       -6.37204300000000
H           26.84930700000000       -6.78158700000000       -4.17911600000000
H           25.84523300000000       -6.36609400000000       -0.58033800000000
H           25.27698600000000       -6.63450900000000       -2.27005700000000
H           26.92932800000000       -7.20245800000000       -1.75429400000000
H           24.98090900000000       -2.91290000000000       -3.44079300000000
H           23.29655700000000       -1.50718500000000       -2.08323300000000
H           28.38757300000000        0.13791600000000        6.39289300000000
H           27.45672500000000        1.53564400000000        7.04998500000000
H           29.27235800000000        1.62009700000000        6.91642900000000
H           28.26918800000000        3.86966800000000        6.84949100000000
H           28.11704500000000        6.23419100000000        6.22534600000000
H           27.89829200000000        6.90331500000000        3.87852700000000
H           28.63859100000000        7.10822700000000        1.52364200000000
H           27.63691600000000        6.51534400000000        0.14605600000000
H           26.82214200000000        7.05127000000000        1.66301300000000
Cu          61.40982200000000        0.02048200000000        0.01066700000000
C           64.75387300000000       -0.05254100000000       -0.13075600000000
C           64.08599900000000       -0.78296200000000       -1.02810200000000
C           64.73088799999999       -1.61649900000000       -2.03605200000000
C           63.78499399999999       -2.16897500000000       -2.77244800000000
C           62.48306800000000       -1.70993800000000       -2.27097500000000
N           62.66632600000000       -0.83289900000000       -1.15970700000000
C           61.28947399999999       -2.04058900000000       -2.80163400000000
C           59.99594600000000       -1.53866900000000       -2.27216200000000
C           58.70438100000000       -1.77008100000000       -2.92899500000000
C           57.77000900000000       -1.21212600000000       -2.18681300000000
N           59.85826700000000       -0.86860100000000       -1.16904000000000
C           58.45750700000000       -0.62202800000000       -1.04426400000000
C           57.86437200000000        0.00119200000000       -0.01233800000000
C           58.62477499999999        0.56534300000000        1.12722800000000
C           58.07813999999999        0.92065400000000        2.28342200000000
C           59.12664300000000        1.50336900000000        3.09656800000000
C           60.24614300000000        1.46809600000000        2.38344800000000
C           61.54084200000000        2.03977700000000        2.83518000000000
C           61.53697800000000        2.97465900000000        3.98886400000000
C           61.00933400000000        4.27212000000000        3.83288100000000
O           60.51130499999999        4.65399800000000        2.57563600000000
C           59.94810600000000        5.92789600000000        2.28232600000000
C           60.99808700000000        5.14849900000000        4.93349800000000
C           61.50268299999999        4.73732800000000        6.16702000000000
C           62.01969500000000        3.45132900000000        6.32314400000000
C           62.03771700000000        2.55534600000000        5.23841600000000
O           62.53709700000000        1.24783300000000        5.36461300000000
C           63.08452399999999        0.70415200000000        6.56101200000000
C           62.70385700000000        1.74202900000000        2.22655000000000
C           64.02051500000000        2.26463000000000        2.58628700000000
C           64.88106500000001        1.67949800000000        1.77612600000000
C           64.12245799999999        0.79345500000000        0.89448600000000
N           62.85191500000000        0.82122400000000        1.14838700000000
N           60.01969800000000        0.87263500000000        1.10387500000000
C           61.24540300000000       -2.93685000000000       -3.98021800000000
C           61.11498300000000       -4.32712500000000       -3.79605200000000
O           61.02975000000000       -4.83144300000000       -2.48745600000000
C           60.90814399999999       -6.21203900000000       -2.16025900000000
C           61.07526499999999       -5.16952000000000       -4.92241100000000
C           61.16196500000000       -4.63229800000000       -6.20724600000000
C           61.28692200000000       -3.25435300000000       -6.38838900000000
C           61.32819700000000       -2.39250300000000       -5.27687500000000
O           61.44872300000000       -0.99990100000000       -5.42004600000000
C           61.52763099999999       -0.32036600000000       -6.66896000000000
H           65.83726600000000       -0.07153200000000       -0.15651600000000
H           65.79469200000000       -1.76359600000000       -2.17291500000000
H           63.96533100000000       -2.83686000000000       -3.60497300000000
H           58.52779500000000       -2.30108000000000       -3.85524600000000
H           56.71073699999999       -1.21723100000000       -2.40569200000000
H           57.03976999999999        0.81814700000000        2.56866700000000
H           59.00769199999999        1.91308100000000        4.09122400000000
H           60.70327999999999        6.72562200000000        2.44508700000000
H           59.63333900000000        5.94828300000000        1.21872200000000
H           59.05650099999999        6.10693400000000        2.91952100000000
H           60.60220199999999        6.15101900000000        4.84598600000000
H           61.49016900000000        5.41856500000000        7.00817500000000
H           62.39892400000000        3.16221900000000        7.29355200000000
H           63.40299799999999       -0.34104400000000        6.37106500000000
H           63.97124500000000        1.29341100000000        6.87678300000000
H           62.31890300000000        0.70220100000000        7.36570900000000
H           64.26732199999999        2.98093200000000        3.35921700000000
H           65.95167400000000        1.83682100000000        1.77491500000000
H           60.86065700000000       -6.31966500000000       -1.05754300000000
H           61.79150599999999       -6.77154500000000       -2.53443700000000
H           59.97587300000000       -6.62734700000000       -2.59906200000000
H           60.97904200000000       -6.24153500000000       -4.81631200000000
H           61.13118600000000       -5.28783700000000       -7.06819800000000
H           61.34993900000000       -2.86976600000000       -7.39716800000000
H           60.60963900000000       -0.50965400000000       -7.26549000000000
H           61.61131500000000        0.76974400000000       -6.48293300000000
H           62.42608799999999       -0.65570300000000       -7.22890800000000
C           37.44737599999999        0.00229400000000       -0.00384800000000
C           36.23843700000000       -0.01116100000000       -0.01229500000000
C           34.81690799999999       -0.00234100000000       -0.02427800000000
C           33.60523800000000        0.00509700000000       -0.01341500000000
C           38.86398000000000       -0.00438100000000       -0.00331500000000
C           40.08467599999999        0.00509700000000       -0.01341500000000
C           53.00854300000000        0.00229400000000       -0.00384800000000
C           51.79960300000000       -0.01116100000000       -0.01229500000000
C           50.37807400000000       -0.00234100000000       -0.02427800000000
C           49.16640500000000        0.00509700000000       -0.01341500000000
C           54.42514700000000       -0.00438100000000       -0.00331500000000
C           55.64584300000000        0.00509700000000       -0.01341500000000
Cu          44.53036300000000        0.00425200000000       -0.06226300000000
C           41.17488700000000       -0.00327900000000        0.02729100000000
C           41.83210600000000       -0.05123400000000        1.20071000000000
C           41.19095900000000       -0.16766600000000        2.51261200000000
C           42.13111499999999       -0.14890400000000        3.43617000000000
C           43.42993800000000       -0.01741700000000        2.76978500000000
N           43.25082100000000        0.04108800000000        1.35304000000000
C           44.61530999999999        0.06140900000000        3.40780800000000
C           45.91607500000000        0.18137000000000        2.70489800000000
C           47.18791700000000        0.44746800000000        3.38737000000000
C           48.14212499999999        0.43659200000000        2.47952400000000
N           46.08341500000000        0.01230500000000        1.43014500000000
C           47.48590600000000        0.16003300000000        1.20772600000000
C           48.10403299999999       -0.00327900000000        0.02729100000000
C           47.36115800000000       -0.28056400000000       -1.22152500000000
C           47.91399100000000       -0.74774600000000       -2.33384700000000
C           46.87931999999999       -0.77655200000000       -3.34900800000000
C           45.76394500000000       -0.32382000000000       -2.78827900000000
C           44.49649599999999       -0.08971200000000       -3.52067500000000
C           44.54246800000000       -0.00456200000000       -5.00192200000000
C           44.05118600000000       -1.06924300000000       -5.78424500000000
O           43.52687599999999       -2.20059400000000       -5.13634800000000
C           43.00195200000000       -3.34306700000000       -5.80405800000000
C           44.10353200000000       -0.97383800000000       -7.18709900000000
C           44.64254000000000        0.15883300000000       -7.79722700000000
C           45.13686100000000        1.20810000000000       -7.02260500000000
C           45.09291000000000        1.13681000000000       -5.61804400000000
O           45.57870400000000        2.17591600000000       -4.80676400000000
C           46.15190200000000        3.38351700000000       -5.29666000000000
C           43.32232300000000        0.06772300000000       -2.88233400000000
C           42.03902699999999        0.34686200000000       -3.51750900000000
C           41.14828200000000        0.36964400000000       -2.54759300000000
C           41.85180900000000        0.10875200000000       -1.28623000000000
N           43.12350400000000       -0.06705500000000       -1.47523100000000
N           45.97725900000000        0.00964300000000       -1.41728000000000
C           44.64469600000000        0.02147100000000        4.88896800000000
C           44.89118000000000       -1.19794300000000        5.54906500000000
O           45.09798100000000       -2.35472300000000        4.77887900000000
C           45.35508400000000       -3.64762200000000        5.31627500000000
C           44.92174899999999       -1.22511200000000        6.95536000000000
C           44.71279700000000       -0.05625500000000        7.68735300000000
C           44.47355100000000        1.15179200000000        7.03250700000000
C           44.43892000000000        1.20361700000000        5.62688600000000
O           44.20804300000000        2.40320400000000        4.93295900000000
C           43.99660000000000        3.66705500000000        5.55318800000000
H           40.13324599999999       -0.25355000000000        2.72244600000000
H           41.94721800000000       -0.21731100000000        4.50074700000000
H           47.33793799999999        0.62008100000000        4.44501800000000
H           49.19438000000000        0.59704100000000        2.67294000000000
H           48.94943099999999       -1.02682600000000       -2.47510600000000
H           47.00730299999999       -1.07324700000000       -4.38200500000000
H           42.13437700000000       -3.05173500000000       -6.43302400000000
H           42.66165800000000       -4.07999800000000       -5.04792100000000
H           43.78907500000000       -3.81434900000000       -6.43012700000000
H           43.73238500000000       -1.77128800000000       -7.81589600000000
H           44.67901400000000        0.22307600000000       -8.87726700000000
H           45.54981500000000        2.07153100000000       -7.52634600000000
H           46.44926799999999        4.01740900000000       -4.43685300000000
H           45.40904299999999        3.93879900000000       -5.90733500000000
H           47.05483200000000        3.15886200000000       -5.90280800000000
H           41.83286099999999        0.50667600000000       -4.56809100000000
H           40.09123400000000        0.55554200000000       -2.68397600000000
H           44.50118000000000       -3.97573600000000        5.94570800000000
H           45.47971400000000       -4.36766700000000        4.48167400000000
H           46.28968900000000       -3.63319100000000        5.91572900000000
H           45.10650800000000       -2.14482200000000        7.49305400000000
H           44.73866200000000       -0.08643100000000        8.76898200000000
H           44.31903600000000        2.04053100000000        7.62885000000000
H           44.88373200000000        3.94814400000000        6.15896900000000
H           43.09032300000000        3.63069800000000        6.19397900000000
H           43.84542600000000        4.43505800000000        4.76734500000000
227
 energy: -404.330328450906 gnorm: 0.410891095084 xtb: 6.5.1 (b24c23e)
Cu          27.84417941478957       -0.01623530216734       -0.03232307715522
C           24.49511852139388        0.10126270188360        0.04706392881896
C           25.16803864108483        0.89652986352868        0.90959657564017
C           24.51629454598072        1.77108887999581        1.87267158685591
C           25.47074256997695        2.42671045393469        2.52919984702838
C           26.76329935772170        1.98953186079387        1.99820623325890
N           26.56568976901612        1.02878028489467        0.98760612233427
C           27.97162286901224        2.46922748411315        2.40060012993525
C           29.24676058292559        2.02827720330339        1.84195833107405
C           30.53380374227737        2.64199130203201        2.16142495758995
C           31.47900434704586        1.97717400574380        1.49437092352013
N           29.40211869299294        1.02130438717410        1.00891312934002
C           30.80174916311436        0.93222108752911        0.74875531574093
C           31.39901021243410       -0.00957970325738       -0.01755586312858
C           30.62531301919592       -1.03161040136834       -0.72875053124090
C           31.17236541603405       -2.15711974218521       -1.25941780684008
C           30.14027893173407       -2.86567690051138       -1.94005798123045
C           28.99267619549883       -2.14927882300771       -1.80280447020170
C           27.71917278831899       -2.52220147074736       -2.42860453637574
C           27.71585951966613       -3.53683995632041       -3.52127107098095
C           28.24157844758392       -3.19744216093784       -4.78947402612735
O           28.73303777674476       -1.90556740821713       -4.98040726370719
C           29.29738007872605       -1.43463670953459       -6.20283178730318
C           28.24969017871322       -4.16206713902870       -5.80858548532571
C           27.74554917355413       -5.43866497477452       -5.57383527441292
C           27.22857687135390       -5.77839916303316       -4.32616009982360
C           27.20891401132668       -4.83674772395520       -3.28585489031108
O           26.71444458606262       -5.13832284678829       -2.01550309558915
C           26.16650524483968       -6.40310073365122       -1.64813658322861
C           26.54307583847299       -1.96655704444669       -2.05292326261133
C           25.23428790289466       -2.25049957246767       -2.62137422426430
C           24.35980737479979       -1.52416237372245       -1.92094822061238
C           25.10966790616425       -0.77869985630393       -0.91990287301228
N           26.39573768846163       -1.03708552534051       -0.99697474535688
N           29.23679031190455       -0.98488386342671       -1.03412437224910
C           28.00576616715453        3.51221670521774        3.45965581761312
C           28.13382614815760        3.13105676701717        4.81388447295696
O           28.21770698890334        1.77092634531504        5.11698254027116
C           28.33963721679506        1.25155969527630        6.44026576168986
C           28.17269229900136        4.12609455745311        5.80220173432853
C           28.08611436535364        5.47092487009509        5.44991223618339
C           27.96121848416956        5.84895240477643        4.11504021249907
C           27.92007299535798        4.87681366208223        3.10441871632143
O           27.80026585091016        5.20585958767846        1.75280584506652
C           27.72124652306823        6.54178296522079        1.25825309196991
H           23.41143390683145        0.13158111027103        0.07731632263375
H           23.45350984975759        1.88561162881521        2.03780433066085
H           25.28905643654641        3.15467028766757        3.30756642051559
H           30.71531255864208        3.47987166089757        2.81469272299814
H           32.53728191644898        2.19264438931750        1.52989058588434
H           32.20920769930243       -2.44100307940382       -1.18932994941116
H           30.24384678733956       -3.79000979472337       -2.48681026331943
H           28.54873977736088       -1.47635792088424       -7.01610078019741
H           29.61092641572383       -0.38079728787484       -6.07047674773710
H           30.18835556179190       -2.03149349488832       -6.47339882993775
H           28.64619259299989       -3.93310047209724       -6.78942495022909
H           27.75802634944494       -6.17706547267294       -6.37038270068807
H           26.84906147151456       -6.78118162199670       -4.17786667899195
H           25.84914905789850       -6.36191099440462       -0.58814054638208
H           25.28034566651473       -6.63544437701185       -2.26800451946236
H           26.92555871792240       -7.20080685930058       -1.75441534261161
H           24.98681583445174       -2.91295470227426       -3.43999594750199
H           23.29413361293648       -1.50410728195833       -2.08007615053361
H           28.38688283287930        0.14655418377712        6.38857200950419
H           27.46073043324618        1.53484952380035        7.04936699113787
H           29.26835866625302        1.61886038990281        6.91634484192561
H           28.26922456133877        3.86855884247495        6.84912940119746
H           28.11699284996151        6.23261020715872        6.22373997551109
H           27.89820597599789        6.90302932412500        3.87741418431598
H           28.63446527232414        7.10769343414489        1.52296146850632
H           27.63770408084587        6.51085991434466        0.15458939453421
H           26.82604214388335        7.05112497839469        1.66169840243501
Cu          61.40413730702021        0.01854391569939        0.00774007570094
C           64.75309076020777       -0.04341162944263       -0.11985054041099
C           64.08020395852375       -0.78421361547263       -1.02959519306782
C           64.73196318181790       -1.61330721557476       -2.03209075703317
C           63.77753077748713       -2.17003591045700       -2.77431102402491
C           62.48498429100881       -1.70647732843647       -2.26609908911139
N           62.68262430877598       -0.84285164407394       -1.17161642015887
C           61.27655199813847       -2.03666137778426       -2.79809553472922
C           60.00145269443556       -1.54636615880579       -2.28229697951554
C           58.71437510453670       -1.77540887922536       -2.93518401664930
C           57.76915877853246       -1.20958704743607       -2.18240647026768
N           59.84594747426605       -0.86489179240243       -1.16718390601735
C           58.44636616856070       -0.61999262285052       -1.04213046462919
C           57.84983723809227        0.00482892169031       -0.00087897384094
C           58.62284190300878        0.56368491002064        1.11189777485461
C           58.07579882715208        0.92905291891116        2.30137366347661
C           59.10789071356413        1.50212297951441        3.09932037631784
C           60.25548357690582        1.46801200029272        2.37060817416642
C           61.52907978912899        2.03448948009872        2.82867861792869
C           61.53236093933837        2.97195660220788        3.98825748694464
C           61.00665383006233        4.27551992669989        3.83245357684942
O           60.51518448037090        4.64801892374296        2.58080210199031
C           59.95085095909472        5.92495674135858        2.28829470856922
C           60.99854132348770        5.14726883747347        4.93206360129358
C           61.50268118901356        4.73355783831833        6.16236824409044
C           62.01965360343971        3.45027459838432        6.32142400400415
C           62.03931890094977        2.55428038795028        5.24154614514811
O           62.53377960942244        1.25397165973574        5.35961067104888
C           63.08172833382290        0.71066906753426        6.55937836591733
C           62.70518981441107        1.74156954074524        2.22533962353958
C           64.01399419186009        2.26393150619995        2.58716795154754
C           64.88844984488836        1.67382191077601        1.76869317552758
C           64.13855151893054        0.78880394991041        0.88861503028782
N           62.85264159437194        0.82842563451613        1.15538617926621
N           60.01127221507272        0.87271501147420        1.10889572974144
C           61.24244555754159       -2.93684799107475       -3.98095383861816
C           61.11440712706933       -4.33149658041922       -3.79602804380553
O           61.03051733891891       -4.82471502803313       -2.49275195028456
C           60.90859314484037       -6.20837013233079       -2.16662241247860
C           61.07554065259018       -5.16844038582806       -4.92137123941655
C           61.16211652372497       -4.62869010155375       -6.20251835545537
C           61.28701403481205       -3.25365440812994       -6.38709353979226
C           61.32816043549476       -2.39137703377894       -5.28125646880326
O           61.44795567016542       -1.00671950773182       -5.41496441252155
C           61.52698692720860       -0.32742012379027       -6.66709356012027
H           65.83679158307837       -0.06903703881718       -0.15414064460176
H           65.79473347075624       -1.76048310726535       -2.16888292925851
H           63.95918314787335       -2.83709841481633       -3.60544376507695
H           58.53289365534971       -2.30303283261363       -3.85733206350442
H           56.71091619043310       -1.21411088457297       -2.40067162870670
H           57.03898006354653        0.81933375211681        2.57232765369787
H           59.00437093151905        1.91202467655903        4.09193205834326
H           60.69949202153426        6.72404423690923        2.44511819034150
H           59.63730490664272        5.94363717171038        1.22633954524466
H           59.05987581533497        6.10799037000792        2.91753218436018
H           60.60203907348927        6.15068598018525        4.84474754023562
H           61.49020449467546        5.41713698509311        7.00643076805428
H           62.39916967980840        3.16103971772064        7.29297196542477
H           63.39908214096679       -0.33272638685891        6.36803242630437
H           63.96788513692589        1.29124686772346        6.87741660865405
H           62.32267286043800        0.70255571149947        7.36409208963594
H           64.26142739364590        2.98014821089189        3.35916834600281
H           65.95411120265940        1.83414168080131        1.77143005067380
H           60.86134750503279       -6.31416081476842       -1.06547981310476
H           61.78750056431506       -6.77104449927626       -2.53356269097538
H           59.97987289013048       -6.62743843749272       -2.59782592695854
H           60.97900540138949       -6.24133227981467       -4.81516263372979
H           61.13123761900366       -5.28647044828657       -7.06640316009575
H           61.35002518134937       -2.86870467115818       -7.39672575899012
H           60.61376524238747       -0.50905612554390       -7.26486587094475
H           61.61052744902593        0.76066028149929       -6.47970738233076
H           62.42218824314013       -0.65442293537708       -7.22857707170375
C           37.43931799777828        0.00196631518398       -0.00434839813964
C           36.21611843784335       -0.01077588710087       -0.01245315362123
C           34.80610790964739       -0.00248913223645       -0.02378450558738
C           33.57413726823222        0.00350536334986       -0.01460606536553
C           38.79723055912845       -0.00415909062615       -0.00347847462534
C           39.98440592573897        0.00498414101225       -0.02195892190115
C           53.03225253305846        0.00190577804369       -0.00407653200656
C           51.80963275650025       -0.01084899683050       -0.01240954402978
C           50.45540076376089       -0.00177698995603       -0.02822490079467
C           49.27388481309533        0.00489933843917       -0.02651426617978
C           54.43922217913298       -0.00391091115515       -0.00334273685783