      -----------------------------------------------------------      
     |                   =====================                   |     
     |                           x T B                           |     
     |                   =====================                   |     
     |                         S. Grimme                         |     
     |          Mulliken Center for Theoretical Chemistry        |     
     |                    University of Bonn                     |     
      -----------------------------------------------------------      

   * xtb version 6.5.1 (b24c23e) compiled by 'conda@728c89f4b128' on 2022-07-12

   xtb is free software: you can redistribute it and/or modify it under
   the terms of the GNU Lesser General Public License as published by
   the Free Software Foundation, either version 3 of the License, or
   (at your option) any later version.
   
   xtb is distributed in the hope that it will be useful,
   but WITHOUT ANY WARRANTY; without even the implied warranty of
   MERCHANTABILITY or FITNESS FOR A PARTICULAR PURPOSE.  See the
   GNU Lesser General Public License for more details.
   
   Cite this work as:
   * C. Bannwarth, E. Caldeweyher, S. Ehlert, A. Hansen, P. Pracht,
     J. Seibert, S. Spicher, S. Grimme, WIREs Comput. Mol. Sci., 2020, 11,
     e01493. DOI: 10.1002/wcms.1493
   
   for GFN2-xTB:
   * C. Bannwarth, S. Ehlert and S. Grimme., J. Chem. Theory Comput., 2019,
     15, 1652-1671. DOI: 10.1021/acs.jctc.8b01176
   for GFN1-xTB:
   * S. Grimme, C. Bannwarth, P. Shushkov, J. Chem. Theory Comput., 2017,
     13, 1989-2009. DOI: 10.1021/acs.jctc.7b00118
   for GFN0-xTB:
   * P. Pracht, E. Caldeweyher, S. Ehlert, S. Grimme, ChemRxiv, 2019, preprint.
     DOI: 10.26434/chemrxiv.8326202.v1
   for GFN-FF:
   * S. Spicher and S. Grimme, Angew. Chem. Int. Ed., 2020, 59, 15665-15673.
     DOI: 10.1002/anie.202004239
   
   for ALPB and GBSA implicit solvation:
   * S. Ehlert, M. Stahn, S. Spicher, S. Grimme, J. Chem. Theory Comput.,
     2021, 17, 4250-4261. DOI: 10.1021/acs.jctc.1c00471
   
   for DFT-D4:
   * E. Caldeweyher, C. Bannwarth and S. Grimme, J. Chem. Phys., 2017,
     147, 034112. DOI: 10.1063/1.4993215
   * E. Caldeweyher, S. Ehlert, A. Hansen, H. Neugebauer, S. Spicher,
     C. Bannwarth and S. Grimme, J. Chem. Phys., 2019, 150, 154122.
     DOI: 10.1063/1.5090222
   * E. Caldeweyher, J.-M. Mewes, S. Ehlert and S. Grimme, Phys. Chem. Chem. Phys.
     2020, 22, 8499-8512. DOI: 10.1039/D0CP00502A
   
   for sTDA-xTB:
   * S. Grimme and C. Bannwarth, J. Chem. Phys., 2016, 145, 054103.
     DOI: 10.1063/1.4959605
   
   in the mass-spec context:
   * V. Asgeirsson, C. Bauer and S. Grimme, Chem. Sci., 2017, 8, 4879.
     DOI: 10.1039/c7sc00601b
   * J. Koopman and S. Grimme, ACS Omega 2019, 4, 12, 15120-15133.
     DOI: 10.1021/acsomega.9b02011
   
   for metadynamics refer to:
   * S. Grimme, J. Chem. Theory Comput., 2019, 155, 2847-2862
     DOI: 10.1021/acs.jctc.9b00143
   
   for SPH calculations refer to:
   * S. Spicher and S. Grimme, J. Chem. Theory Comput., 2021, 17, 1701-1714
     DOI: 10.1021/acs.jctc.0c01306
   
   with help from (in alphabetical order)
   P. Atkinson, C. Bannwarth, F. Bohle, G. Brandenburg, E. Caldeweyher
   M. Checinski, S. Dohm, S. Ehlert, S. Ehrlich, I. Gerasimov, C. Hölzer
   A. Katbashev, J. Koopman, C. Lavigne, S. Lehtola, F. März, M. Müller,
   F. Musil, H. Neugebauer, J. Pisarek, C. Plett, P. Pracht, F. Pultar,
   J. Seibert, P. Shushkov, S. Spicher, M. Stahn, M. Steiner, T. Strunk,
   J. Stückrath, T. Rose, and J. Unsleber
   
 * started run on 2022/07/29 at 22:57:15.792     

           -------------------------------------------------
          |                Calculation Setup                |
           -------------------------------------------------

          program call               : xtb xtbopt.xyz --gfn 1 --vipea
          hostname                   : cx3-5-14.cx3.hpc.ic.ac.uk
          coordinate file            : xtbopt.xyz
          omp threads                :                     1

   ID    Z sym.   atoms
    1    6 C      1-5, 7-10, 12, 14, 16-19, 21-26, 28-31, 33, 35, 37-41,
                  64-68, 70-73, 75, 77, 79-82, 84-89, 91-94, 96, 98, 100-104,
                  127-179, 181-184, 186, 188, 190-193, 195-200, 202-205, 207,
                  209, 211-215, 237-241, 243-246, 248, 250, 252-255, 257-262,
                  264-267, 269, 271, 273-277, 299-303, 305-308, 310, 312,
                  314-317, 319-324, 326-329, 331, 333, 335-339, 361-365,
                  367-370, 372, 374, 376-379, 381-386, 388-391, 393, 395,
                  397-401, 423-427, 429-432, 434, 436, 438-441, 443-448,
                  450-453, 455, 457, 459-463
    2    7 N      6, 20, 27, 42, 69, 83, 90, 105, 180, 194, 201, 216, 242,
                  256, 263, 278, 304, 318, 325, 340, 366, 380, 387, 402, 428,
                  442, 449, 464
    3    8 O      11, 13, 15, 32, 34, 36, 74, 76, 78, 95, 97, 99, 185, 187,
                  189, 206, 208, 210, 247, 249, 251, 268, 270, 272, 309, 311,
                  313, 330, 332, 334, 371, 373, 375, 392, 394, 396, 433, 435,
                  437, 454, 456, 458
    4    1 H      43-63, 106-126, 217-236, 279-298, 341-360, 403-422, 465-484

           -------------------------------------------------
          |                 I P E A - x T B                 |
           -------------------------------------------------

        Reference                      10.1039/c7sc00601b
      * Hamiltonian:
        H0-scaling (s, p, d)           2.150000    2.300000    2.000000
        zeta-weighting                 0.000000
      * Dispersion:
        s8                             2.400000
        a1                             0.630000
        a2                             5.000000
        s9                             0.000000
      * Repulsion:
        kExp                           1.500000
        rExp                           1.000000
      * Coulomb:
        alpha                          1.000000
        third order                    atomic
        anisotropic                    false
      * Halogen bond correction:
        rad-scale                      1.300000
        damping                        0.440000


          ...................................................
          :                      SETUP                      :
          :.................................................:
          :  # basis functions                1994          :
          :  # atomic orbitals                1994          :
          :  # shells                         1310          :
          :  # electrons                      1622          :
          :  # halogen bonds                     0          :
          :  max. iterations                   250          :
          :  Hamiltonian                  GFN1-xTB          :
          :  restarted?                      false          :
          :  GBSA solvation                  false          :
          :  PC potential                    false          :
          :  electronic temp.          300.0000000     K    :
          :  accuracy                    1.0000000          :
          :  -> integral cutoff          0.2500000E+02      :
          :  -> integral neglect         0.1000000E-07      :
          :  -> SCF convergence          0.1000000E-05 Eh   :
          :  -> wf. convergence          0.2000000E-04 e    :
          :  Broyden damping             0.4000000          :
          ...................................................

 iter      E             dE          RMSdq      gap      omega  full diag
   1  -1052.4553333 -0.105246E+04  0.102E+01    0.19       0.0  T
   2  -1055.3005013 -0.284517E+01  0.623E+00    1.09       1.0  T
   3  -1043.4322024  0.118683E+02  0.444E+00    0.28       1.0  T
   4  -1057.2113261 -0.137791E+02  0.134E+00    1.12       1.0  T
   5  -1059.2123118 -0.200099E+01  0.287E-01    0.92       1.0  T
   6  -1059.2902617 -0.779499E-01  0.125E-01    0.93       1.0  T
   7  -1059.3017390 -0.114773E-01  0.628E-02    0.93       1.0  T
   8  -1059.3053579 -0.361895E-02  0.274E-02    0.92       1.0  T
   9  -1059.3055644 -0.206469E-03  0.203E-02    0.92       1.0  T
  10  -1059.3058359 -0.271442E-03  0.782E-03    0.92       1.0  T
  11  -1059.3058739 -0.380598E-04  0.346E-03    0.92       1.3  T
  12  -1059.3058825 -0.861980E-05  0.108E-03    0.92       4.2  T
  13  -1059.3058835 -0.981235E-06  0.524E-04    0.92       8.7  T
  14  -1059.3058837 -0.226385E-06  0.207E-04    0.92      22.0  T
  15  -1059.3058838 -0.286122E-07  0.105E-04    0.92      43.5  T
  16  -1059.3058838 -0.876867E-08  0.492E-05    0.92      92.4  T

   *** convergence criteria satisfied after 16 iterations ***

         #    Occupation            Energy/Eh            Energy/eV
      -------------------------------------------------------------
         1        2.0000           -1.0470695             -28.4922
       ...           ...                  ...                  ...
       805        2.0000           -0.3776442             -10.2762
       806        2.0000           -0.3748787             -10.2010
       807        2.0000           -0.3721259             -10.1261
       808        2.0000           -0.3699189             -10.0660
       809        2.0000           -0.3675555             -10.0017
       810        2.0000           -0.3646401              -9.9224
       811        2.0000           -0.3624904              -9.8639 (HOMO)
       812                         -0.3285688              -8.9408 (LUMO)
       813                         -0.3250769              -8.8458
       814                         -0.3207320              -8.7276
       815                         -0.3163227              -8.6076
       816                         -0.3127446              -8.5102
       ...                                ...                  ...
      1994                        536.3219707           14594.0637
      -------------------------------------------------------------
                  HL-Gap            0.0339217 Eh            0.9231 eV
             Fermi-level           -0.3454923 Eh           -9.4013 eV

 SCC (total)                   0 d,  0 h,  0 min, 37.513 sec
 SCC setup                      ...        0 min,  0.024 sec (  0.065%)
 Dispersion                     ...        0 min,  0.026 sec (  0.069%)
 classical contributions        ...        0 min,  0.006 sec (  0.016%)
 integral evaluation            ...        0 min,  1.538 sec (  4.101%)
 iterations                     ...        0 min, 32.855 sec ( 87.584%)
 molecular gradient             ...        0 min,  2.671 sec (  7.120%)
 printout                       ...        0 min,  0.392 sec (  1.045%)

         :::::::::::::::::::::::::::::::::::::::::::::::::::::
         ::                     SUMMARY                     ::
         :::::::::::::::::::::::::::::::::::::::::::::::::::::
         :: total energy           -1039.954553506719 Eh    ::
         :: gradient norm              0.137483807080 Eh/a0 ::
         :: HOMO-LUMO gap              0.923055252347 eV    ::
         ::.................................................::
         :: SCC energy             -1059.305883781912 Eh    ::
         :: -> electrostatic           1.031266168418 Eh    ::
         :: repulsion energy          19.757377819205 Eh    ::
         :: dispersion energy         -0.406047544012 Eh    ::
         :: halogen bond corr.         0.000000000000 Eh    ::
         :: add. restraining           0.000000000000 Eh    ::
         :: total charge               0.000000000002 e     ::
         :::::::::::::::::::::::::::::::::::::::::::::::::::::

           ------------------------------------------------- 
          |        vertical delta SCC IP calculation        |
           ------------------------------------------------- 
   1  -1058.9264268 -0.105893E+04  0.419E-02    0.92       0.0  T
   2  -1058.9195634  0.686340E-02  0.588E-02    0.85       1.0  T
   3  -1058.9285564 -0.899300E-02  0.264E-02    0.92       1.0  T
   4  -1058.9286962 -0.139862E-03  0.225E-02    0.91       1.0  T
   5  -1058.9287150 -0.187522E-04  0.197E-02    0.90       1.0  T
   6  -1058.9299525 -0.123749E-02  0.860E-03    0.91       1.0  T
   7  -1058.9300724 -0.119960E-03  0.709E-03    0.91       1.0  T
   8  -1058.9301654 -0.929700E-04  0.285E-03    0.91       1.6  T
   9  -1058.9301798 -0.143746E-04  0.863E-04    0.91       5.3  T
  10  -1058.9301805 -0.736983E-06  0.522E-04    0.91       8.7  T
  11  -1058.9301808 -0.253829E-06  0.268E-04    0.91      16.9  T
  12  -1058.9301809 -0.741836E-07  0.134E-04    0.91      33.8  T
  13  -1058.9301809 -0.146954E-07  0.653E-05    0.91      69.6  T
     SCC iter.                  ...        0 min, 27.086 sec
     gradient                   ...        0 min,  2.668 sec
------------------------------------------------------------------------
empirical IP shift (eV):    4.8455
delta SCC IP (eV):    5.3779
------------------------------------------------------------------------
           ------------------------------------------------- 
          |        vertical delta SCC EA calculation        |
           ------------------------------------------------- 
   1  -1059.6078105 -0.105961E+04  0.752E-02    0.10       0.0  T
   2  -1059.6100561 -0.224561E-02  0.692E-02    0.02       1.0  T
   3  -1059.6164081 -0.635201E-02  0.412E-02    0.08       1.0  T
   4  -1059.6174084 -0.100029E-02  0.320E-02    0.05       1.0  T
   5  -1059.6162831  0.112527E-02  0.273E-02    0.07       1.0  T
   6  -1059.6164254 -0.142260E-03  0.247E-02    0.07       1.0  T
   7  -1059.6189151 -0.248977E-02  0.976E-03    0.05       1.0  T
   8  -1059.6190429 -0.127771E-03  0.392E-03    0.05       1.2  T
   9  -1059.6190607 -0.178247E-04  0.185E-03    0.05       2.5  T
  10  -1059.6190642 -0.342744E-05  0.576E-04    0.05       7.9  T
  11  -1059.6190643 -0.171651E-06  0.387E-04    0.05      11.8  T
  12  -1059.6190645 -0.126908E-06  0.189E-04    0.05      24.1  T
  13  -1059.6190645 -0.219702E-07  0.937E-05    0.05      48.5  T
     SCC iter.                  ...        0 min, 26.593 sec
     gradient                   ...        0 min,  2.668 sec
------------------------------------------------------------------------
empirical EA shift (eV):    4.8455
delta SCC EA (eV):    3.6766
------------------------------------------------------------------------
           -------------------------------------------------
          |                Property Printout                |
           -------------------------------------------------

    * Orbital Energies and Occupations

         #    Occupation            Energy/Eh            Energy/eV
      -------------------------------------------------------------
         1        2.0000           -1.0265896             -27.9349
       ...           ...                  ...                  ...
       800        2.0000           -0.3635892              -9.8938
       801        2.0000           -0.3634891              -9.8910
       802        2.0000           -0.3621800              -9.8554
       803        2.0000           -0.3617655              -9.8441
       804        2.0000           -0.3615445              -9.8381
       805        2.0000           -0.3504389              -9.5359
       806        2.0000           -0.3500862              -9.5263
       807        2.0000           -0.3470674              -9.4442
       808        2.0000           -0.3439516              -9.3594
       809        2.0000           -0.3399875              -9.2515
       810        2.0000           -0.3357296              -9.1357
       811        2.0000           -0.3321557              -9.0384
       812        0.7209           -0.2979400              -8.1074 (HOMO)
       813        0.2643           -0.2960656              -8.0564 (LUMO)
       814        0.0139           -0.2929871              -7.9726
       815        0.0008           -0.2903055              -7.8996
       816        0.0001           -0.2877129              -7.8291
       817        0.0000           -0.2845990              -7.7443
       818        0.0000           -0.2842863              -7.7358
       819        0.0000           -0.2836217              -7.7177
       820                         -0.2801323              -7.6228
       821                         -0.2784276              -7.5764
       822                         -0.2783416              -7.5741
       823                         -0.2767863              -7.5317
       ...                                ...                  ...
      1994                        536.3520302           14594.8816
      -------------------------------------------------------------
                  HL-Gap            0.0018744 Eh            0.0510 eV
             Fermi-level           -0.3060696 Eh           -8.3286 eV

  Mulliken/CM5 charges         n(s)   n(p)   n(d)
     1C    -0.02112 -0.06195   1.089  2.932  0.000
     2C     0.06239  0.12280   1.105  2.833  0.000
     3C    -0.03404 -0.07936   1.082  2.953  0.000
     4C    -0.03180 -0.07678   1.076  2.956  0.000
     5C     0.06340  0.12733   1.102  2.834  0.000
     6N    -0.15885 -0.51178   1.313  3.846  0.000
     7C     0.01027  0.01606   1.092  2.898  0.000
     8C    -0.00392 -0.01194   1.076  2.928  0.000
     9C    -0.04682 -0.09625   1.050  2.996  0.000
    10C     0.07378  0.08885   1.104  2.822  0.000
    11O    -0.30112 -0.50468   1.624  4.678  0.000
    12C     0.06829  0.08808   1.093  2.839  0.000
    13O    -0.30009 -0.49999   1.623  4.677  0.000
    14C     0.08233  0.09944   1.115  2.803  0.000
    15O    -0.29263 -0.48783   1.629  4.664  0.000
    16C    -0.04110 -0.08922   1.060  2.981  0.000
    17C     0.05900  0.12701   1.118  2.823  0.000
    18C    -0.03822 -0.08422   1.085  2.953  0.000
    19C    -0.03843 -0.08387   1.091  2.948  0.000
    20N    -0.28494 -0.47163   1.293  3.992  0.000
    21C     0.06447  0.13532   1.129  2.806  0.000
    22C     0.01755  0.02473   1.084  2.898  0.000
    23C     0.06705  0.13201   1.109  2.823  0.000
    24C    -0.03265 -0.07708   1.080  2.953  0.000
    25C    -0.03160 -0.07660   1.075  2.956  0.000
    26C     0.06245  0.12570   1.100  2.838  0.000
    27N    -0.15682 -0.50898   1.314  3.842  0.000
    28C     0.00984  0.01568   1.092  2.898  0.000
    29C    -0.00390 -0.01190   1.076  2.928  0.000
    30C    -0.04062 -0.08874   1.060  2.981  0.000
    31C     0.08264  0.09975   1.115  2.802  0.000
    32O    -0.29206 -0.48728   1.629  4.663  0.000
    33C     0.06829  0.08809   1.093  2.839  0.000
    34O    -0.30000 -0.49989   1.623  4.677  0.000
    35C     0.07344  0.08850   1.104  2.822  0.000
    36O    -0.30159 -0.50515   1.624  4.678  0.000
    37C    -0.04726 -0.09670   1.051  2.997  0.000
    38C     0.06041  0.12981   1.121  2.818  0.000
    39C    -0.03850 -0.08448   1.086  2.952  0.000
    40C    -0.03989 -0.08627   1.092  2.948  0.000
    41C     0.05892  0.12456   1.125  2.816  0.000
    42N    -0.28709 -0.47415   1.293  3.994  0.000
    43H     0.02973  0.08875   0.970  0.000  0.000
    44H     0.04058  0.09726   0.959  0.000  0.000
    45H     0.03444  0.09326   0.966  0.000  0.000
    46H     0.16409  0.37246   0.836  0.000  0.000
    47H     0.03259  0.09285   0.967  0.000  0.000
    48H     0.23379  0.40629   0.766  0.000  0.000
    49H     0.23995  0.41930   0.760  0.000  0.000
    50H     0.23519  0.41461   0.765  0.000  0.000
    51H     0.03434  0.09517   0.966  0.000  0.000
    52H     0.02402  0.08281   0.976  0.000  0.000
    53H     0.02558  0.08368   0.974  0.000  0.000
    54H     0.03598  0.09407   0.964  0.000  0.000
    55H     0.03479  0.09366   0.965  0.000  0.000
    56H     0.16291  0.37124   0.837  0.000  0.000
    57H     0.03503  0.09589   0.965  0.000  0.000
    58H     0.23538  0.41479   0.765  0.000  0.000
    59H     0.23969  0.41905   0.760  0.000  0.000
    60H     0.23310  0.40561   0.767  0.000  0.000
    61H     0.03190  0.09218   0.968  0.000  0.000
    62H     0.02356  0.08228   0.976  0.000  0.000
    63H     0.03019  0.08662   0.970  0.000  0.000
    64C    -0.02086 -0.06170   1.089  2.932  0.000
    65C     0.06245  0.12284   1.105  2.832  0.000
    66C    -0.03391 -0.07923   1.082  2.952  0.000
    67C    -0.03171 -0.07669   1.076  2.955  0.000
    68C     0.06354  0.12747   1.102  2.834  0.000
    69N    -0.15874 -0.51166   1.312  3.846  0.000
    70C     0.01032  0.01610   1.092  2.898  0.000
    71C    -0.00392 -0.01195   1.076  2.928  0.000
    72C    -0.04685 -0.09629   1.050  2.996  0.000
    73C     0.07377  0.08884   1.104  2.822  0.000
    74O    -0.30114 -0.50470   1.624  4.678  0.000
    75C     0.06828  0.08806   1.093  2.839  0.000
    76O    -0.30012 -0.50001   1.623  4.677  0.000
    77C     0.08235  0.09946   1.115  2.803  0.000
    78O    -0.29260 -0.48780   1.629  4.663  0.000
    79C    -0.04108 -0.08919   1.060  2.981  0.000
    80C     0.05917  0.12718   1.119  2.822  0.000
    81C    -0.03811 -0.08410   1.085  2.953  0.000
    82C    -0.03825 -0.08369   1.091  2.947  0.000
    83N    -0.28488 -0.47153   1.293  3.992  0.000
    84C     0.06454  0.13538   1.130  2.806  0.000
    85C     0.01788  0.02506   1.084  2.898  0.000
    86C     0.06724  0.13219   1.109  2.823  0.000
    87C    -0.03231 -0.07675   1.080  2.952  0.000
    88C    -0.03132 -0.07631   1.075  2.956  0.000
    89C     0.06268  0.12595   1.100  2.837  0.000
    90N    -0.15671 -0.50886   1.314  3.842  0.000
    91C     0.01005  0.01589   1.092  2.898  0.000
    92C    -0.00393 -0.01194   1.076  2.928  0.000
    93C    -0.04059 -0.08871   1.060  2.981  0.000
    94C     0.08276  0.09987   1.115  2.802  0.000
    95O    -0.29187 -0.48709   1.629  4.663  0.000
    96C     0.06838  0.08818   1.093  2.839  0.000
    97O    -0.29986 -0.49975   1.623  4.677  0.000
    98C     0.07347  0.08853   1.104  2.822  0.000
    99O    -0.30153 -0.50509   1.624  4.678  0.000
   100C    -0.04729 -0.09673   1.050  2.997  0.000
   101C     0.06057  0.12996   1.121  2.818  0.000
   102C    -0.03837 -0.08435   1.087  2.952  0.000
   103C    -0.03978 -0.08615   1.092  2.948  0.000
   104C     0.05900  0.12465   1.125  2.816  0.000
   105N    -0.28691 -0.47398   1.293  3.993  0.000
   106H     0.02990  0.08893   0.970  0.000  0.000
   107H     0.04071  0.09739   0.959  0.000  0.000
   108H     0.03454  0.09335   0.965  0.000  0.000
   109H     0.16418  0.37253   0.836  0.000  0.000
   110H     0.03261  0.09286   0.967  0.000  0.000
   111H     0.23378  0.40629   0.766  0.000  0.000
   112H     0.23993  0.41929   0.760  0.000  0.000
   113H     0.23521  0.41463   0.765  0.000  0.000
   114H     0.03441  0.09524   0.966  0.000  0.000
   115H     0.02419  0.08298   0.976  0.000  0.000
   116H     0.02580  0.08389   0.974  0.000  0.000
   117H     0.03643  0.09454   0.964  0.000  0.000
   118H     0.03518  0.09406   0.965  0.000  0.000
   119H     0.16300  0.37131   0.837  0.000  0.000
   120H     0.03515  0.09600   0.965  0.000  0.000
   121H     0.23555  0.41496   0.764  0.000  0.000
   122H     0.23977  0.41912   0.760  0.000  0.000
   123H     0.23312  0.40563   0.767  0.000  0.000
   124H     0.03193  0.09220   0.968  0.000  0.000
   125H     0.02374  0.08246   0.976  0.000  0.000
   126H     0.03034  0.08676   0.970  0.000  0.000
   127C    -0.01613 -0.01777   1.092  2.924  0.000
   128C    -0.01859 -0.01936   1.061  2.958  0.000
   129C    -0.01474 -0.01483   1.075  2.939  0.000
   130C    -0.01400 -0.01401   1.077  2.937  0.000
   131C    -0.01641 -0.01642   1.075  2.941  0.000
   132C    -0.01249 -0.01258   1.078  2.935  0.000
   133C    -0.02109 -0.02183   1.059  2.962  0.000
   134C    -0.01408 -0.01567   1.095  2.919  0.000
   135C    -0.01578 -0.01737   1.093  2.923  0.000
   136C    -0.01970 -0.02045   1.060  2.960  0.000
   137C    -0.01436 -0.01445   1.076  2.938  0.000
   138C    -0.01537 -0.01538   1.076  2.939  0.000
   139C    -0.01599 -0.01599   1.076  2.940  0.000
   140C    -0.01395 -0.01405   1.077  2.937  0.000
   141C    -0.02051 -0.02125   1.060  2.961  0.000
   142C    -0.01540 -0.01699   1.094  2.922  0.000
   143C    -0.01509 -0.01668   1.093  2.922  0.000
   144C    -0.01988 -0.02062   1.060  2.960  0.000
   145C    -0.01369 -0.01378   1.077  2.937  0.000
   146C    -0.01551 -0.01552   1.076  2.940  0.000
   147C    -0.01539 -0.01540   1.076  2.940  0.000
   148C    -0.01410 -0.01420   1.076  2.938  0.000
   149C    -0.02003 -0.02077   1.060  2.960  0.000
   150C    -0.01557 -0.01716   1.093  2.922  0.000
   151C    -0.01507 -0.01666   1.093  2.922  0.000
   152C    -0.01973 -0.02047   1.060  2.960  0.000
   153C    -0.01372 -0.01381   1.076  2.937  0.000
   154C    -0.01541 -0.01542   1.076  2.940  0.000
   155C    -0.01547 -0.01548   1.076  2.940  0.000
   156C    -0.01406 -0.01415   1.076  2.938  0.000
   157C    -0.02016 -0.02090   1.060  2.960  0.000
   158C    -0.01558 -0.01717   1.093  2.922  0.000
   159C    -0.01492 -0.01651   1.094  2.921  0.000
   160C    -0.02010 -0.02084   1.060  2.960  0.000
   161C    -0.01356 -0.01365   1.077  2.937  0.000
   162C    -0.01585 -0.01586   1.075  2.940  0.000
   163C    -0.01529 -0.01530   1.076  2.939  0.000
   164C    -0.01455 -0.01465   1.076  2.938  0.000
   165C    -0.01991 -0.02065   1.060  2.960  0.000
   166C    -0.01609 -0.01767   1.093  2.923  0.000
   167C    -0.01338 -0.01497   1.095  2.918  0.000
   168C    -0.02028 -0.02102   1.059  2.961  0.000
   169C    -0.01167 -0.01177   1.078  2.934  0.000
   170C    -0.01572 -0.01572   1.075  2.941  0.000
   171C    -0.01331 -0.01332   1.077  2.936  0.000
   172C    -0.01426 -0.01435   1.075  2.939  0.000
   173C    -0.01811 -0.01888   1.061  2.957  0.000
   174C    -0.01586 -0.01750   1.092  2.924  0.000
   175C     0.01422  0.02144   1.082  2.904  0.000
   176C     0.06578  0.13067   1.109  2.825  0.000
   177C    -0.03580 -0.08023   1.079  2.957  0.000
   178C    -0.03411 -0.07905   1.075  2.959  0.000
   179C     0.05974  0.12311   1.098  2.842  0.000
   180N    -0.15676 -0.50910   1.314  3.843  0.000
   181C     0.01161  0.01729   1.094  2.895  0.000
   182C    -0.00508 -0.01327   1.074  2.932  0.000
   183C    -0.04591 -0.09531   1.050  2.996  0.000
   184C     0.08265  0.09996   1.113  2.805  0.000
   185O    -0.29234 -0.48927   1.624  4.668  0.000
   186C     0.07819  0.10044   1.102  2.820  0.000
   187O    -0.29255 -0.48513   1.626  4.666  0.000
   188C     0.07265  0.08769   1.105  2.823  0.000
   189O    -0.30064 -0.50563   1.622  4.679  0.000
   190C    -0.04760 -0.09702   1.049  2.999  0.000
   191C     0.05728  0.12519   1.117  2.826  0.000
   192C    -0.03871 -0.08474   1.085  2.953  0.000
   193C    -0.03950 -0.08495   1.090  2.949  0.000
   194N    -0.28504 -0.47121   1.293  3.992  0.000
   195C     0.06408  0.13498   1.130  2.806  0.000
   196C     0.01614  0.02337   1.083  2.901  0.000
   197C     0.06643  0.13139   1.109  2.824  0.000
   198C    -0.03435 -0.07879   1.079  2.956  0.000
   199C    -0.03253 -0.07749   1.075  2.957  0.000
   200C     0.06095  0.12428   1.098  2.841  0.000
   201N    -0.15603 -0.50841   1.314  3.842  0.000
   202C     0.01216  0.01786   1.093  2.895  0.000
   203C    -0.00333 -0.01143   1.076  2.927  0.000
   204C    -0.04052 -0.08862   1.060  2.980  0.000
   205C     0.08247  0.09959   1.115  2.803  0.000
   206O    -0.29237 -0.48758   1.629  4.663  0.000
   207C     0.06811  0.08792   1.093  2.839  0.000
   208O    -0.30039 -0.50028   1.623  4.678  0.000
   209C     0.07358  0.08866   1.104  2.822  0.000
   210O    -0.30160 -0.50517   1.624  4.678  0.000
   211C    -0.04662 -0.09611   1.050  2.997  0.000
   212C     0.05770  0.12573   1.117  2.826  0.000
   213C    -0.03884 -0.08486   1.085  2.954  0.000
   214C    -0.04010 -0.08555   1.090  2.950  0.000
   215C     0.06369  0.13448   1.130  2.807  0.000
   216N    -0.28554 -0.47172   1.293  3.993  0.000
   217H     0.03361  0.09168   0.966  0.000  0.000
   218H     0.03241  0.09130   0.968  0.000  0.000
   219H     0.16276  0.37071   0.837  0.000  0.000
   220H     0.03279  0.09336   0.967  0.000  0.000
   221H     0.23139  0.40409   0.769  0.000  0.000
   222H     0.23654  0.41729   0.763  0.000  0.000
   223H     0.23372  0.40635   0.766  0.000  0.000
   224H     0.03262  0.09285   0.967  0.000  0.000
   225H     0.02399  0.08286   0.976  0.000  0.000
   226H     0.02466  0.08270   0.975  0.000  0.000
   227H     0.03461  0.09268   0.965  0.000  0.000
   228H     0.03339  0.09231   0.967  0.000  0.000
   229H     0.16267  0.37064   0.837  0.000  0.000
   230H     0.03461  0.09546   0.965  0.000  0.000
   231H     0.23487  0.41426   0.765  0.000  0.000
   232H     0.23931  0.41865   0.761  0.000  0.000
   233H     0.23317  0.40566   0.767  0.000  0.000
   234H     0.03224  0.09248   0.968  0.000  0.000
   235H     0.02250  0.08137   0.977  0.000  0.000
   236H     0.02345  0.08150   0.977  0.000  0.000
   237C     0.01531  0.02253   1.083  2.902  0.000
   238C     0.06587  0.13081   1.109  2.825  0.000
   239C    -0.03544 -0.07987   1.079  2.957  0.000
   240C    -0.03404 -0.07898   1.075  2.959  0.000
   241C     0.05986  0.12321   1.098  2.842  0.000
   242N    -0.15642 -0.50879   1.314  3.842  0.000
   243C     0.01165  0.01733   1.093  2.895  0.000
   244C    -0.00508 -0.01326   1.073  2.932  0.000
   245C    -0.04596 -0.09536   1.050  2.996  0.000
   246C     0.08259  0.09991   1.113  2.805  0.000
   247O    -0.29242 -0.48936   1.624  4.668  0.000
   248C     0.07821  0.10047   1.102  2.820  0.000
   249O    -0.29254 -0.48512   1.626  4.666  0.000
   250C     0.07274  0.08780   1.105  2.822  0.000
   251O    -0.30050 -0.50548   1.622  4.679  0.000
   252C    -0.04751 -0.09693   1.049  2.999  0.000
   253C     0.05735  0.12526   1.117  2.826  0.000
   254C    -0.03863 -0.08465   1.085  2.953  0.000
   255C    -0.03954 -0.08499   1.090  2.949  0.000
   256N    -0.28514 -0.47130   1.293  3.992  0.000
   257C     0.06410  0.13499   1.130  2.806  0.000
   258C     0.01584  0.02307   1.083  2.901  0.000
   259C     0.06646  0.13141   1.109  2.824  0.000
   260C    -0.03445 -0.07889   1.079  2.956  0.000
   261C    -0.03243 -0.07738   1.075  2.957  0.000
   262C     0.06092  0.12425   1.098  2.841  0.000
   263N    -0.15607 -0.50846   1.314  3.842  0.000
   264C     0.01249  0.01818   1.093  2.894  0.000
   265C    -0.00330 -0.01139   1.076  2.927  0.000
   266C    -0.04048 -0.08858   1.060  2.980  0.000
   267C     0.08250  0.09963   1.115  2.803  0.000
   268O    -0.29236 -0.48758   1.629  4.663  0.000
   269C     0.06819  0.08801   1.093  2.839  0.000
   270O    -0.30033 -0.50022   1.623  4.678  0.000
   271C     0.07364  0.08873   1.104  2.822  0.000
   272O    -0.30153 -0.50510   1.624  4.678  0.000
   273C    -0.04653 -0.09602   1.050  2.996  0.000
   274C     0.05764  0.12559   1.117  2.826  0.000
   275C    -0.03877 -0.08479   1.085  2.954  0.000
   276C    -0.03985 -0.08530   1.090  2.950  0.000
   277C     0.06383  0.13469   1.130  2.807  0.000
   278N    -0.28507 -0.47125   1.293  3.992  0.000
   279H     0.03404  0.09212   0.966  0.000  0.000
   280H     0.03256  0.09145   0.967  0.000  0.000
   281H     0.16277  0.37072   0.837  0.000  0.000
   282H     0.03266  0.09323   0.967  0.000  0.000
   283H     0.23127  0.40398   0.769  0.000  0.000
   284H     0.23660  0.41734   0.763  0.000  0.000
   285H     0.23391  0.40653   0.766  0.000  0.000
   286H     0.03282  0.09305   0.967  0.000  0.000
   287H     0.02396  0.08283   0.976  0.000  0.000
   288H     0.02451  0.08255   0.975  0.000  0.000
   289H     0.03443  0.09251   0.966  0.000  0.000
   290H     0.03335  0.09227   0.967  0.000  0.000
   291H     0.16273  0.37070   0.837  0.000  0.000
   292H     0.03463  0.09548   0.965  0.000  0.000
   293H     0.23486  0.41425   0.765  0.000  0.000
   294H     0.23936  0.41869   0.761  0.000  0.000
   295H     0.23324  0.40573   0.767  0.000  0.000
   296H     0.03230  0.09255   0.968  0.000  0.000
   297H     0.02269  0.08156   0.977  0.000  0.000
   298H     0.02394  0.08197   0.976  0.000  0.000
   299C     0.01571  0.02294   1.083  2.901  0.000
   300C     0.06597  0.13091   1.109  2.825  0.000
   301C    -0.03514 -0.07957   1.079  2.956  0.000
   302C    -0.03387 -0.07881   1.075  2.959  0.000
   303C     0.06006  0.12340   1.098  2.842  0.000
   304N    -0.15635 -0.50871   1.314  3.842  0.000
   305C     0.01169  0.01738   1.094  2.895  0.000
   306C    -0.00511 -0.01329   1.073  2.932  0.000
   307C    -0.04597 -0.09537   1.050  2.996  0.000
   308C     0.08262  0.09994   1.113  2.805  0.000
   309O    -0.29239 -0.48933   1.624  4.668  0.000
   310C     0.07827  0.10053   1.102  2.820  0.000
   311O    -0.29247 -0.48505   1.626  4.666  0.000
   312C     0.07279  0.08785   1.105  2.822  0.000
   313O    -0.30042 -0.50540   1.622  4.679  0.000
   314C    -0.04751 -0.09692   1.049  2.999  0.000
   315C     0.05749  0.12540   1.117  2.825  0.000
   316C    -0.03858 -0.08461   1.085  2.953  0.000
   317C    -0.03945 -0.08490   1.090  2.949  0.000
   318N    -0.28503 -0.47119   1.293  3.992  0.000
   319C     0.06412  0.13501   1.130  2.806  0.000
   320C     0.01605  0.02328   1.083  2.901  0.000
   321C     0.06649  0.13143   1.109  2.824  0.000
   322C    -0.03431 -0.07875   1.079  2.956  0.000
   323C    -0.03235 -0.07731   1.075  2.957  0.000
   324C     0.06106  0.12441   1.098  2.841  0.000
   325N    -0.15600 -0.50840   1.314  3.842  0.000
   326C     0.01254  0.01823   1.093  2.894  0.000
   327C    -0.00333 -0.01142   1.076  2.927  0.000
   328C    -0.04049 -0.08859   1.060  2.980  0.000
   329C     0.08252  0.09965   1.115  2.803  0.000
   330O    -0.29234 -0.48756   1.629  4.663  0.000
   331C     0.06824  0.08806   1.093  2.839  0.000
   332O    -0.30027 -0.50016   1.623  4.678  0.000
   333C     0.07369  0.08878   1.104  2.822  0.000
   334O    -0.30146 -0.50502   1.624  4.678  0.000
   335C    -0.04653 -0.09602   1.050  2.996  0.000
   336C     0.05781  0.12576   1.117  2.825  0.000
   337C    -0.03865 -0.08467   1.085  2.953  0.000
   338C    -0.03962 -0.08507   1.090  2.950  0.000
   339C     0.06394  0.13481   1.130  2.806  0.000
   340N    -0.28492 -0.47112   1.293  3.992  0.000
   341H     0.03438  0.09245   0.966  0.000  0.000
   342H     0.03280  0.09169   0.967  0.000  0.000
   343H     0.16285  0.37080   0.837  0.000  0.000
   344H     0.03268  0.09325   0.967  0.000  0.000
   345H     0.23128  0.40399   0.769  0.000  0.000
   346H     0.23668  0.41742   0.763  0.000  0.000
   347H     0.23401  0.40663   0.766  0.000  0.000
   348H     0.03291  0.09314   0.967  0.000  0.000
   349H     0.02405  0.08293   0.976  0.000  0.000
   350H     0.02458  0.08263   0.975  0.000  0.000
   351H     0.03452  0.09259   0.965  0.000  0.000
   352H     0.03345  0.09237   0.967  0.000  0.000
   353H     0.16282  0.37079   0.837  0.000  0.000
   354H     0.03466  0.09551   0.965  0.000  0.000
   355H     0.23491  0.41429   0.765  0.000  0.000
   356H     0.23943  0.41876   0.761  0.000  0.000
   357H     0.23332  0.40581   0.767  0.000  0.000
   358H     0.03238  0.09262   0.968  0.000  0.000
   359H     0.02292  0.08178   0.977  0.000  0.000
   360H     0.02424  0.08228   0.976  0.000  0.000
   361C     0.01551  0.02274   1.083  2.902  0.000
   362C     0.06595  0.13089   1.109  2.825  0.000
   363C    -0.03525 -0.07968   1.079  2.956  0.000
   364C    -0.03394 -0.07888   1.075  2.959  0.000
   365C     0.05993  0.12326   1.098  2.842  0.000
   366N    -0.15640 -0.50877   1.314  3.842  0.000
   367C     0.01166  0.01735   1.094  2.895  0.000
   368C    -0.00509 -0.01327   1.073  2.932  0.000
   369C    -0.04597 -0.09538   1.050  2.996  0.000
   370C     0.08257  0.09989   1.113  2.805  0.000
   371O    -0.29246 -0.48941   1.624  4.668  0.000
   372C     0.07823  0.10049   1.102  2.820  0.000
   373O    -0.29253 -0.48511   1.626  4.666  0.000
   374C     0.07278  0.08783   1.105  2.822  0.000
   375O    -0.30044 -0.50542   1.622  4.679  0.000
   376C    -0.04749 -0.09691   1.049  2.999  0.000
   377C     0.05734  0.12526   1.117  2.826  0.000
   378C    -0.03869 -0.08472   1.085  2.953  0.000
   379C    -0.03966 -0.08512   1.090  2.950  0.000
   380N    -0.28516 -0.47132   1.293  3.992  0.000
   381C     0.06403  0.13490   1.130  2.806  0.000
   382C     0.01566  0.02288   1.083  2.902  0.000
   383C     0.06639  0.13133   1.109  2.824  0.000
   384C    -0.03459 -0.07903   1.079  2.956  0.000
   385C    -0.03251 -0.07747   1.075  2.957  0.000
   386C     0.06089  0.12424   1.098  2.841  0.000
   387N    -0.15607 -0.50847   1.314  3.842  0.000
   388C     0.01250  0.01820   1.093  2.894  0.000
   389C    -0.00330 -0.01139   1.076  2.927  0.000
   390C    -0.04050 -0.08860   1.060  2.980  0.000
   391C     0.08248  0.09960   1.115  2.803  0.000
   392O    -0.29242 -0.48764   1.629  4.663  0.000
   393C     0.06820  0.08801   1.093  2.839  0.000
   394O    -0.30034 -0.50023   1.623  4.678  0.000
   395C     0.07368  0.08876   1.104  2.822  0.000
   396O    -0.30148 -0.50504   1.624  4.678  0.000
   397C    -0.04651 -0.09600   1.050  2.996  0.000
   398C     0.05769  0.12563   1.117  2.826  0.000
   399C    -0.03870 -0.08472   1.085  2.954  0.000
   400C    -0.03968 -0.08513   1.090  2.950  0.000
   401C     0.06393  0.13482   1.130  2.806  0.000
   402N    -0.28500 -0.47121   1.293  3.992  0.000
   403H     0.03431  0.09238   0.966  0.000  0.000
   404H     0.03271  0.09160   0.967  0.000  0.000
   405H     0.16277  0.37073   0.837  0.000  0.000
   406H     0.03261  0.09318   0.967  0.000  0.000
   407H     0.23120  0.40391   0.769  0.000  0.000
   408H     0.23665  0.41739   0.763  0.000  0.000
   409H     0.23400  0.40662   0.766  0.000  0.000
   410H     0.03289  0.09313   0.967  0.000  0.000
   411H     0.02386  0.08273   0.976  0.000  0.000
   412H     0.02431  0.08235   0.976  0.000  0.000
   413H     0.03421  0.09228   0.966  0.000  0.000
   414H     0.03323  0.09216   0.967  0.000  0.000
   415H     0.16275  0.37072   0.837  0.000  0.000
   416H     0.03458  0.09543   0.965  0.000  0.000
   417H     0.23483  0.41422   0.765  0.000  0.000
   418H     0.23940  0.41873   0.761  0.000  0.000
   419H     0.23332  0.40580   0.767  0.000  0.000
   420H     0.03236  0.09261   0.968  0.000  0.000
   421H     0.02284  0.08171   0.977  0.000  0.000
   422H     0.02419  0.08223   0.976  0.000  0.000
   423C     0.01601  0.02324   1.083  2.901  0.000
   424C     0.06597  0.13092   1.109  2.825  0.000
   425C    -0.03507 -0.07951   1.079  2.956  0.000
   426C    -0.03394 -0.07889   1.075  2.959  0.000
   427C     0.06009  0.12341   1.098  2.842  0.000
   428N    -0.15630 -0.50866   1.314  3.842  0.000
   429C     0.01142  0.01711   1.093  2.895  0.000
   430C    -0.00515 -0.01333   1.073  2.932  0.000
   431C    -0.04601 -0.09539   1.050  2.996  0.000
   432C     0.08258  0.09990   1.113  2.805  0.000
   433O    -0.29243 -0.48937   1.624  4.668  0.000
   434C     0.07828  0.10053   1.102  2.820  0.000
   435O    -0.29246 -0.48504   1.626  4.666  0.000
   436C     0.07280  0.08785   1.105  2.822  0.000
   437O    -0.30038 -0.50536   1.622  4.679  0.000
   438C    -0.04748 -0.09692   1.049  2.999  0.000
   439C     0.05758  0.12558   1.117  2.825  0.000
   440C    -0.03852 -0.08454   1.086  2.953  0.000
   441C    -0.03968 -0.08513   1.090  2.950  0.000
   442N    -0.28550 -0.47166   1.293  3.993  0.000
   443C     0.06398  0.13475   1.130  2.806  0.000
   444C     0.01492  0.02215   1.082  2.903  0.000
   445C     0.06640  0.13131   1.109  2.824  0.000
   446C    -0.03482 -0.07926   1.079  2.956  0.000
   447C    -0.03249 -0.07745   1.075  2.957  0.000
   448C     0.06088  0.12426   1.098  2.841  0.000
   449N    -0.15633 -0.50873   1.314  3.843  0.000
   450C     0.01247  0.01817   1.093  2.894  0.000
   451C    -0.00331 -0.01140   1.076  2.927  0.000
   452C    -0.04056 -0.08867   1.060  2.981  0.000
   453C     0.08239  0.09951   1.115  2.803  0.000
   454O    -0.29259 -0.48781   1.629  4.664  0.000
   455C     0.06820  0.08801   1.093  2.839  0.000
   456O    -0.30035 -0.50024   1.623  4.678  0.000
   457C     0.07373  0.08880   1.104  2.822  0.000
   458O    -0.30139 -0.50495   1.624  4.678  0.000
   459C    -0.04647 -0.09594   1.050  2.996  0.000
   460C     0.05773  0.12567   1.117  2.826  0.000
   461C    -0.03872 -0.08474   1.085  2.954  0.000
   462C    -0.03958 -0.08503   1.090  2.950  0.000
   463C     0.06395  0.13484   1.130  2.806  0.000
   464N    -0.28479 -0.47102   1.293  3.992  0.000
   465H     0.03455  0.09262   0.965  0.000  0.000
   466H     0.03284  0.09175   0.967  0.000  0.000
   467H     0.16276  0.37073   0.837  0.000  0.000
   468H     0.03260  0.09318   0.967  0.000  0.000
   469H     0.23122  0.40393   0.769  0.000  0.000
   470H     0.23673  0.41748   0.763  0.000  0.000
   471H     0.23405  0.40668   0.766  0.000  0.000
   472H     0.03290  0.09315   0.967  0.000  0.000
   473H     0.02397  0.08282   0.976  0.000  0.000
   474H     0.02426  0.08229   0.976  0.000  0.000
   475H     0.03390  0.09198   0.966  0.000  0.000
   476H     0.03315  0.09207   0.967  0.000  0.000
   477H     0.16281  0.37079   0.837  0.000  0.000
   478H     0.03447  0.09531   0.966  0.000  0.000
   479H     0.23479  0.41419   0.765  0.000  0.000
   480H     0.23949  0.41883   0.761  0.000  0.000
   481H     0.23345  0.40594   0.767  0.000  0.000
   482H     0.03249  0.09274   0.968  0.000  0.000
   483H     0.02294  0.08179   0.977  0.000  0.000
   484H     0.02442  0.08246   0.976  0.000  0.000

Wiberg/Mayer (AO) data.
largest (>0.10) Wiberg bond orders for each atom

 ---------------------------------------------------------------------------
     #   Z sym  total        # sym  WBO       # sym  WBO       # sym  WBO
 ---------------------------------------------------------------------------
     1   6 C    3.816 --    41 C    1.385     2 C    1.374    43 H    0.996
     2   6 C    3.925 --     1 C    1.374     3 C    1.239     6 N    1.230
     3   6 C    3.841 --     4 C    1.600     2 C    1.239    44 H    0.992
     4   6 C    3.825 --     3 C    1.600     5 C    1.252    45 H    0.999
     5   6 C    3.900 --     7 C    1.343     4 C    1.252     6 N    1.231
     6   7 N    3.250 --     5 C    1.231     2 C    1.230    46 H    0.961
     7   6 C    3.838 --    17 C    1.368     5 C    1.343     8 C    1.053
     8   6 C    3.889 --    16 C    1.411     9 C    1.403     7 C    1.053
     9   6 C    3.816 --     8 C    1.403    10 C    1.401    47 H    0.992
    10   6 C    3.939 --     9 C    1.401    12 C    1.368    11 O    1.096
    11   8 O    2.114 --    10 C    1.096    48 H    0.962
    12   6 C    3.914 --    10 C    1.368    14 C    1.357    13 O    1.092
    13   8 O    2.105 --    12 C    1.092    49 H    0.960
    14   6 C    3.977 --    16 C    1.393    12 C    1.357    15 O    1.126
    15   8 O    2.160 --    14 C    1.126    50 H    0.963
    16   6 C    3.839 --     8 C    1.411    14 C    1.393    51 H    0.993
    17   6 C    3.926 --     7 C    1.368    20 N    1.356    18 C    1.163
    18   6 C    3.840 --    19 C    1.693    17 C    1.163    52 H    0.999
    19   6 C    3.852 --    18 C    1.693    21 C    1.166    53 H    0.999
    20   7 N    2.569 --    21 C    1.413    17 C    1.356
    21   6 C    3.943 --    20 N    1.413    22 C    1.287    19 C    1.166
    22   6 C    3.851 --    23 C    1.288    21 C    1.287   127 C    1.219
    23   6 C    3.904 --    22 C    1.288    24 C    1.264    27 N    1.250
    24   6 C    3.837 --    25 C    1.587    23 C    1.264    54 H    0.998
    25   6 C    3.818 --    24 C    1.587    26 C    1.258    55 H    0.999
    26   6 C    3.895 --    28 C    1.349    25 C    1.258    27 N    1.221
    27   7 N    3.260 --    23 C    1.250    26 C    1.221    56 H    0.960
    28   6 C    3.826 --    38 C    1.354    26 C    1.349    29 C    1.055
    29   6 C    3.889 --    30 C    1.410    37 C    1.402    28 C    1.055
    30   6 C    3.839 --    29 C    1.410    31 C    1.393    57 H    0.992
    31   6 C    3.978 --    30 C    1.393    33 C    1.357    32 O    1.126
    32   8 O    2.160 --    31 C    1.126    58 H    0.962
    33   6 C    3.913 --    35 C    1.368    31 C    1.357    34 O    1.092
    34   8 O    2.105 --    33 C    1.092    59 H    0.960
    35   6 C    3.939 --    37 C    1.401    33 C    1.368    36 O    1.095
    36   8 O    2.113 --    35 C    1.095    60 H    0.962
    37   6 C    3.815 --    29 C    1.402    35 C    1.401    61 H    0.992
    38   6 C    3.945 --    42 N    1.384    28 C    1.354    39 C    1.155
    39   6 C    3.843 --    40 C    1.706    38 C    1.155    62 H    1.000
    40   6 C    3.863 --    39 C    1.706    41 C    1.148    63 H    0.993
    41   6 C    3.968 --     1 C    1.385    42 N    1.374    40 C    1.148
    42   7 N    2.556 --    38 C    1.384    41 C    1.374
    43   1 H    1.032 --     1 C    0.996
    44   1 H    1.015 --     3 C    0.992
    45   1 H    1.026 --     4 C    0.999
    46   1 H    1.082 --     6 N    0.961
    47   1 H    1.024 --     9 C    0.992
    48   1 H    0.995 --    11 O    0.962
    49   1 H    0.990 --    13 O    0.960
    50   1 H    0.994 --    15 O    0.963
    51   1 H    1.030 --    16 C    0.993
    52   1 H    1.028 --    18 C    0.999
    53   1 H    1.031 --    19 C    0.999
    54   1 H    1.028 --    24 C    0.998
    55   1 H    1.026 --    25 C    0.999
    56   1 H    1.085 --    27 N    0.960
    57   1 H    1.031 --    30 C    0.992
    58   1 H    0.994 --    32 O    0.962
    59   1 H    0.990 --    34 O    0.960
    60   1 H    0.995 --    36 O    0.962
    61   1 H    1.023 --    37 C    0.992
    62   1 H    1.028 --    39 C    1.000
    63   1 H    1.018 --    40 C    0.993
    64   6 C    3.817 --   104 C    1.385    65 C    1.374   106 H    0.996
    65   6 C    3.925 --    64 C    1.374    66 C    1.239    69 N    1.230
    66   6 C    3.842 --    67 C    1.601    65 C    1.239   107 H    0.992
    67   6 C    3.825 --    66 C    1.601    68 C    1.251   108 H    0.999
    68   6 C    3.900 --    70 C    1.343    67 C    1.251    69 N    1.231
    69   7 N    3.250 --    68 C    1.231    65 C    1.230   109 H    0.961
    70   6 C    3.838 --    80 C    1.368    68 C    1.343    71 C    1.053
    71   6 C    3.889 --    79 C    1.411    72 C    1.404    70 C    1.053
    72   6 C    3.816 --    71 C    1.404    73 C    1.401   110 H    0.992
    73   6 C    3.939 --    72 C    1.401    75 C    1.368    74 O    1.096
    74   8 O    2.114 --    73 C    1.096   111 H    0.962
    75   6 C    3.914 --    73 C    1.368    77 C    1.357    76 O    1.092
    76   8 O    2.105 --    75 C    1.092   112 H    0.960
    77   6 C    3.978 --    79 C    1.393    75 C    1.357    78 O    1.126
    78   8 O    2.160 --    77 C    1.126   113 H    0.963
    79   6 C    3.839 --    71 C    1.411    77 C    1.393   114 H    0.992
    80   6 C    3.927 --    70 C    1.368    83 N    1.356    81 C    1.162
    81   6 C    3.840 --    82 C    1.693    80 C    1.162   115 H    0.999
    82   6 C    3.853 --    81 C    1.693    84 C    1.165   116 H    0.999
    83   7 N    2.569 --    84 C    1.413    80 C    1.356
    84   6 C    3.943 --    83 N    1.413    85 C    1.288    82 C    1.165
    85   6 C    3.853 --    86 C    1.289    84 C    1.288   174 C    1.218
    86   6 C    3.904 --    85 C    1.289    87 C    1.264    90 N    1.250
    87   6 C    3.837 --    88 C    1.588    86 C    1.264   117 H    0.998
    88   6 C    3.818 --    87 C    1.588    89 C    1.257   118 H    0.998
    89   6 C    3.896 --    91 C    1.349    88 C    1.257    90 N    1.221
    90   7 N    3.261 --    86 C    1.250    89 C    1.221   119 H    0.960
    91   6 C    3.826 --   101 C    1.354    89 C    1.349    92 C    1.054
    92   6 C    3.889 --    93 C    1.410   100 C    1.403    91 C    1.054
    93   6 C    3.839 --    92 C    1.410    94 C    1.393   120 H    0.992
    94   6 C    3.978 --    93 C    1.393    96 C    1.357    95 O    1.127
    95   8 O    2.161 --    94 C    1.127   121 H    0.962
    96   6 C    3.914 --    98 C    1.368    94 C    1.357    97 O    1.093
    97   8 O    2.105 --    96 C    1.093   122 H    0.960
    98   6 C    3.939 --   100 C    1.401    96 C    1.368    99 O    1.095
    99   8 O    2.113 --    98 C    1.095   123 H    0.962
   100   6 C    3.815 --    92 C    1.403    98 C    1.401   124 H    0.992
   101   6 C    3.946 --   105 N    1.384    91 C    1.354   102 C    1.155
   102   6 C    3.843 --   103 C    1.706   101 C    1.155   125 H    1.000
   103   6 C    3.863 --   102 C    1.706   104 C    1.148   126 H    0.993
   104   6 C    3.968 --    64 C    1.385   105 N    1.374   103 C    1.148
   105   7 N    2.557 --   101 C    1.384   104 C    1.374
   106   1 H    1.032 --    64 C    0.996
   107   1 H    1.015 --    66 C    0.992
   108   1 H    1.026 --    67 C    0.999
   109   1 H    1.082 --    69 N    0.961
   110   1 H    1.024 --    72 C    0.992
   111   1 H    0.995 --    74 O    0.962
   112   1 H    0.990 --    76 O    0.960
   113   1 H    0.994 --    78 O    0.963
   114   1 H    1.030 --    79 C    0.992
   115   1 H    1.028 --    81 C    0.999
   116   1 H    1.031 --    82 C    0.999
   117   1 H    1.028 --    87 C    0.998
   118   1 H    1.026 --    88 C    0.998
   119   1 H    1.085 --    90 N    0.960
   120   1 H    1.031 --    93 C    0.992
   121   1 H    0.994 --    95 O    0.962
   122   1 H    0.990 --    97 O    0.960
   123   1 H    0.995 --    99 O    0.962
   124   1 H    1.023 --   100 C    0.992
   125   1 H    1.028 --   102 C    1.000
   126   1 H    1.018 --   103 C    0.993
   127   6 C    3.755 --   128 C    2.465    22 C    1.219   130 C    0.168
   128   6 C    3.812 --   127 C    2.465   129 C    1.362
   129   6 C    3.802 --   130 C    2.346   128 C    1.362   132 C    0.162
   130   6 C    3.840 --   129 C    2.346   131 C    1.390   127 C    0.168
   131   6 C    3.837 --   132 C    2.344   130 C    1.390   134 C    0.167
   132   6 C    3.804 --   131 C    2.344   133 C    1.365   129 C    0.162
   133   6 C    3.806 --   134 C    2.459   132 C    1.365
   134   6 C    3.757 --   133 C    2.459   175 C    1.225   131 C    0.167
   135   6 C    3.755 --   136 C    2.452   196 C    1.230   138 C    0.166
   136   6 C    3.805 --   135 C    2.452   137 C    1.371
   137   6 C    3.802 --   138 C    2.335   136 C    1.371   140 C    0.161
   138   6 C    3.836 --   137 C    2.335   139 C    1.398   135 C    0.166
   139   6 C    3.836 --   140 C    2.335   138 C    1.398   142 C    0.166
   140   6 C    3.802 --   139 C    2.335   141 C    1.371   137 C    0.161
   141   6 C    3.805 --   142 C    2.452   140 C    1.371
   142   6 C    3.755 --   141 C    2.452   237 C    1.230   139 C    0.166
   143   6 C    3.755 --   144 C    2.453   258 C    1.230   146 C    0.167
   144   6 C    3.806 --   143 C    2.453   145 C    1.370
   145   6 C    3.803 --   146 C    2.336   144 C    1.370   148 C    0.161
   146   6 C    3.837 --   145 C    2.336   147 C    1.397   143 C    0.167
   147   6 C    3.837 --   148 C    2.336   146 C    1.397   150 C    0.167
   148   6 C    3.802 --   147 C    2.336   149 C    1.370   145 C    0.161
   149   6 C    3.806 --   150 C    2.453   148 C    1.370
   150   6 C    3.755 --   149 C    2.453   299 C    1.230   147 C    0.167
   151   6 C    3.755 --   152 C    2.453   320 C    1.229   154 C    0.167
   152   6 C    3.806 --   151 C    2.453   153 C    1.370
   153   6 C    3.802 --   154 C    2.336   152 C    1.370   156 C    0.161
   154   6 C    3.837 --   153 C    2.336   155 C    1.397   151 C    0.167
   155   6 C    3.837 --   156 C    2.336   154 C    1.397   158 C    0.167
   156   6 C    3.803 --   155 C    2.336   157 C    1.371   153 C    0.161
   157   6 C    3.806 --   158 C    2.453   156 C    1.371
   158   6 C    3.755 --   157 C    2.453   361 C    1.230   155 C    0.167
   159   6 C    3.755 --   160 C    2.452   382 C    1.230   162 C    0.166
   160   6 C    3.806 --   159 C    2.452   161 C    1.371
   161   6 C    3.802 --   162 C    2.335   160 C    1.371   164 C    0.161
   162   6 C    3.836 --   161 C    2.335   163 C    1.398   159 C    0.166
   163   6 C    3.836 --   164 C    2.335   162 C    1.398   166 C    0.166
   164   6 C    3.802 --   163 C    2.335   165 C    1.371   161 C    0.161
   165   6 C    3.805 --   166 C    2.452   164 C    1.371
   166   6 C    3.755 --   165 C    2.452   423 C    1.230   163 C    0.166
   167   6 C    3.757 --   168 C    2.460   444 C    1.224   170 C    0.167
   168   6 C    3.807 --   167 C    2.460   169 C    1.364
   169   6 C    3.805 --   170 C    2.345   168 C    1.364   172 C    0.162
   170   6 C    3.837 --   169 C    2.345   171 C    1.389   167 C    0.167
   171   6 C    3.840 --   172 C    2.347   170 C    1.389   174 C    0.168
   172   6 C    3.802 --   171 C    2.347   173 C    1.361   169 C    0.162
   173   6 C    3.812 --   174 C    2.467   172 C    1.361
   174   6 C    3.755 --   173 C    2.467    85 C    1.218   171 C    0.168
   175   6 C    3.829 --   215 C    1.283   176 C    1.280   134 C    1.225
   176   6 C    3.905 --   175 C    1.280   177 C    1.271   180 N    1.251
   177   6 C    3.828 --   178 C    1.577   176 C    1.271   217 H    0.998
   178   6 C    3.819 --   177 C    1.577   179 C    1.266   218 H    0.999
   179   6 C    3.887 --   181 C    1.337   178 C    1.266   180 N    1.221
   180   7 N    3.251 --   176 C    1.251   179 C    1.221   219 H    0.961
   181   6 C    3.830 --   191 C    1.373   179 C    1.337   182 C    1.053
   182   6 C    3.885 --   183 C    1.411   190 C    1.401   181 C    1.053
   183   6 C    3.814 --   182 C    1.411   184 C    1.395   220 H    0.993
   184   6 C    3.970 --   183 C    1.395   186 C    1.353   185 O    1.119
   185   8 O    2.150 --   184 C    1.119   221 H    0.963
   186   6 C    3.947 --   188 C    1.358   184 C    1.353   187 O    1.118
   187   8 O    2.148 --   186 C    1.118   222 H    0.961
   188   6 C    3.937 --   190 C    1.407   186 C    1.358   189 O    1.091
   189   8 O    2.108 --   188 C    1.091   223 H    0.961
   190   6 C    3.811 --   188 C    1.407   182 C    1.401   224 H    0.992
   191   6 C    3.924 --   181 C    1.373   194 N    1.350   192 C    1.164
   192   6 C    3.839 --   193 C    1.690   191 C    1.164   225 H    1.000
   193   6 C    3.849 --   192 C    1.690   195 C    1.168   226 H    0.999
   194   7 N    2.553 --   195 C    1.418   191 C    1.350
   195   6 C    3.942 --   194 N    1.418   196 C    1.280   193 C    1.168
   196   6 C    3.829 --   195 C    1.280   197 C    1.279   135 C    1.230
   197   6 C    3.903 --   196 C    1.279   198 C    1.271   201 N    1.252
   198   6 C    3.829 --   199 C    1.578   197 C    1.271   227 H    0.998
   199   6 C    3.817 --   198 C    1.578   200 C    1.265   228 H    0.999
   200   6 C    3.887 --   202 C    1.337   199 C    1.265   201 N    1.221
   201   7 N    3.253 --   197 C    1.252   200 C    1.221   229 H    0.961
   202   6 C    3.828 --   212 C    1.374   200 C    1.337   203 C    1.052
   203   6 C    3.889 --   204 C    1.411   211 C    1.404   202 C    1.052
   204   6 C    3.839 --   203 C    1.411   205 C    1.393   230 H    0.992
   205   6 C    3.978 --   204 C    1.393   207 C    1.357   206 O    1.126
   206   8 O    2.160 --   205 C    1.126   231 H    0.963
   207   6 C    3.914 --   209 C    1.368   205 C    1.357   208 O    1.092
   208   8 O    2.104 --   207 C    1.092   232 H    0.960
   209   6 C    3.939 --   211 C    1.401   207 C    1.368   210 O    1.095
   210   8 O    2.113 --   209 C    1.095   233 H    0.962
   211   6 C    3.815 --   203 C    1.404   209 C    1.401   234 H    0.992
   212   6 C    3.925 --   202 C    1.374   216 N    1.351   213 C    1.163
   213   6 C    3.840 --   214 C    1.691   212 C    1.163   235 H    1.000
   214   6 C    3.849 --   213 C    1.691   215 C    1.167   236 H    0.999
   215   6 C    3.944 --   216 N    1.416   175 C    1.283   214 C    1.167
   216   7 N    2.550 --   215 C    1.416   212 C    1.351
   217   1 H    1.028 --   177 C    0.998
   218   1 H    1.024 --   178 C    0.999
   219   1 H    1.083 --   180 N    0.961
   220   1 H    1.022 --   183 C    0.993
   221   1 H    1.001 --   185 O    0.963
   222   1 H    0.995 --   187 O    0.961
   223   1 H    0.995 --   189 O    0.961
   224   1 H    1.020 --   190 C    0.992
   225   1 H    1.026 --   192 C    1.000
   226   1 H    1.032 --   193 C    0.999
   227   1 H    1.028 --   198 C    0.998
   228   1 H    1.026 --   199 C    0.999
   229   1 H    1.083 --   201 N    0.961
   230   1 H    1.031 --   204 C    0.992
   231   1 H    0.994 --   206 O    0.963
   232   1 H    0.991 --   208 O    0.960
   233   1 H    0.995 --   210 O    0.962
   234   1 H    1.024 --   211 C    0.992
   235   1 H    1.028 --   213 C    1.000
   236   1 H    1.032 --   214 C    0.999
   237   6 C    3.830 --   277 C    1.281   238 C    1.278   142 C    1.230
   238   6 C    3.904 --   237 C    1.278   239 C    1.273   242 N    1.252
   239   6 C    3.829 --   240 C    1.576   238 C    1.273   279 H    0.998
   240   6 C    3.818 --   239 C    1.576   241 C    1.267   280 H    0.999
   241   6 C    3.887 --   243 C    1.336   240 C    1.267   242 N    1.221
   242   7 N    3.252 --   238 C    1.252   241 C    1.221   281 H    0.961
   243   6 C    3.829 --   253 C    1.374   241 C    1.336   244 C    1.053
   244   6 C    3.885 --   245 C    1.411   252 C    1.401   243 C    1.053
   245   6 C    3.814 --   244 C    1.411   246 C    1.395   282 H    0.993
   246   6 C    3.969 --   245 C    1.395   248 C    1.353   247 O    1.118
   247   8 O    2.150 --   246 C    1.118   283 H    0.963
   248   6 C    3.947 --   250 C    1.357   246 C    1.353   249 O    1.118
   249   8 O    2.148 --   248 C    1.118   284 H    0.961
   250   6 C    3.937 --   252 C    1.407   248 C    1.357   251 O    1.091
   251   8 O    2.108 --   250 C    1.091   285 H    0.961
   252   6 C    3.811 --   250 C    1.407   244 C    1.401   286 H    0.992
   253   6 C    3.925 --   243 C    1.374   256 N    1.350   254 C    1.164
   254   6 C    3.840 --   255 C    1.691   253 C    1.164   287 H    1.000
   255   6 C    3.849 --   254 C    1.691   257 C    1.168   288 H    0.999
   256   7 N    2.552 --   257 C    1.418   253 C    1.350
   257   6 C    3.943 --   256 N    1.418   258 C    1.280   255 C    1.168
   258   6 C    3.830 --   257 C    1.280   259 C    1.279   143 C    1.230
   259   6 C    3.904 --   258 C    1.279   260 C    1.271   263 N    1.252
   260   6 C    3.830 --   261 C    1.578   259 C    1.271   289 H    0.998
   261   6 C    3.817 --   260 C    1.578   262 C    1.265   290 H    0.999
   262   6 C    3.887 --   264 C    1.338   261 C    1.265   263 N    1.221
   263   7 N    3.252 --   259 C    1.252   262 C    1.221   291 H    0.961
   264   6 C    3.828 --   274 C    1.373   262 C    1.338   265 C    1.053
   265   6 C    3.889 --   266 C    1.411   273 C    1.404   264 C    1.053
   266   6 C    3.839 --   265 C    1.411   267 C    1.393   292 H    0.992
   267   6 C    3.978 --   266 C    1.393   269 C    1.357   268 O    1.126
   268   8 O    2.160 --   267 C    1.126   293 H    0.963
   269   6 C    3.914 --   271 C    1.368   267 C    1.357   270 O    1.092
   270   8 O    2.105 --   269 C    1.092   294 H    0.960
   271   6 C    3.939 --   273 C    1.401   269 C    1.368   272 O    1.095
   272   8 O    2.113 --   271 C    1.095   295 H    0.962
   273   6 C    3.815 --   265 C    1.404   271 C    1.401   296 H    0.992
   274   6 C    3.924 --   264 C    1.373   278 N    1.351   275 C    1.164
   275   6 C    3.839 --   276 C    1.690   274 C    1.164   297 H    1.000
   276   6 C    3.849 --   275 C    1.690   277 C    1.168   298 H    0.999
   277   6 C    3.943 --   278 N    1.417   237 C    1.281   276 C    1.168
   278   7 N    2.552 --   277 C    1.417   274 C    1.351
   279   1 H    1.028 --   239 C    0.998
   280   1 H    1.024 --   240 C    0.999
   281   1 H    1.083 --   242 N    0.961
   282   1 H    1.022 --   245 C    0.993
   283   1 H    1.001 --   247 O    0.963
   284   1 H    0.995 --   249 O    0.961
   285   1 H    0.995 --   251 O    0.961
   286   1 H    1.020 --   252 C    0.992
   287   1 H    1.026 --   254 C    1.000
   288   1 H    1.032 --   255 C    0.999
   289   1 H    1.029 --   260 C    0.998
   290   1 H    1.026 --   261 C    0.999
   291   1 H    1.083 --   263 N    0.961
   292   1 H    1.031 --   266 C    0.992
   293   1 H    0.994 --   268 O    0.963
   294   1 H    0.991 --   270 O    0.960
   295   1 H    0.995 --   272 O    0.962
   296   1 H    1.024 --   273 C    0.992
   297   1 H    1.028 --   275 C    1.000
   298   1 H    1.032 --   276 C    0.999
   299   6 C    3.831 --   339 C    1.281   300 C    1.279   150 C    1.230
   300   6 C    3.904 --   299 C    1.279   301 C    1.272   304 N    1.252
   301   6 C    3.830 --   302 C    1.576   300 C    1.272   341 H    0.998
   302   6 C    3.819 --   301 C    1.576   303 C    1.266   342 H    0.999
   303   6 C    3.888 --   305 C    1.337   302 C    1.266   304 N    1.222
   304   7 N    3.252 --   300 C    1.252   303 C    1.222   343 H    0.961
   305   6 C    3.829 --   315 C    1.374   303 C    1.337   306 C    1.053
   306   6 C    3.885 --   307 C    1.411   314 C    1.401   305 C    1.053
   307   6 C    3.814 --   306 C    1.411   308 C    1.395   344 H    0.993
   308   6 C    3.969 --   307 C    1.395   310 C    1.353   309 O    1.118
   309   8 O    2.150 --   308 C    1.118   345 H    0.963
   310   6 C    3.947 --   312 C    1.357   308 C    1.353   311 O    1.118
   311   8 O    2.148 --   310 C    1.118   346 H    0.961
   312   6 C    3.937 --   314 C    1.407   310 C    1.357   313 O    1.091
   313   8 O    2.108 --   312 C    1.091   347 H    0.961
   314   6 C    3.811 --   312 C    1.407   306 C    1.401   348 H    0.992
   315   6 C    3.925 --   305 C    1.374   318 N    1.350   316 C    1.164
   316   6 C    3.840 --   317 C    1.691   315 C    1.164   349 H    1.000
   317   6 C    3.850 --   316 C    1.691   319 C    1.168   350 H    0.999
   318   7 N    2.553 --   319 C    1.417   315 C    1.350
   319   6 C    3.943 --   318 N    1.417   320 C    1.281   317 C    1.168
   320   6 C    3.832 --   319 C    1.281   321 C    1.280   151 C    1.229
   321   6 C    3.904 --   320 C    1.280   322 C    1.271   325 N    1.252
   322   6 C    3.830 --   323 C    1.579   321 C    1.271   351 H    0.998
   323   6 C    3.818 --   322 C    1.579   324 C    1.265   352 H    0.999
   324   6 C    3.888 --   326 C    1.338   323 C    1.265   325 N    1.221
   325   7 N    3.252 --   321 C    1.252   324 C    1.221   353 H    0.961
   326   6 C    3.828 --   336 C    1.373   324 C    1.338   327 C    1.053
   327   6 C    3.889 --   328 C    1.411   335 C    1.404   326 C    1.053
   328   6 C    3.839 --   327 C    1.411   329 C    1.393   354 H    0.992
   329   6 C    3.978 --   328 C    1.393   331 C    1.357   330 O    1.126
   330   8 O    2.160 --   329 C    1.126   355 H    0.963
   331   6 C    3.914 --   333 C    1.368   329 C    1.357   332 O    1.092
   332   8 O    2.105 --   331 C    1.092   356 H    0.960
   333   6 C    3.939 --   335 C    1.401   331 C    1.368   334 O    1.095
   334   8 O    2.113 --   333 C    1.095   357 H    0.962
   335   6 C    3.815 --   327 C    1.404   333 C    1.401   358 H    0.992
   336   6 C    3.925 --   326 C    1.373   340 N    1.351   337 C    1.164
   337   6 C    3.839 --   338 C    1.691   336 C    1.164   359 H    1.000
   338   6 C    3.849 --   337 C    1.691   339 C    1.168   360 H    0.999
   339   6 C    3.943 --   340 N    1.417   299 C    1.281   338 C    1.168
   340   7 N    2.552 --   339 C    1.417   336 C    1.351
   341   1 H    1.028 --   301 C    0.998
   342   1 H    1.024 --   302 C    0.999
   343   1 H    1.083 --   304 N    0.961
   344   1 H    1.022 --   307 C    0.993
   345   1 H    1.001 --   309 O    0.963
   346   1 H    0.995 --   311 O    0.961
   347   1 H    0.995 --   313 O    0.961
   348   1 H    1.020 --   314 C    0.992
   349   1 H    1.026 --   316 C    1.000
   350   1 H    1.032 --   317 C    0.999
   351   1 H    1.028 --   322 C    0.998
   352   1 H    1.026 --   323 C    0.999
   353   1 H    1.083 --   325 N    0.961
   354   1 H    1.031 --   328 C    0.992
   355   1 H    0.994 --   330 O    0.963
   356   1 H    0.990 --   332 O    0.960
   357   1 H    0.995 --   334 O    0.962
   358   1 H    1.024 --   335 C    0.992
   359   1 H    1.028 --   337 C    1.000
   360   1 H    1.032 --   338 C    0.999
   361   6 C    3.830 --   401 C    1.281   362 C    1.278   158 C    1.230
   362   6 C    3.904 --   361 C    1.278   363 C    1.272   366 N    1.252
   363   6 C    3.829 --   364 C    1.576   362 C    1.272   403 H    0.998
   364   6 C    3.819 --   363 C    1.576   365 C    1.266   404 H    0.999
   365   6 C    3.887 --   367 C    1.336   364 C    1.266   366 N    1.221
   366   7 N    3.252 --   362 C    1.252   365 C    1.221   405 H    0.961
   367   6 C    3.829 --   377 C    1.374   365 C    1.336   368 C    1.053
   368   6 C    3.885 --   369 C    1.411   376 C    1.401   367 C    1.053
   369   6 C    3.814 --   368 C    1.411   370 C    1.395   406 H    0.993
   370   6 C    3.969 --   369 C    1.395   372 C    1.353   371 O    1.118
   371   8 O    2.150 --   370 C    1.118   407 H    0.963
   372   6 C    3.947 --   374 C    1.357   370 C    1.353   373 O    1.118
   373   8 O    2.148 --   372 C    1.118   408 H    0.961
   374   6 C    3.937 --   376 C    1.407   372 C    1.357   375 O    1.091
   375   8 O    2.108 --   374 C    1.091   409 H    0.961
   376   6 C    3.811 --   374 C    1.407   368 C    1.401   410 H    0.992
   377   6 C    3.924 --   367 C    1.374   380 N    1.350   378 C    1.164
   378   6 C    3.840 --   379 C    1.690   377 C    1.164   411 H    1.000
   379   6 C    3.849 --   378 C    1.690   381 C    1.168   412 H    0.999
   380   7 N    2.552 --   381 C    1.418   377 C    1.350
   381   6 C    3.943 --   380 N    1.418   382 C    1.280   379 C    1.168
   382   6 C    3.830 --   381 C    1.280   383 C    1.279   159 C    1.230
   383   6 C    3.904 --   382 C    1.279   384 C    1.271   387 N    1.252
   384   6 C    3.830 --   385 C    1.578   383 C    1.271   413 H    0.998
   385   6 C    3.817 --   384 C    1.578   386 C    1.265   414 H    0.999
   386   6 C    3.887 --   388 C    1.338   385 C    1.265   387 N    1.221
   387   7 N    3.252 --   383 C    1.252   386 C    1.221   415 H    0.961
   388   6 C    3.828 --   398 C    1.374   386 C    1.338   389 C    1.053
   389   6 C    3.889 --   390 C    1.411   397 C    1.404   388 C    1.053
   390   6 C    3.839 --   389 C    1.411   391 C    1.393   416 H    0.992
   391   6 C    3.978 --   390 C    1.393   393 C    1.357   392 O    1.126
   392   8 O    2.160 --   391 C    1.126   417 H    0.963
   393   6 C    3.914 --   395 C    1.368   391 C    1.357   394 O    1.092
   394   8 O    2.105 --   393 C    1.092   418 H    0.960
   395   6 C    3.939 --   397 C    1.401   393 C    1.368   396 O    1.095
   396   8 O    2.113 --   395 C    1.095   419 H    0.962
   397   6 C    3.815 --   389 C    1.404   395 C    1.401   420 H    0.992
   398   6 C    3.924 --   388 C    1.374   402 N    1.351   399 C    1.164
   399   6 C    3.839 --   400 C    1.690   398 C    1.164   421 H    1.000
   400   6 C    3.849 --   399 C    1.690   401 C    1.168   422 H    0.999
   401   6 C    3.943 --   402 N    1.417   361 C    1.281   400 C    1.168
   402   7 N    2.552 --   401 C    1.417   398 C    1.351
   403   1 H    1.028 --   363 C    0.998
   404   1 H    1.024 --   364 C    0.999
   405   1 H    1.083 --   366 N    0.961
   406   1 H    1.022 --   369 C    0.993
   407   1 H    1.001 --   371 O    0.963
   408   1 H    0.995 --   373 O    0.961
   409   1 H    0.995 --   375 O    0.961
   410   1 H    1.020 --   376 C    0.992
   411   1 H    1.026 --   378 C    1.000
   412   1 H    1.032 --   379 C    0.999
   413   1 H    1.029 --   384 C    0.998
   414   1 H    1.026 --   385 C    0.999
   415   1 H    1.083 --   387 N    0.961
   416   1 H    1.031 --   390 C    0.992
   417   1 H    0.994 --   392 O    0.963
   418   1 H    0.991 --   394 O    0.960
   419   1 H    0.995 --   396 O    0.962
   420   1 H    1.024 --   397 C    0.992
   421   1 H    1.028 --   399 C    1.000
   422   1 H    1.032 --   400 C    0.999
   423   6 C    3.830 --   463 C    1.281   424 C    1.278   166 C    1.230
   424   6 C    3.904 --   423 C    1.278   425 C    1.273   428 N    1.252
   425   6 C    3.829 --   426 C    1.576   424 C    1.273   465 H    0.998
   426   6 C    3.818 --   425 C    1.576   427 C    1.267   466 H    0.999
   427   6 C    3.887 --   429 C    1.336   426 C    1.267   428 N    1.222
   428   7 N    3.253 --   424 C    1.252   427 C    1.222   467 H    0.961
   429   6 C    3.829 --   439 C    1.374   427 C    1.336   430 C    1.054
   430   6 C    3.885 --   431 C    1.411   438 C    1.401   429 C    1.054
   431   6 C    3.814 --   430 C    1.411   432 C    1.395   468 H    0.993
   432   6 C    3.969 --   431 C    1.395   434 C    1.353   433 O    1.118
   433   8 O    2.150 --   432 C    1.118   469 H    0.963
   434   6 C    3.947 --   436 C    1.357   432 C    1.353   435 O    1.118
   435   8 O    2.148 --   434 C    1.118   470 H    0.961
   436   6 C    3.937 --   438 C    1.407   434 C    1.357   437 O    1.091
   437   8 O    2.108 --   436 C    1.091   471 H    0.961
   438   6 C    3.811 --   436 C    1.407   430 C    1.401   472 H    0.992
   439   6 C    3.925 --   429 C    1.374   442 N    1.351   440 C    1.163
   440   6 C    3.840 --   441 C    1.692   439 C    1.163   473 H    1.000
   441   6 C    3.849 --   440 C    1.692   443 C    1.167   474 H    0.999
   442   7 N    2.551 --   443 C    1.415   439 C    1.351
   443   6 C    3.944 --   442 N    1.415   444 C    1.283   441 C    1.167
   444   6 C    3.830 --   443 C    1.283   445 C    1.281   167 C    1.224
   445   6 C    3.905 --   444 C    1.281   446 C    1.270   449 N    1.251
   446   6 C    3.829 --   447 C    1.579   445 C    1.270   475 H    0.998
   447   6 C    3.818 --   446 C    1.579   448 C    1.264   476 H    0.999
   448   6 C    3.887 --   450 C    1.339   447 C    1.264   449 N    1.221
   449   7 N    3.251 --   445 C    1.251   448 C    1.221   477 H    0.961
   450   6 C    3.829 --   460 C    1.372   448 C    1.339   451 C    1.053
   451   6 C    3.889 --   452 C    1.411   459 C    1.404   450 C    1.053
   452   6 C    3.839 --   451 C    1.411   453 C    1.393   478 H    0.993
   453   6 C    3.978 --   452 C    1.393   455 C    1.357   454 O    1.126
   454   8 O    2.160 --   453 C    1.126   479 H    0.963
   455   6 C    3.914 --   457 C    1.368   453 C    1.357   456 O    1.092
   456   8 O    2.105 --   455 C    1.092   480 H    0.960
   457   6 C    3.939 --   459 C    1.401   455 C    1.368   458 O    1.095
   458   8 O    2.114 --   457 C    1.095   481 H    0.962
   459   6 C    3.815 --   451 C    1.404   457 C    1.401   482 H    0.992
   460   6 C    3.924 --   450 C    1.372   464 N    1.351   461 C    1.164
   461   6 C    3.839 --   462 C    1.690   460 C    1.164   483 H    1.000
   462   6 C    3.849 --   461 C    1.690   463 C    1.168   484 H    0.999
   463   6 C    3.942 --   464 N    1.417   423 C    1.281   462 C    1.168
   464   7 N    2.553 --   463 C    1.417   460 C    1.351
   465   1 H    1.028 --   425 C    0.998
   466   1 H    1.024 --   426 C    0.999
   467   1 H    1.083 --   428 N    0.961
   468   1 H    1.022 --   431 C    0.993
   469   1 H    1.001 --   433 O    0.963
   470   1 H    0.995 --   435 O    0.961
   471   1 H    0.995 --   437 O    0.961
   472   1 H    1.020 --   438 C    0.992
   473   1 H    1.027 --   440 C    1.000
   474   1 H    1.032 --   441 C    0.999
   475   1 H    1.029 --   446 C    0.998
   476   1 H    1.027 --   447 C    0.999
   477   1 H    1.083 --   449 N    0.961
   478   1 H    1.031 --   452 C    0.993
   479   1 H    0.994 --   454 O    0.963
   480   1 H    0.990 --   456 O    0.960
   481   1 H    0.995 --   458 O    0.962
   482   1 H    1.024 --   459 C    0.992
   483   1 H    1.028 --   461 C    1.000
   484   1 H    1.032 --   462 C    0.999
 ---------------------------------------------------------------------------

Topologies differ in total number of bonds
Writing topology from bond orders to xtbtopo.mol

 dipole moment from electron density (au)
     X       Y       Z   
-258.0778   8.7796  -0.1394  total (Debye):  656.348


           -------------------------------------------------
          | TOTAL ENERGY            -1040.267734198081 Eh   |
          | GRADIENT NORM               0.137067169349 Eh/α |
          | HOMO-LUMO GAP               0.051003830880 eV   |
           -------------------------------------------------
########################################################################
[WARNING] Runtime exception occurred
-1- restart_readRestart: Dimension missmatch in restart file.
########################################################################

------------------------------------------------------------------------
 * finished run on 2022/07/29 at 22:58:57.456     
------------------------------------------------------------------------
 total:
 * wall-time:     0 d,  0 h,  1 min, 41.663 sec
 *  cpu-time:     0 d,  0 h,  1 min, 41.181 sec
 * ratio c/w:     0.995 speedup
 SCF:
 * wall-time:     0 d,  0 h,  1 min, 40.537 sec
 *  cpu-time:     0 d,  0 h,  1 min, 40.062 sec
 * ratio c/w:     0.995 speedup

