302
 energy: -471.708639979372 gnorm: 0.000519808855 xtb: 6.5.1 (b24c23e)
C           51.87656271057237       -0.04363102597087        0.08252439437048
C           52.48537665879198       -0.17641017965988        1.32429325021354
C           51.83207873353879       -0.28095657685470        2.58364984198035
C           52.79299981076274       -0.41247614920333        3.54728354009886
C           54.06388292935702       -0.40394845740005        2.90625883965740
N           53.82779348261656       -0.24715377600453        1.56955721590103
C           55.32631616710867       -0.51553937480750        3.50314072131950
C           55.35505307110920       -0.72313551877933        4.96855929292265
C           56.01833364061471        0.17156923648027        5.81016924033908
C           56.03597600442669       -0.01143979734681        7.18094651585579
C           55.39118282543384       -1.10923474208204        7.77032552276467
N           55.45093941042986       -1.33212570741472        9.14307543658043
C           55.82472872782895       -0.20249317382657        9.99416160567476
C           54.42682545889374       -2.20190212457006        9.72417108240436
C           54.74100353868612       -2.01729343845354        6.92094652366726
C           54.71907886397114       -1.82038011276009        5.55232577784254
C           56.54013536405472       -0.44598734667450        2.81378728765893
C           57.83803458043722       -0.63494915135036        3.43506789773543
C           58.75620256036213       -0.48476131273752        2.45730407208095
N           56.69125739251806       -0.21189141865522        1.48045926494637
C           58.01751973142741       -0.21746217817588        1.23907500209608
C           58.65246283322070        0.00581108725868       -0.00026489098416
C           58.01670491483571        0.21222740783312       -1.24008833132640
C           58.66201687990446        0.47456055585747       -2.47673075720378
C           57.69685649040232        0.59947428228003       -3.43823754497349
C           56.43187376597154        0.40608671465199       -2.81859666589456
N           56.67696371281269        0.18656574430688       -1.48824267399133
C           55.17086447795089        0.44936339436123       -3.42614377327460
C           55.14072943296379        0.65298760232603       -4.89095009321453
C           54.45083477814222        1.72772161437602       -5.45539062626100
C           54.43169649506577        1.92966366071444       -6.82338505606565
C           55.10254128242565        1.05474476356341       -7.69115668478282
N           55.04404168369627        1.21840647075877       -9.07189562519734
C           56.09335251727737        0.57745968369629       -9.86638405415059
C           54.62815164455349        2.52568046961678       -9.57990022550090
C           55.77923543536917       -0.03559930437233       -7.12334616650439
C           55.80167850013131       -0.22392382007912       -5.75377393622701
C           53.95616885222696        0.31527964944010       -2.74268269397215
C           52.65216184715948        0.29439803943618       -3.38602799960452
C           51.74082034709704        0.16389911352406       -2.40032285789285
C           52.48739456206258        0.08911148426408       -1.15760287659742
N           53.81834707830964        0.17228275139557       -1.40315984217219
H           50.79107139396127       -0.04842080992589        0.09212237352045
H           50.76301243781193       -0.25064782266432        2.72251008852411
H           52.63940954636924       -0.49695300320346        4.61093232274767
H           54.55505531571967       -0.18613694235440        0.86478955870946
H           56.50895263432485        1.04052185760821        5.38511814809822
H           56.56076538365895        0.71610798610988        7.78655648407530
H           55.15608586092490        0.65295592232560        9.84612414386620
H           55.77842828882822       -0.51603647477712       11.03655631692941
H           56.85059980168338        0.09551236255342        9.77570930480291
H           53.41826269990151       -1.86835505607417        9.45620099523209
H           54.57467773184732       -3.22524110568072        9.37728992594929
H           54.52928514218255       -2.19397403166078       10.80868141899009
H           54.25036320814902       -2.89592525430196        7.31969120913997
H           54.21915253258113       -2.54692242984566        4.92065154628974
H           58.00367214373910       -0.86862435089848        4.47432615927616
H           59.83008066862416       -0.55494522059996        2.52649543198365
H           59.72895108314896        0.56264374364606       -2.60425840070016
H           57.84637038579286        0.82017194260232       -4.48254535923486
H           55.95338727397879        0.03891807544735       -0.79233534301485
H           53.94179524563444        2.43421960010719       -4.80868541596526
H           53.88621481116851        2.78262811186489       -7.20598059265070
H           55.98364563700571        0.87952440728253      -10.90726725390263
H           57.09151850363408        0.85939691873091       -9.51368209116592
H           55.98294475056080       -0.50625657774036       -9.81462737449272
H           53.59463114427837        2.71789251964555       -9.29032547406921
H           54.67766042313989        2.51283118675377      -10.66820980480480
H           55.26974821970362        3.32886079405316       -9.20042156707261
H           56.29058173683722       -0.75691905930357       -7.74778450349916
H           56.32188210086266       -1.08408621173877       -5.34603985326438
H           52.48092695466515        0.35424599351000       -4.44884247728640
H           50.66604644327295        0.10819576700879       -2.47717160883228
C           98.92559106906461       -0.02673321635936       -0.09281527520698
C           98.31793992871974        0.12822682100714       -1.33261673709011
C           98.97248733113931        0.31804817634201       -2.58129949088185
C           98.01272067676733        0.40887068341839       -3.55078767916326
C           96.74135584226804        0.26506305944844       -2.92702289389150
N           96.97596686322203        0.11164830657154       -1.58962971579350
C           95.47953574594061        0.28592199745081       -3.53531918979789
C           95.45024564954117        0.42009141364366       -5.00906335609023
C           94.77281803337483        1.47574053133032       -5.62210423611888
C           94.75082410331912        1.61183204532657       -6.99820010322516
C           95.40580628871028        0.68669540002305       -7.82493083032225
N           95.34010204669468        0.78206741805556       -9.21195239581065
C           94.93739180673398        2.06752356449245       -9.78230266705575
C           96.37446815817597        0.08746419103283       -9.98035419283654
C           96.07243595751048       -0.38251117908905       -7.20743801736792
C           96.09784880115258       -0.50493812471118       -5.83021370637107
C           94.26548549619606        0.18889019310960       -2.84929813122275
C           92.96867766462439        0.13441414704374       -3.49862031304601
C           92.04973587136304        0.05730138803768       -2.51307651291419
N           94.11311806028640        0.11837914405183       -1.49758121691347
C           92.78686943767912        0.05196955387964       -1.26504170317191
C           92.15054930077196       -0.00235243554342       -0.00759404385268
C           92.78506517805616       -0.07357731108398        1.24790690001763
C           92.13871628023325       -0.09373117281020        2.51140261167702
C           93.10288616454230       -0.19071620000321        3.47714576294763
C           94.36817437436876       -0.24289871857523        2.83079976718205
N           94.12442774792117       -0.15661849200382        1.48501432145927
C           95.62835437629754       -0.34208152167508        3.43325914774459
C           95.65757795280787       -0.47834626389876        4.90592873406857
C           96.34790893381195        0.43829764653472        5.70138417939556
C           96.36994741404884        0.31964012304992        7.07904470580013
C           95.70277484273325       -0.73327045160527        7.72320852879570
N           95.76858375284186       -0.89476261996538        9.10368670647722
C           94.72802278757246       -1.70918802546844        9.73347399470444
C           96.18561668906469        0.25876658272517        9.90066471996892
C           95.02310525407229       -1.66260104032402        6.92093398179022
C           94.99709554240177       -1.52984851496912        5.54489597885151
C           96.84354210368647       -0.32057412432428        2.73801226541854
C           98.14677979451648       -0.48983252907859        3.36061787581962
C           99.05901917131335       -0.39353754198576        2.37181468383748
C           98.31369822201610       -0.18164199090350        1.14421652196423
N           96.98259214228730       -0.15501379092309        1.40121386337939
H          100.01109720923473       -0.02830811286860       -0.10220452654267
H          100.04155371087627        0.38282343415643       -2.70784711120208
H           98.16759121781783        0.57222055158356       -4.60501236000773
H           96.24788048706830        0.00719952120887       -0.89082697715635
H           94.27395133388769        2.21786024789182       -5.00822809069346
H           94.21460400453354        2.45225315012608       -7.41966535363332
H           95.59198095013937        2.88038772123751       -9.44828701012606
H           94.97847184109875        1.99930941772714      -10.86891566427328
H           93.90861248341560        2.28770566859578       -9.49573227571799
H           97.37919427505578        0.37222850785599       -9.64912956086052
H           96.24928526336537       -0.99064283170503       -9.87369385420063
H           96.26119801918730        0.33867323671736      -11.03430780595909
H           96.57279766937221       -1.13922014479802       -7.79801474963872
H           96.60931523235199       -1.35076535053174       -5.38323960313914
H           92.80422864541698        0.13605868621595       -4.56400654342755
H           90.97633322578152       -0.00283526342239       -2.59748495720940
H           91.07178404585433       -0.03432795109989        2.65457566108532
H           92.95273292762953       -0.21062881618170        4.54425518180081
H           94.84856670916805       -0.14680879888846        0.77424946756624
H           96.85550175936592        1.27501832930764        5.23368453104199
H           96.91547734536425        1.06230359392939        7.64678130700816
H           94.84509885164478       -1.65827904958414       10.81534245914393
H           93.72599554044923       -1.35804643705961        9.46362371371796
H           94.84194434455677       -2.75016110779442        9.42893479940768
H           97.21573435047583        0.51883955760508        9.65549637688554
H           96.14664978446410       -0.00946797731458       10.95591956909193
H           95.53815079873475        1.12536910083642        9.72598331703035
H           94.51247928067257       -2.50829943059328        7.36338142358038
H           94.47494707999495       -2.27246589833664        4.95106965860211
H           98.31681640136148       -0.67396828561295        4.40926820261342
H          100.13362718157521       -0.46704358144560        2.43477955639183
C           61.27989098423559        0.04736938931872       -0.02667499896996
C           60.05742201234880        0.02676365619308       -0.01408901072665
C           62.62818073962761        0.07105584630784       -0.03209450080187
C           63.85075453357402        0.09544124484000       -0.03759249997988
C           74.72803984357226        0.19884060359463       -0.00808056645822
C           73.50492678072006        0.20421047032247       -0.00724295349182
C           76.07603929454110        0.19725478331741       -0.00202527158101
C           77.29917402819912        0.20015953331530       -0.00227785225053
C           88.17504723960502        0.06307779118195        0.03667516788198
C           86.95255020598960        0.08990987109793        0.04528551319261
C           89.52325272759732        0.03774633335442        0.02740978583708
C           90.74563524646173        0.01542292533955        0.00932924696353
C           65.25467245320500        0.12364451060501       -0.03357252442691
C           65.87627157411170        0.05097184148343        1.22885942055686
C           65.22186599248893       -0.08118518097624        2.47989036655889
C           66.18001011159048       -0.08263865863590        3.45767149236090
C           67.44698494151865        0.05796145899942        2.83063285207240
N           67.21342706993806        0.12139592157848        1.48259604963430
C           68.70131391427998        0.10860421225203        3.45453200386625
C           68.70211906562243        0.08499095580952        4.93494641212225
C           68.03101640941544        1.06477115507453        5.66913275419517
C           68.02413164521614        1.04580315498939        7.05177669636967
C           68.67860448810758        0.02832174121379        7.76256371631921
N           68.70808487052361        0.03193888004492        9.15399820534369
C           67.66700080268896        0.79485078720810        9.84424737039983
C           69.07357153240173       -1.21668482915466        9.82331719177992
C           69.35905700509718       -0.95062724175791        7.02279540400126
C           69.37092840225721       -0.91694204943910        5.64027416748741
C           69.92761019602163        0.17755377141874        2.78998651882797
C           71.20840420304181        0.29376909395127        3.46253711340232
C           72.14911694122522        0.31175270866341        2.49475561993111
N           70.10994036085526        0.15518593535771        1.44011462953342
C           71.44049797388513        0.22179065819602        1.23420226965138
C           72.10112052236137        0.20207554165366       -0.01152181573534
C           71.48047195258407        0.18474252490192       -1.27656100830161
C           72.13721951672073        0.13206029299223       -2.53223061778511
C           71.17887352102733        0.15521652645387       -3.50954227444433
C           69.90905068450211        0.23294011934142       -2.87725596811584
N           70.14194348963213        0.23574314874342       -1.52740312312350
C           68.65327100039926        0.28251259195913       -3.49812542497475
C           68.64865451266093        0.32545865129635       -4.97790179724396
C           69.29818311349501        1.34902297987817       -5.67051883953358
C           69.29824312047333        1.39184852643300       -7.05270482290261
C           68.65780732976182        0.39587358063647       -7.80542179566543
N           68.61953479990652        0.46039036935181       -9.19525910940212
C           68.28063566479764       -0.76719028128939       -9.91599512670776
C           69.63886111349838        1.27633940171238       -9.85659301851490
C           67.99860270958516       -0.62715468740403       -7.10718090671496
C           67.99403184653740       -0.65585840065707       -5.72461754012764
C           67.42617559636416        0.29221512855233       -2.83082249758735
C           66.14268914909350        0.41577497761207       -3.49711570188963
C           65.20245871006772        0.36517742509572       -2.53004346373169
C           65.91364449342423        0.22598339041997       -1.27557403121728
N           67.24549855634419        0.19845614000882       -1.48416153915674
H           64.15497907856312       -0.16900241957287        2.60762261724342
H           66.02335879635007       -0.18484437405619        4.51908692857531
H           67.93849321536649        0.20201415252043        0.77759198228923
H           67.52495546319751        1.87029404924783        5.14781311897140
H           67.50576546651209        1.84111567515131        7.57177773756926
H           67.75719473324369        0.62633964424592       10.91674451073159
H           67.80711282048448        1.85980779741362        9.65575408826905
H           66.66547700815458        0.49517042408204        9.51643016899498
H           70.10960049434738       -1.46585623569058        9.59187170976964
H           68.42201009337600       -2.04310429895878        9.51812057589703
H           68.99198902976302       -1.07651034664750       10.90065667705158
H           69.88929228195228       -1.75336105742372        7.51872931657409
H           69.88886440363328       -1.69866854774929        5.09525266235381
H           71.34812895324133        0.36824316637670        4.52882963357631
H           73.21973960341397        0.38974413320500        2.59781705414792
H           73.20589133472454        0.07712993785874       -2.66344465134661
H           71.33766818906913        0.10950913797447       -4.57456721325465
H           69.41545502770236        0.26153059721870       -0.81972960512700
H           69.79210985387151        2.13980811773259       -5.11608037235520
H           69.80001069620347        2.21869345041966       -7.53865080594135
H           68.94735584441467       -1.59221356699697       -9.64141646365968
H           67.24894240798375       -1.04576365544119       -9.69893581370792
H           68.36313495675979       -0.58236130028076      -10.98649482688734
H           70.64928631166261        0.97952235931341       -9.55437277272948
H           69.53972625810681        1.16011848743164      -10.93523910353188
H           69.48114545475204        2.32760981638125       -9.61343191577578
H           67.47883114189906       -1.41542239787318       -7.63630224306763
H           67.49292493439604       -1.47038483425432       -5.21290191016370
H           66.00040449652273        0.54175884855163       -4.55819462396630
H           64.13034921695905        0.42580785607269       -2.62929924378984
C           78.70298596001213        0.19417742765442        0.00502929243505
C           79.32029848326040        0.12570300117655        1.26999805213589
C           78.65998792996520        0.02592244260672        2.52097300506608
C           79.61579689788088        0.00607268847549        3.50084615617690
C           80.88756673811153        0.10337356506505        2.87527588338368
N           80.65832051691028        0.16122788616024        1.52601970356513
C           82.14182615392443        0.12096007718687        3.50071379559943
C           82.14336334955057        0.10462000563358        4.98120940760065
C           81.50321690704250        1.10725604841056        5.71201992586021
C           81.50552711513997        1.09923765460892        7.09484900598339
C           82.13871785217418        0.07101745172646        7.80937533241403
N           82.18259875296435        0.08638600956755        9.20044859091371
C           81.17369686360725        0.88831783847293        9.89413667916487
C           82.51386076113036       -1.16800822973857        9.87706358322860
C           82.78564244181665       -0.93281138155344        7.07284007802615
C           82.78833923564035       -0.91047799061182        5.69010541631719
C           83.37073379894657        0.15368460479207        2.83756386926583
C           84.65308157189608        0.24014542128327        3.51186457337573
C           85.59542386638290        0.23261560061016        2.54558158672231
N           83.55440154809163        0.12222886042084        1.48835771928528
C           84.88677865646309        0.15595617532151        1.28428145389815
C           85.54861184726306        0.11691807275712        0.04023321684995
C           84.93052290961445        0.10619887941449       -1.22601777630139
C           85.58890081862219        0.03284217190166       -2.47981879213868
C           84.63332335888802        0.06817683177984       -3.45945015071335
C           83.36398785584308        0.17440141476328       -2.83046964123219
N           83.59377639553041        0.18180191557160       -1.48025251772497
C           82.11070437130570        0.24231619299454       -3.45471479271712
C           82.11134912112367        0.27712207125755       -4.93487188461996
C           82.77751576711327        1.28855382119839       -5.62952441484544
C           82.78090644573787        1.32683426120120       -7.01179120548256
C           82.12713797365275        0.33804067977700       -7.76259582210554
N           82.09017628589508        0.40127397082856       -9.15241528150261
C           81.72522331624708       -0.81872143842154       -9.87292038622098
C           83.12412964027200        1.19727077016657       -9.81534329943356
C           81.45388362863133       -0.67437840705952       -7.06231183593301
C           81.44581934827062       -0.69822083496363       -5.67957888966876
C           80.88273048686396        0.27942643509564       -2.79052664073502
C           79.60304731033158        0.41835847094421       -3.46091634662672
C           78.66033768712114        0.39821066747739       -2.49515440739409
C           79.36648075356786        0.26131280452144       -1.23746114774961
N           80.69761150186855        0.20456678228365       -1.44294998921043
H           77.59074448695185       -0.02971129509305        2.64714309753898
H           79.45418610750906       -0.08105061417436        4.56287073994686
H           81.38693180352784        0.21325842930741        0.82196956664820
H           81.01572322979207        1.92229501863119        5.18782916523231
H           81.01213395157252        1.91223376436437        7.61174579715135
H           81.27432895472823        0.73177801302382       10.96753446777365
H           81.34194939934989        1.94606293148116        9.68897889060520
H           80.15941853391989        0.61337811336331        9.58429390463180
H           83.54107585587933       -1.44948538624115        9.64321180921458
H           81.83676136308975       -1.97665698777971        9.58006154392648
H           82.44092620290938       -1.01828315894139       10.95372957426713
H           83.29786424482407       -1.74540473477779        7.57167020566467
H           83.28095114253871       -1.71032007447994        5.14787812475045
H           84.79334615737218        0.31426922131274        4.57809558127021
H           86.66748541960951        0.28482051338986        2.65003634573061
H           86.65656931573311       -0.04373523373353       -2.60821802262561
H           84.79334839112535        0.01238680953811       -4.52381179729988
H           82.86618260568287        0.22683997090685       -0.77467069954614
H           83.28174358047215        2.07388670213641       -5.07658857568490
H           83.29536403716656        2.14480018658789       -7.49951360940791
H           82.37998815785711       -1.65564440706476       -9.60562210772919
H           80.69067850455750       -1.08023026158683       -9.64843763955625
H           81.80238231409658       -0.63261227842253      -10.94360924072270
H           84.12894947202879        0.88358621278246       -9.51151491261433
H           83.02378253663743        1.07967165288576      -10.89373116760548
H           82.98493847514774        2.25191334500553       -9.57540164572748
H           80.92571772042795       -1.45815997668521       -7.58977391291293
H           80.93283793604598       -1.50426746576785       -5.16620543927749
H           79.46524254594043        0.53311137966111       -4.52386907507923
H           77.58980826058263        0.47830040623654       -2.59752853977294
