      -----------------------------------------------------------      
     |                   =====================                   |     
     |                           x T B                           |     
     |                   =====================                   |     
     |                         S. Grimme                         |     
     |          Mulliken Center for Theoretical Chemistry        |     
     |                    University of Bonn                     |     
      -----------------------------------------------------------      

   * xtb version 6.5.1 (b24c23e) compiled by 'conda@728c89f4b128' on 2022-07-12

   xtb is free software: you can redistribute it and/or modify it under
   the terms of the GNU Lesser General Public License as published by
   the Free Software Foundation, either version 3 of the License, or
   (at your option) any later version.
   
   xtb is distributed in the hope that it will be useful,
   but WITHOUT ANY WARRANTY; without even the implied warranty of
   MERCHANTABILITY or FITNESS FOR A PARTICULAR PURPOSE.  See the
   GNU Lesser General Public License for more details.
   
   Cite this work as:
   * C. Bannwarth, E. Caldeweyher, S. Ehlert, A. Hansen, P. Pracht,
     J. Seibert, S. Spicher, S. Grimme, WIREs Comput. Mol. Sci., 2020, 11,
     e01493. DOI: 10.1002/wcms.1493
   
   for GFN2-xTB:
   * C. Bannwarth, S. Ehlert and S. Grimme., J. Chem. Theory Comput., 2019,
     15, 1652-1671. DOI: 10.1021/acs.jctc.8b01176
   for GFN1-xTB:
   * S. Grimme, C. Bannwarth, P. Shushkov, J. Chem. Theory Comput., 2017,
     13, 1989-2009. DOI: 10.1021/acs.jctc.7b00118
   for GFN0-xTB:
   * P. Pracht, E. Caldeweyher, S. Ehlert, S. Grimme, ChemRxiv, 2019, preprint.
     DOI: 10.26434/chemrxiv.8326202.v1
   for GFN-FF:
   * S. Spicher and S. Grimme, Angew. Chem. Int. Ed., 2020, 59, 15665-15673.
     DOI: 10.1002/anie.202004239
   
   for ALPB and GBSA implicit solvation:
   * S. Ehlert, M. Stahn, S. Spicher, S. Grimme, J. Chem. Theory Comput.,
     2021, 17, 4250-4261. DOI: 10.1021/acs.jctc.1c00471
   
   for DFT-D4:
   * E. Caldeweyher, C. Bannwarth and S. Grimme, J. Chem. Phys., 2017,
     147, 034112. DOI: 10.1063/1.4993215
   * E. Caldeweyher, S. Ehlert, A. Hansen, H. Neugebauer, S. Spicher,
     C. Bannwarth and S. Grimme, J. Chem. Phys., 2019, 150, 154122.
     DOI: 10.1063/1.5090222
   * E. Caldeweyher, J.-M. Mewes, S. Ehlert and S. Grimme, Phys. Chem. Chem. Phys.
     2020, 22, 8499-8512. DOI: 10.1039/D0CP00502A
   
   for sTDA-xTB:
   * S. Grimme and C. Bannwarth, J. Chem. Phys., 2016, 145, 054103.
     DOI: 10.1063/1.4959605
   
   in the mass-spec context:
   * V. Asgeirsson, C. Bauer and S. Grimme, Chem. Sci., 2017, 8, 4879.
     DOI: 10.1039/c7sc00601b
   * J. Koopman and S. Grimme, ACS Omega 2019, 4, 12, 15120-15133.
     DOI: 10.1021/acsomega.9b02011
   
   for metadynamics refer to:
   * S. Grimme, J. Chem. Theory Comput., 2019, 155, 2847-2862
     DOI: 10.1021/acs.jctc.9b00143
   
   for SPH calculations refer to:
   * S. Spicher and S. Grimme, J. Chem. Theory Comput., 2021, 17, 1701-1714
     DOI: 10.1021/acs.jctc.0c01306
   
   with help from (in alphabetical order)
   P. Atkinson, C. Bannwarth, F. Bohle, G. Brandenburg, E. Caldeweyher
   M. Checinski, S. Dohm, S. Ehlert, S. Ehrlich, I. Gerasimov, C. Hölzer
   A. Katbashev, J. Koopman, C. Lavigne, S. Lehtola, F. März, M. Müller,
   F. Musil, H. Neugebauer, J. Pisarek, C. Plett, P. Pracht, F. Pultar,
   J. Seibert, P. Shushkov, S. Spicher, M. Stahn, M. Steiner, T. Strunk,
   J. Stückrath, T. Rose, and J. Unsleber
   
 * started run on 2022/07/28 at 21:06:02.130     

           -------------------------------------------------
          |                Calculation Setup                |
           -------------------------------------------------

          program call               : xtb xtbopt.xyz --gfn 1 --vipea
          hostname                   : cx3-5-14.cx3.hpc.ic.ac.uk
          coordinate file            : xtbopt.xyz
          omp threads                :                     1

   ID    Z sym.   atoms
    1    6 C      1-5, 7-11, 13-17, 19-24, 26-30, 32-37, 60-64, 66-70, 72-76,
                  78-83, 85-89, 91-96, 119-153, 155-159, 161-165, 167-172,
                  174-178, 180-185, 207-211, 213-217, 219-223, 225-230,
                  232-236, 238-243, 265-269, 271-275, 277-281, 283-288,
                  290-294, 296-301, 323-327, 329-333, 335-339, 341-346,
                  348-352, 354-359
    2    7 N      6, 18, 25, 38, 65, 77, 84, 97, 154, 166, 173, 186, 212,
                  224, 231, 244, 270, 282, 289, 302, 328, 340, 347, 360
    3    8 O      12, 31, 71, 90, 160, 179, 218, 237, 276, 295, 334, 353
    4    1 H      39-59, 98-118, 187-206, 245-264, 303-322, 361-380

           -------------------------------------------------
          |                 I P E A - x T B                 |
           -------------------------------------------------

        Reference                      10.1039/c7sc00601b
      * Hamiltonian:
        H0-scaling (s, p, d)           2.150000    2.300000    2.000000
        zeta-weighting                 0.000000
      * Dispersion:
        s8                             2.400000
        a1                             0.630000
        a2                             5.000000
        s9                             0.000000
      * Repulsion:
        kExp                           1.500000
        rExp                           1.000000
      * Coulomb:
        alpha                          1.000000
        third order                    atomic
        anisotropic                    false
      * Halogen bond correction:
        rad-scale                      1.300000
        damping                        0.440000


          ...................................................
          :                      SETUP                      :
          :.................................................:
          :  # basis functions                1534          :
          :  # atomic orbitals                1534          :
          :  # shells                         1018          :
          :  # electrons                      1202          :
          :  # halogen bonds                     0          :
          :  max. iterations                   250          :
          :  Hamiltonian                  GFN1-xTB          :
          :  restarted?                      false          :
          :  GBSA solvation                  false          :
          :  PC potential                    false          :
          :  electronic temp.          300.0000000     K    :
          :  accuracy                    1.0000000          :
          :  -> integral cutoff          0.2500000E+02      :
          :  -> integral neglect         0.1000000E-07      :
          :  -> SCF convergence          0.1000000E-05 Eh   :
          :  -> wf. convergence          0.2000000E-04 e    :
          :  Broyden damping             0.4000000          :
          ...................................................

 iter      E             dE          RMSdq      gap      omega  full diag
   1   -762.5822941 -0.762582E+03  0.102E+01    0.55       0.0  T
   2   -763.7152230 -0.113293E+01  0.633E+00    1.15       1.0  T
   3   -751.7253401  0.119899E+02  0.476E+00    0.21       1.0  T
   4   -765.6925790 -0.139672E+02  0.109E+00    1.12       1.0  T
   5   -766.7105481 -0.101797E+01  0.276E-01    0.92       1.0  T
   6   -766.7712498 -0.607017E-01  0.107E-01    0.95       1.0  T
   7   -766.7775483 -0.629846E-02  0.537E-02    0.94       1.0  T
   8   -766.7789662 -0.141795E-02  0.341E-02    0.94       1.0  T
   9   -766.7793778 -0.411566E-03  0.219E-02    0.94       1.0  T
  10   -766.7796318 -0.253998E-03  0.634E-03    0.94       1.0  T
  11   -766.7796462 -0.144551E-04  0.315E-03    0.94       1.6  T
  12   -766.7796530 -0.680721E-05  0.112E-03    0.94       4.6  T
  13   -766.7796539 -0.844468E-06  0.440E-04    0.94      11.7  T
  14   -766.7796540 -0.113769E-06  0.198E-04    0.94      25.9  T
  15   -766.7796540 -0.153598E-07  0.115E-04    0.94      44.8  T

   *** convergence criteria satisfied after 15 iterations ***

         #    Occupation            Energy/Eh            Energy/eV
      -------------------------------------------------------------
         1        2.0000           -1.0421016             -28.3570
       ...           ...                  ...                  ...
       595        2.0000           -0.3873336             -10.5399
       596        2.0000           -0.3771621             -10.2631
       597        2.0000           -0.3724581             -10.1351
       598        2.0000           -0.3689329             -10.0392
       599        2.0000           -0.3667241              -9.9791
       600        2.0000           -0.3626593              -9.8685
       601        2.0000           -0.3584981              -9.7552 (HOMO)
       602                         -0.3240252              -8.8172 (LUMO)
       603                         -0.3186034              -8.6696
       604                         -0.3125109              -8.5039
       605                         -0.3083573              -8.3908
       606                         -0.3061599              -8.3310
       ...                                ...                  ...
      1534                        527.2317385           14346.7058
      -------------------------------------------------------------
                  HL-Gap            0.0344730 Eh            0.9381 eV
             Fermi-level           -0.3412572 Eh           -9.2861 eV

 SCC (total)                   0 d,  0 h,  0 min, 25.694 sec
 SCC setup                      ...        0 min,  0.022 sec (  0.085%)
 Dispersion                     ...        0 min,  0.025 sec (  0.098%)
 classical contributions        ...        0 min,  0.006 sec (  0.024%)
 integral evaluation            ...        0 min,  1.440 sec (  5.603%)
 iterations                     ...        0 min, 21.281 sec ( 82.823%)
 molecular gradient             ...        0 min,  2.646 sec ( 10.298%)
 printout                       ...        0 min,  0.274 sec (  1.068%)

         :::::::::::::::::::::::::::::::::::::::::::::::::::::
         ::                     SUMMARY                     ::
         :::::::::::::::::::::::::::::::::::::::::::::::::::::
         :: total energy            -751.336961805293 Eh    ::
         :: gradient norm              0.112278863956 Eh/a0 ::
         :: HOMO-LUMO gap              0.938057761731 eV    ::
         ::.................................................::
         :: SCC energy              -766.779654009620 Eh    ::
         :: -> electrostatic           0.538667618072 Eh    ::
         :: repulsion energy          15.765444186707 Eh    ::
         :: dispersion energy         -0.322751982380 Eh    ::
         :: halogen bond corr.         0.000000000000 Eh    ::
         :: add. restraining           0.000000000000 Eh    ::
         :: total charge               0.000000000247 e     ::
         :::::::::::::::::::::::::::::::::::::::::::::::::::::

           ------------------------------------------------- 
          |        vertical delta SCC IP calculation        |
           ------------------------------------------------- 
   1   -766.3975661 -0.766398E+03  0.585E-02    0.94       0.0  T
   2   -766.3847883  0.127778E-01  0.935E-02    0.83       1.0  T
   3   -766.4015015 -0.167132E-01  0.381E-02    0.92       1.0  T
   4   -766.4013279  0.173663E-03  0.341E-02    0.92       1.0  T
   5   -766.4026005 -0.127267E-02  0.247E-02    0.92       1.0  T
   6   -766.4037729 -0.117233E-02  0.116E-02    0.92       1.0  T
   7   -766.4039367 -0.163826E-03  0.717E-03    0.92       1.0  T
   8   -766.4040154 -0.786782E-04  0.369E-03    0.92       1.4  T
   9   -766.4040283 -0.128867E-04  0.134E-03    0.92       3.8  T
  10   -766.4040293 -0.988851E-06  0.557E-04    0.92       9.2  T
  11   -766.4040296 -0.318398E-06  0.308E-04    0.92      16.7  T
  12   -766.4040297 -0.106560E-06  0.123E-04    0.92      41.6  T
  13   -766.4040297 -0.102646E-07  0.598E-05    0.92      85.8  T
     SCC iter.                  ...        0 min, 18.687 sec
     gradient                   ...        0 min,  2.659 sec
------------------------------------------------------------------------
empirical IP shift (eV):    4.8455
delta SCC IP (eV):    5.3758
------------------------------------------------------------------------
           ------------------------------------------------- 
          |        vertical delta SCC EA calculation        |
           ------------------------------------------------- 
   1   -767.0679582 -0.767068E+03  0.998E-02    0.17       0.0  T
   2   -767.0741476 -0.618938E-02  0.902E-02    0.04       1.0  T
   3   -767.0826020 -0.845442E-02  0.495E-02    0.11       1.0  T
   4   -767.0832165 -0.614538E-03  0.395E-02    0.07       1.0  T
   5   -767.0819296  0.128694E-02  0.336E-02    0.09       1.0  T
   6   -767.0815842  0.345354E-03  0.328E-02    0.10       1.0  T
   7   -767.0847033 -0.311909E-02  0.119E-02    0.08       1.0  T
   8   -767.0848500 -0.146726E-03  0.458E-03    0.08       1.1  T
   9   -767.0848676 -0.175152E-04  0.246E-03    0.08       2.1  T
  10   -767.0848727 -0.511750E-05  0.881E-04    0.08       5.8  T
  11   -767.0848732 -0.522846E-06  0.548E-04    0.08       9.4  T
  12   -767.0848734 -0.224444E-06  0.193E-04    0.08      26.6  T
  13   -767.0848735 -0.246253E-07  0.877E-05    0.08      58.5  T
     SCC iter.                  ...        0 min, 18.608 sec
     gradient                   ...        0 min,  2.670 sec
------------------------------------------------------------------------
empirical EA shift (eV):    4.8455
delta SCC EA (eV):    3.4599
------------------------------------------------------------------------
           -------------------------------------------------
          |                Property Printout                |
           -------------------------------------------------

    * Orbital Energies and Occupations

         #    Occupation            Energy/Eh            Energy/eV
      -------------------------------------------------------------
         1        2.0000           -1.0140487             -27.5937
       ...           ...                  ...                  ...
       590        2.0000           -0.3617850              -9.8447
       591        2.0000           -0.3605740              -9.8117
       592        2.0000           -0.3545069              -9.6466
       593        2.0000           -0.3538758              -9.6294
       594        2.0000           -0.3519257              -9.5764
       595        2.0000           -0.3517819              -9.5725
       596        2.0000           -0.3429137              -9.3312
       597        2.0000           -0.3420781              -9.3084
       598        2.0000           -0.3389422              -9.2231
       599        2.0000           -0.3340893              -9.0910
       600        2.0000           -0.3278240              -8.9205
       601        2.0000           -0.3217528              -8.7553
       602        0.8150           -0.2873057              -7.8180 (HOMO)
       603        0.1763           -0.2844323              -7.7398 (LUMO)
       604        0.0083           -0.2813514              -7.6560
       605        0.0004           -0.2783834              -7.5752
       606        0.0000           -0.2757702              -7.5041
       607        0.0000           -0.2747155              -7.4754
       608        0.0000           -0.2729573              -7.4275
       609                         -0.2685771              -7.3084
       610                         -0.2679508              -7.2913
       611                         -0.2669958              -7.2653
       612                         -0.2658261              -7.2335
       613                         -0.2647748              -7.2049
       ...                                ...                  ...
      1534                        527.2608883           14347.4991
      -------------------------------------------------------------
                  HL-Gap            0.0028735 Eh            0.0782 eV
             Fermi-level           -0.2952244 Eh           -8.0335 eV

  Mulliken/CM5 charges         n(s)   n(p)   n(d)
     1C    -0.02335 -0.06418   1.087  2.936  0.000
     2C     0.06153  0.12193   1.105  2.834  0.000
     3C    -0.03588 -0.08119   1.081  2.955  0.000
     4C    -0.03319 -0.07816   1.076  2.957  0.000
     5C     0.06205  0.12595   1.101  2.837  0.000
     6N    -0.15973 -0.51262   1.312  3.848  0.000
     7C     0.00873  0.01447   1.092  2.899  0.000
     8C    -0.00323 -0.01184   1.072  2.931  0.000
     9C    -0.02296 -0.07618   1.078  2.945  0.000
    10C    -0.04135 -0.09337   1.067  2.974  0.000
    11C     0.08734  0.09936   1.124  2.788  0.000
    12O    -0.29699 -0.49656   1.631  4.666  0.000
    13C    -0.03524 -0.08593   1.081  2.954  0.000
    14C    -0.02354 -0.07664   1.077  2.947  0.000
    15C     0.05841  0.12644   1.118  2.824  0.000
    16C    -0.03821 -0.08423   1.085  2.953  0.000
    17C    -0.03871 -0.08416   1.091  2.948  0.000
    18N    -0.28586 -0.47255   1.293  3.993  0.000
    19C     0.06405  0.13487   1.129  2.807  0.000
    20C     0.01658  0.02378   1.084  2.900  0.000
    21C     0.06628  0.13122   1.109  2.825  0.000
    22C    -0.03373 -0.07815   1.080  2.954  0.000
    23C    -0.03297 -0.07794   1.075  2.958  0.000
    24C     0.06140  0.12470   1.099  2.839  0.000
    25N    -0.15739 -0.50959   1.314  3.843  0.000
    26C     0.00805  0.01384   1.092  2.900  0.000
    27C    -0.00324 -0.01183   1.073  2.931  0.000
    28C    -0.02304 -0.07613   1.077  2.946  0.000
    29C    -0.03481 -0.08550   1.081  2.954  0.000
    30C     0.08725  0.09927   1.124  2.788  0.000
    31O    -0.29692 -0.49650   1.631  4.666  0.000
    32C    -0.04190 -0.09391   1.067  2.975  0.000
    33C    -0.02363 -0.07683   1.078  2.945  0.000
    34C     0.05965  0.12901   1.121  2.820  0.000
    35C    -0.03860 -0.08459   1.087  2.952  0.000
    36C    -0.04084 -0.08721   1.092  2.949  0.000
    37C     0.05835  0.12404   1.125  2.817  0.000
    38N    -0.28847 -0.47550   1.293  3.996  0.000
    39H     0.02733  0.08635   0.973  0.000  0.000
    40H     0.03790  0.09458   0.962  0.000  0.000
    41H     0.02957  0.08829   0.970  0.000  0.000
    42H     0.16342  0.37177   0.837  0.000  0.000
    43H     0.02646  0.08442   0.974  0.000  0.000
    44H     0.03802  0.09628   0.962  0.000  0.000
    45H     0.22777  0.40005   0.772  0.000  0.000
    46H     0.03828  0.09732   0.962  0.000  0.000
    47H     0.02632  0.08426   0.974  0.000  0.000
    48H     0.02042  0.07917   0.980  0.000  0.000
    49H     0.02424  0.08233   0.976  0.000  0.000
    50H     0.03417  0.09227   0.966  0.000  0.000
    51H     0.03026  0.08904   0.970  0.000  0.000
    52H     0.16215  0.37047   0.838  0.000  0.000
    53H     0.02722  0.08516   0.973  0.000  0.000
    54H     0.03905  0.09808   0.961  0.000  0.000
    55H     0.22737  0.39965   0.773  0.000  0.000
    56H     0.03706  0.09531   0.963  0.000  0.000
    57H     0.02552  0.08345   0.974  0.000  0.000
    58H     0.01958  0.07822   0.980  0.000  0.000
    59H     0.02776  0.08418   0.972  0.000  0.000
    60C    -0.02287 -0.06371   1.088  2.935  0.000
    61C     0.06165  0.12204   1.105  2.834  0.000
    62C    -0.03559 -0.08090   1.081  2.955  0.000
    63C    -0.03306 -0.07803   1.076  2.957  0.000
    64C     0.06234  0.12623   1.102  2.836  0.000
    65N    -0.15954 -0.51243   1.312  3.847  0.000
    66C     0.00880  0.01454   1.092  2.899  0.000
    67C    -0.00328 -0.01189   1.072  2.931  0.000
    68C    -0.02302 -0.07625   1.078  2.945  0.000
    69C    -0.04131 -0.09333   1.067  2.974  0.000
    70C     0.08741  0.09942   1.124  2.788  0.000
    71O    -0.29688 -0.49646   1.631  4.666  0.000
    72C    -0.03517 -0.08585   1.081  2.954  0.000
    73C    -0.02356 -0.07664   1.077  2.947  0.000
    74C     0.05878  0.12685   1.118  2.823  0.000
    75C    -0.03803 -0.08404   1.085  2.953  0.000
    76C    -0.03842 -0.08386   1.091  2.948  0.000
    77N    -0.28582 -0.47247   1.293  3.993  0.000
    78C     0.06422  0.13501   1.129  2.806  0.000
    79C     0.01680  0.02399   1.084  2.899  0.000
    80C     0.06645  0.13138   1.109  2.824  0.000
    81C    -0.03340 -0.07783   1.080  2.953  0.000
    82C    -0.03269 -0.07766   1.075  2.957  0.000
    83C     0.06168  0.12498   1.100  2.839  0.000
    84N    -0.15737 -0.50954   1.314  3.843  0.000
    85C     0.00826  0.01405   1.092  2.899  0.000
    86C    -0.00328 -0.01188   1.072  2.931  0.000
    87C    -0.02306 -0.07616   1.077  2.946  0.000
    88C    -0.03476 -0.08545   1.081  2.954  0.000
    89C     0.08735  0.09937   1.124  2.788  0.000
    90O    -0.29678 -0.49636   1.631  4.666  0.000
    91C    -0.04182 -0.09383   1.067  2.975  0.000
    92C    -0.02361 -0.07681   1.078  2.945  0.000
    93C     0.05989  0.12925   1.121  2.819  0.000
    94C    -0.03848 -0.08446   1.087  2.952  0.000
    95C    -0.04062 -0.08700   1.092  2.949  0.000
    96C     0.05847  0.12416   1.125  2.817  0.000
    97N    -0.28817 -0.47522   1.293  3.995  0.000
    98H     0.02772  0.08675   0.972  0.000  0.000
    99H     0.03825  0.09492   0.962  0.000  0.000
   100H     0.02987  0.08858   0.970  0.000  0.000
   101H     0.16358  0.37192   0.836  0.000  0.000
   102H     0.02653  0.08448   0.973  0.000  0.000
   103H     0.03815  0.09641   0.962  0.000  0.000
   104H     0.22789  0.40017   0.772  0.000  0.000
   105H     0.03846  0.09749   0.962  0.000  0.000
   106H     0.02644  0.08438   0.974  0.000  0.000
   107H     0.02073  0.07951   0.979  0.000  0.000
   108H     0.02449  0.08260   0.976  0.000  0.000
   109H     0.03446  0.09256   0.966  0.000  0.000
   110H     0.03062  0.08940   0.969  0.000  0.000
   111H     0.16231  0.37062   0.838  0.000  0.000
   112H     0.02727  0.08520   0.973  0.000  0.000
   113H     0.03920  0.09823   0.961  0.000  0.000
   114H     0.22752  0.39981   0.772  0.000  0.000
   115H     0.03724  0.09549   0.963  0.000  0.000
   116H     0.02566  0.08359   0.974  0.000  0.000
   117H     0.01987  0.07851   0.980  0.000  0.000
   118H     0.02808  0.08450   0.972  0.000  0.000
   119C    -0.01601 -0.01612   1.077  2.939  0.000
   120C    -0.01927 -0.01937   1.074  2.945  0.000
   121C    -0.02061 -0.02138   1.062  2.959  0.000
   122C    -0.01919 -0.02084   1.091  2.928  0.000
   123C    -0.02351 -0.02428   1.060  2.964  0.000
   124C    -0.01589 -0.01752   1.095  2.921  0.000
   125C    -0.01798 -0.01809   1.076  2.942  0.000
   126C    -0.01891 -0.01902   1.075  2.944  0.000
   127C    -0.02223 -0.02300   1.061  2.962  0.000
   128C    -0.01868 -0.02031   1.092  2.927  0.000
   129C    -0.02304 -0.02381   1.060  2.963  0.000
   130C    -0.01766 -0.01930   1.093  2.925  0.000
   131C    -0.01846 -0.01856   1.076  2.943  0.000
   132C    -0.01841 -0.01851   1.076  2.943  0.000
   133C    -0.02270 -0.02347   1.060  2.962  0.000
   134C    -0.01808 -0.01972   1.093  2.926  0.000
   135C    -0.02265 -0.02341   1.060  2.962  0.000
   136C    -0.01812 -0.01975   1.092  2.926  0.000
   137C    -0.01904 -0.01914   1.075  2.944  0.000
   138C    -0.01780 -0.01790   1.076  2.942  0.000
   139C    -0.02317 -0.02394   1.060  2.963  0.000
   140C    -0.01751 -0.01915   1.093  2.924  0.000
   141C    -0.02202 -0.02278   1.061  2.961  0.000
   142C    -0.01880 -0.02042   1.092  2.927  0.000
   143C    -0.01905 -0.01916   1.074  2.945  0.000
   144C    -0.01552 -0.01562   1.078  2.938  0.000
   145C    -0.02342 -0.02418   1.059  2.964  0.000
   146C    -0.01544 -0.01707   1.096  2.920  0.000
   147C    -0.02020 -0.02098   1.062  2.958  0.000
   148C    -0.01899 -0.02064   1.091  2.928  0.000
   149C     0.01295  0.02016   1.081  2.906  0.000
   150C     0.06549  0.13040   1.109  2.826  0.000
   151C    -0.03636 -0.08079   1.078  2.958  0.000
   152C    -0.03400 -0.07896   1.075  2.959  0.000
   153C     0.05959  0.12294   1.097  2.844  0.000
   154N    -0.15722 -0.50953   1.314  3.844  0.000
   155C     0.01091  0.01657   1.094  2.895  0.000
   156C    -0.00253 -0.01119   1.073  2.930  0.000
   157C    -0.02275 -0.07601   1.078  2.945  0.000
   158C    -0.04153 -0.09355   1.067  2.974  0.000
   159C     0.08717  0.09921   1.124  2.789  0.000
   160O    -0.29735 -0.49694   1.631  4.666  0.000
   161C    -0.03511 -0.08580   1.081  2.954  0.000
   162C    -0.02290 -0.07602   1.077  2.946  0.000
   163C     0.05699  0.12492   1.116  2.827  0.000
   164C    -0.03896 -0.08500   1.085  2.954  0.000
   165C    -0.04012 -0.08557   1.090  2.950  0.000
   166N    -0.28564 -0.47191   1.293  3.993  0.000
   167C     0.06359  0.13451   1.129  2.807  0.000
   168C     0.01497  0.02218   1.083  2.902  0.000
   169C     0.06573  0.13074   1.109  2.825  0.000
   170C    -0.03548 -0.07992   1.078  2.957  0.000
   171C    -0.03386 -0.07883   1.075  2.959  0.000
   172C     0.05985  0.12318   1.097  2.843  0.000
   173N    -0.15661 -0.50902   1.314  3.843  0.000
   174C     0.01065  0.01630   1.093  2.896  0.000
   175C    -0.00255 -0.01122   1.073  2.930  0.000
   176C    -0.02279 -0.07591   1.077  2.946  0.000
   177C    -0.03494 -0.08562   1.081  2.954  0.000
   178C     0.08717  0.09921   1.124  2.789  0.000
   179O    -0.29730 -0.49689   1.631  4.666  0.000
   180C    -0.04166 -0.09368   1.067  2.975  0.000
   181C    -0.02291 -0.07613   1.078  2.945  0.000
   182C     0.05714  0.12516   1.116  2.827  0.000
   183C    -0.03887 -0.08488   1.086  2.953  0.000
   184C    -0.04052 -0.08597   1.090  2.951  0.000
   185C     0.06341  0.13420   1.129  2.807  0.000
   186N    -0.28644 -0.47266   1.292  3.994  0.000
   187H     0.03135  0.08945   0.969  0.000  0.000
   188H     0.02827  0.08711   0.972  0.000  0.000
   189H     0.16216  0.37014   0.838  0.000  0.000
   190H     0.02620  0.08416   0.974  0.000  0.000
   191H     0.03720  0.09545   0.963  0.000  0.000
   192H     0.22709  0.39936   0.773  0.000  0.000
   193H     0.03796  0.09700   0.962  0.000  0.000
   194H     0.02651  0.08444   0.973  0.000  0.000
   195H     0.01890  0.07773   0.981  0.000  0.000
   196H     0.02246  0.08053   0.978  0.000  0.000
   197H     0.03280  0.09091   0.967  0.000  0.000
   198H     0.02880  0.08765   0.971  0.000  0.000
   199H     0.16208  0.37007   0.838  0.000  0.000
   200H     0.02677  0.08470   0.973  0.000  0.000
   201H     0.03826  0.09730   0.962  0.000  0.000
   202H     0.22697  0.39925   0.773  0.000  0.000
   203H     0.03695  0.09521   0.963  0.000  0.000
   204H     0.02601  0.08393   0.974  0.000  0.000
   205H     0.01866  0.07743   0.981  0.000  0.000
   206H     0.02168  0.07977   0.978  0.000  0.000
   207C     0.01402  0.02123   1.082  2.904  0.000
   208C     0.06562  0.13061   1.109  2.826  0.000
   209C    -0.03599 -0.08042   1.078  2.958  0.000
   210C    -0.03399 -0.07895   1.075  2.959  0.000
   211C     0.05953  0.12287   1.097  2.844  0.000
   212N    -0.15674 -0.50913   1.314  3.843  0.000
   213C     0.01103  0.01670   1.094  2.895  0.000
   214C    -0.00248 -0.01113   1.073  2.930  0.000
   215C    -0.02274 -0.07602   1.078  2.945  0.000
   216C    -0.04159 -0.09361   1.067  2.975  0.000
   217C     0.08719  0.09923   1.124  2.789  0.000
   218O    -0.29734 -0.49694   1.631  4.666  0.000
   219C    -0.03500 -0.08568   1.081  2.954  0.000
   220C    -0.02275 -0.07585   1.077  2.946  0.000
   221C     0.05687  0.12477   1.116  2.827  0.000
   222C    -0.03898 -0.08502   1.085  2.954  0.000
   223C    -0.04031 -0.08576   1.090  2.950  0.000
   224N    -0.28585 -0.47210   1.293  3.993  0.000
   225C     0.06356  0.13452   1.129  2.807  0.000
   226C     0.01437  0.02157   1.082  2.903  0.000
   227C     0.06573  0.13073   1.109  2.825  0.000
   228C    -0.03574 -0.08017   1.078  2.957  0.000
   229C    -0.03390 -0.07886   1.075  2.959  0.000
   230C     0.05964  0.12297   1.097  2.843  0.000
   231N    -0.15676 -0.50915   1.314  3.843  0.000
   232C     0.01099  0.01665   1.094  2.895  0.000
   233C    -0.00247 -0.01113   1.073  2.930  0.000
   234C    -0.02276 -0.07589   1.077  2.946  0.000
   235C    -0.03497 -0.08566   1.081  2.954  0.000
   236C     0.08714  0.09918   1.124  2.789  0.000
   237O    -0.29737 -0.49696   1.631  4.666  0.000
   238C    -0.04163 -0.09365   1.067  2.974  0.000
   239C    -0.02285 -0.07605   1.078  2.945  0.000
   240C     0.05688  0.12482   1.116  2.827  0.000
   241C    -0.03903 -0.08504   1.085  2.954  0.000
   242C    -0.04046 -0.08591   1.090  2.951  0.000
   243C     0.06345  0.13437   1.129  2.807  0.000
   244N    -0.28593 -0.47226   1.293  3.993  0.000
   245H     0.03214  0.09027   0.968  0.000  0.000
   246H     0.02836  0.08719   0.972  0.000  0.000
   247H     0.16212  0.37012   0.838  0.000  0.000
   248H     0.02608  0.08403   0.974  0.000  0.000
   249H     0.03701  0.09526   0.963  0.000  0.000
   250H     0.22694  0.39922   0.773  0.000  0.000
   251H     0.03809  0.09713   0.962  0.000  0.000
   252H     0.02671  0.08468   0.973  0.000  0.000
   253H     0.01869  0.07752   0.981  0.000  0.000
   254H     0.02207  0.08015   0.978  0.000  0.000
   255H     0.03245  0.09058   0.968  0.000  0.000
   256H     0.02860  0.08746   0.971  0.000  0.000
   257H     0.16211  0.37010   0.838  0.000  0.000
   258H     0.02670  0.08463   0.973  0.000  0.000
   259H     0.03813  0.09717   0.962  0.000  0.000
   260H     0.22690  0.39918   0.773  0.000  0.000
   261H     0.03692  0.09518   0.963  0.000  0.000
   262H     0.02608  0.08402   0.974  0.000  0.000
   263H     0.01857  0.07733   0.981  0.000  0.000
   264H     0.02179  0.07984   0.978  0.000  0.000
   265C     0.01444  0.02166   1.082  2.903  0.000
   266C     0.06566  0.13066   1.109  2.826  0.000
   267C    -0.03580 -0.08023   1.078  2.958  0.000
   268C    -0.03393 -0.07890   1.075  2.959  0.000
   269C     0.05960  0.12295   1.097  2.843  0.000
   270N    -0.15664 -0.50905   1.314  3.843  0.000
   271C     0.01099  0.01665   1.094  2.895  0.000
   272C    -0.00249 -0.01114   1.073  2.930  0.000
   273C    -0.02278 -0.07606   1.078  2.945  0.000
   274C    -0.04165 -0.09368   1.067  2.975  0.000
   275C     0.08718  0.09921   1.124  2.789  0.000
   276O    -0.29734 -0.49693   1.631  4.666  0.000
   277C    -0.03496 -0.08564   1.081  2.954  0.000
   278C    -0.02273 -0.07583   1.077  2.946  0.000
   279C     0.05682  0.12471   1.116  2.827  0.000
   280C    -0.03902 -0.08506   1.085  2.954  0.000
   281C    -0.04052 -0.08596   1.090  2.951  0.000
   282N    -0.28602 -0.47223   1.293  3.993  0.000
   283C     0.06350  0.13444   1.129  2.807  0.000
   284C     0.01386  0.02106   1.082  2.904  0.000
   285C     0.06569  0.13068   1.109  2.825  0.000
   286C    -0.03600 -0.08043   1.078  2.958  0.000
   287C    -0.03397 -0.07893   1.075  2.959  0.000
   288C     0.05953  0.12285   1.097  2.844  0.000
   289N    -0.15686 -0.50924   1.314  3.843  0.000
   290C     0.01105  0.01671   1.094  2.895  0.000
   291C    -0.00247 -0.01113   1.073  2.930  0.000
   292C    -0.02279 -0.07592   1.077  2.946  0.000
   293C    -0.03501 -0.08570   1.081  2.954  0.000
   294C     0.08715  0.09918   1.124  2.789  0.000
   295O    -0.29738 -0.49697   1.631  4.666  0.000
   296C    -0.04158 -0.09360   1.067  2.974  0.000
   297C    -0.02281 -0.07602   1.078  2.945  0.000
   298C     0.05691  0.12484   1.116  2.827  0.000
   299C    -0.03897 -0.08498   1.085  2.954  0.000
   300C    -0.04031 -0.08576   1.090  2.950  0.000
   301C     0.06351  0.13444   1.129  2.807  0.000
   302N    -0.28577 -0.47215   1.293  3.993  0.000
   303H     0.03241  0.09053   0.968  0.000  0.000
   304H     0.02849  0.08734   0.972  0.000  0.000
   305H     0.16211  0.37012   0.838  0.000  0.000
   306H     0.02604  0.08398   0.974  0.000  0.000
   307H     0.03692  0.09517   0.963  0.000  0.000
   308H     0.22689  0.39917   0.773  0.000  0.000
   309H     0.03818  0.09721   0.962  0.000  0.000
   310H     0.02676  0.08473   0.973  0.000  0.000
   311H     0.01854  0.07734   0.981  0.000  0.000
   312H     0.02176  0.07982   0.978  0.000  0.000
   313H     0.03214  0.09027   0.968  0.000  0.000
   314H     0.02846  0.08730   0.972  0.000  0.000
   315H     0.16212  0.37011   0.838  0.000  0.000
   316H     0.02665  0.08456   0.973  0.000  0.000
   317H     0.03805  0.09709   0.962  0.000  0.000
   318H     0.22695  0.39922   0.773  0.000  0.000
   319H     0.03701  0.09526   0.963  0.000  0.000
   320H     0.02613  0.08407   0.974  0.000  0.000
   321H     0.01871  0.07750   0.981  0.000  0.000
   322H     0.02208  0.08015   0.978  0.000  0.000
   323C     0.01525  0.02247   1.083  2.902  0.000
   324C     0.06572  0.13072   1.109  2.825  0.000
   325C    -0.03538 -0.07982   1.078  2.957  0.000
   326C    -0.03387 -0.07883   1.075  2.959  0.000
   327C     0.05996  0.12330   1.097  2.843  0.000
   328N    -0.15651 -0.50892   1.314  3.843  0.000
   329C     0.01046  0.01612   1.093  2.896  0.000
   330C    -0.00259 -0.01125   1.073  2.930  0.000
   331C    -0.02293 -0.07618   1.078  2.945  0.000
   332C    -0.04172 -0.09374   1.067  2.975  0.000
   333C     0.08717  0.09920   1.124  2.789  0.000
   334O    -0.29728 -0.49687   1.631  4.666  0.000
   335C    -0.03491 -0.08560   1.081  2.954  0.000
   336C    -0.02276 -0.07588   1.077  2.946  0.000
   337C     0.05727  0.12530   1.116  2.826  0.000
   338C    -0.03885 -0.08488   1.086  2.953  0.000
   339C    -0.04049 -0.08594   1.090  2.951  0.000
   340N    -0.28656 -0.47273   1.292  3.994  0.000
   341C     0.06335  0.13412   1.129  2.807  0.000
   342C     0.01284  0.02005   1.081  2.906  0.000
   343C     0.06565  0.13056   1.109  2.825  0.000
   344C    -0.03614 -0.08058   1.078  2.958  0.000
   345C    -0.03377 -0.07873   1.075  2.958  0.000
   346C     0.05975  0.12310   1.097  2.843  0.000
   347N    -0.15728 -0.50960   1.313  3.844  0.000
   348C     0.01100  0.01666   1.094  2.895  0.000
   349C    -0.00256 -0.01123   1.073  2.930  0.000
   350C    -0.02292 -0.07604   1.077  2.946  0.000
   351C    -0.03507 -0.08576   1.081  2.954  0.000
   352C     0.08722  0.09925   1.124  2.789  0.000
   353O    -0.29729 -0.49688   1.631  4.666  0.000
   354C    -0.04148 -0.09350   1.067  2.974  0.000
   355C    -0.02281 -0.07603   1.078  2.945  0.000
   356C     0.05712  0.12509   1.116  2.827  0.000
   357C    -0.03889 -0.08489   1.085  2.954  0.000
   358C    -0.04003 -0.08547   1.090  2.950  0.000
   359C     0.06362  0.13454   1.129  2.807  0.000
   360N    -0.28549 -0.47184   1.293  3.993  0.000
   361H     0.03292  0.09103   0.967  0.000  0.000
   362H     0.02882  0.08769   0.971  0.000  0.000
   363H     0.16212  0.37012   0.838  0.000  0.000
   364H     0.02594  0.08388   0.974  0.000  0.000
   365H     0.03690  0.09516   0.963  0.000  0.000
   366H     0.22695  0.39923   0.773  0.000  0.000
   367H     0.03836  0.09740   0.962  0.000  0.000
   368H     0.02686  0.08483   0.973  0.000  0.000
   369H     0.01863  0.07741   0.981  0.000  0.000
   370H     0.02156  0.07962   0.978  0.000  0.000
   371H     0.03157  0.08968   0.968  0.000  0.000
   372H     0.02857  0.08740   0.971  0.000  0.000
   373H     0.16222  0.37020   0.838  0.000  0.000
   374H     0.02651  0.08441   0.973  0.000  0.000
   375H     0.03805  0.09709   0.962  0.000  0.000
   376H     0.22718  0.39945   0.773  0.000  0.000
   377H     0.03729  0.09555   0.963  0.000  0.000
   378H     0.02630  0.08423   0.974  0.000  0.000
   379H     0.01907  0.07787   0.981  0.000  0.000
   380H     0.02260  0.08066   0.977  0.000  0.000

Wiberg/Mayer (AO) data.
largest (>0.10) Wiberg bond orders for each atom

 ---------------------------------------------------------------------------
     #   Z sym  total        # sym  WBO       # sym  WBO       # sym  WBO
 ---------------------------------------------------------------------------
     1   6 C    3.812 --    37 C    1.384     2 C    1.372    39 H    0.996
     2   6 C    3.925 --     1 C    1.372     3 C    1.240     6 N    1.230
     3   6 C    3.838 --     4 C    1.597     2 C    1.240    40 H    0.993
     4   6 C    3.826 --     3 C    1.597     5 C    1.252    41 H    0.999
     5   6 C    3.899 --     7 C    1.342     4 C    1.252     6 N    1.229
     6   7 N    3.247 --     2 C    1.230     5 C    1.229    42 H    0.961
     7   6 C    3.845 --    15 C    1.368     5 C    1.342     8 C    1.051
     8   6 C    3.877 --     9 C    1.417    14 C    1.410     7 C    1.051
     9   6 C    3.869 --    10 C    1.448     8 C    1.417    43 H    0.989
    10   6 C    3.873 --     9 C    1.448    11 C    1.394    44 H    0.981
    11   6 C    3.970 --    10 C    1.394    13 C    1.385    12 O    1.126
    12   8 O    2.170 --    11 C    1.126    45 H    0.964
    13   6 C    3.905 --    14 C    1.456    11 C    1.385    46 H    0.983
    14   6 C    3.866 --    13 C    1.456     8 C    1.410    47 H    0.990
    15   6 C    3.925 --     7 C    1.368    18 N    1.355    16 C    1.162
    16   6 C    3.840 --    17 C    1.692    15 C    1.162    48 H    0.999
    17   6 C    3.852 --    16 C    1.692    19 C    1.166    49 H    0.999
    18   7 N    2.566 --    19 C    1.412    15 C    1.355
    19   6 C    3.943 --    18 N    1.412    20 C    1.288    17 C    1.166
    20   6 C    3.846 --    21 C    1.288    19 C    1.288   122 C    1.217
    21   6 C    3.904 --    20 C    1.288    22 C    1.266    25 N    1.249
    22   6 C    3.834 --    23 C    1.584    21 C    1.266    50 H    0.998
    23   6 C    3.819 --    22 C    1.584    24 C    1.259    51 H    0.999
    24   6 C    3.894 --    26 C    1.345    23 C    1.259    25 N    1.221
    25   7 N    3.259 --    21 C    1.249    24 C    1.221    52 H    0.960
    26   6 C    3.832 --    34 C    1.357    24 C    1.345    27 C    1.052
    27   6 C    3.877 --    33 C    1.418    28 C    1.409    26 C    1.052
    28   6 C    3.866 --    29 C    1.457    27 C    1.409    53 H    0.990
    29   6 C    3.905 --    28 C    1.457    30 C    1.385    54 H    0.983
    30   6 C    3.970 --    32 C    1.394    29 C    1.385    31 O    1.126
    31   8 O    2.171 --    30 C    1.126    55 H    0.964
    32   6 C    3.873 --    33 C    1.448    30 C    1.394    56 H    0.982
    33   6 C    3.868 --    32 C    1.448    27 C    1.418    57 H    0.989
    34   6 C    3.945 --    38 N    1.380    26 C    1.357    35 C    1.155
    35   6 C    3.845 --    36 C    1.706    34 C    1.155    58 H    1.000
    36   6 C    3.862 --    35 C    1.706    37 C    1.148    59 H    0.993
    37   6 C    3.968 --     1 C    1.384    38 N    1.375    36 C    1.148
    38   7 N    2.552 --    34 C    1.380    37 C    1.375
    39   1 H    1.033 --     1 C    0.996
    40   1 H    1.016 --     3 C    0.993
    41   1 H    1.032 --     4 C    0.999
    42   1 H    1.083 --     6 N    0.961
    43   1 H    1.049 --     9 C    0.989
    44   1 H    1.013 --    10 C    0.981
    45   1 H    1.005 --    12 O    0.964
    46   1 H    1.023 --    13 C    0.983
    47   1 H    1.046 --    14 C    0.990
    48   1 H    1.034 --    16 C    0.999
    49   1 H    1.032 --    17 C    0.999
    50   1 H    1.029 --    22 C    0.998
    51   1 H    1.032 --    23 C    0.999
    52   1 H    1.087 --    25 N    0.960
    53   1 H    1.047 --    28 C    0.990
    54   1 H    1.023 --    29 C    0.983
    55   1 H    1.005 --    31 O    0.964
    56   1 H    1.013 --    32 C    0.982
    57   1 H    1.049 --    33 C    0.989
    58   1 H    1.035 --    35 C    1.000
    59   1 H    1.019 --    36 C    0.993
    60   6 C    3.813 --    96 C    1.384    61 C    1.372    98 H    0.996
    61   6 C    3.925 --    60 C    1.372    62 C    1.240    65 N    1.230
    62   6 C    3.839 --    63 C    1.598    61 C    1.240    99 H    0.993
    63   6 C    3.826 --    62 C    1.598    64 C    1.252   100 H    0.999
    64   6 C    3.899 --    66 C    1.342    63 C    1.252    65 N    1.229
    65   7 N    3.248 --    61 C    1.230    64 C    1.229   101 H    0.961
    66   6 C    3.845 --    74 C    1.368    64 C    1.342    67 C    1.051
    67   6 C    3.877 --    68 C    1.417    73 C    1.410    66 C    1.051
    68   6 C    3.869 --    69 C    1.448    67 C    1.417   102 H    0.989
    69   6 C    3.873 --    68 C    1.448    70 C    1.394   103 H    0.981
    70   6 C    3.970 --    69 C    1.394    72 C    1.385    71 O    1.126
    71   8 O    2.171 --    70 C    1.126   104 H    0.964
    72   6 C    3.905 --    73 C    1.456    70 C    1.385   105 H    0.983
    73   6 C    3.866 --    72 C    1.456    67 C    1.410   106 H    0.990
    74   6 C    3.926 --    66 C    1.368    77 N    1.355    75 C    1.162
    75   6 C    3.841 --    76 C    1.693    74 C    1.162   107 H    0.999
    76   6 C    3.853 --    75 C    1.693    78 C    1.165   108 H    0.999
    77   7 N    2.567 --    78 C    1.411    74 C    1.355
    78   6 C    3.944 --    77 N    1.411    79 C    1.290    76 C    1.165
    79   6 C    3.848 --    80 C    1.290    78 C    1.290   148 C    1.213
    80   6 C    3.905 --    79 C    1.290    81 C    1.265    84 N    1.249
    81   6 C    3.835 --    82 C    1.586    80 C    1.265   109 H    0.998
    82   6 C    3.820 --    81 C    1.586    83 C    1.258   110 H    0.999
    83   6 C    3.895 --    85 C    1.346    82 C    1.258    84 N    1.221
    84   7 N    3.259 --    80 C    1.249    83 C    1.221   111 H    0.960
    85   6 C    3.832 --    93 C    1.356    83 C    1.346    86 C    1.052
    86   6 C    3.877 --    92 C    1.417    87 C    1.409    85 C    1.052
    87   6 C    3.866 --    88 C    1.457    86 C    1.409   112 H    0.990
    88   6 C    3.905 --    87 C    1.457    89 C    1.385   113 H    0.983
    89   6 C    3.970 --    91 C    1.394    88 C    1.385    90 O    1.126
    90   8 O    2.171 --    89 C    1.126   114 H    0.964
    91   6 C    3.873 --    92 C    1.448    89 C    1.394   115 H    0.982
    92   6 C    3.868 --    91 C    1.448    86 C    1.417   116 H    0.989
    93   6 C    3.945 --    97 N    1.381    85 C    1.356    94 C    1.155
    94   6 C    3.845 --    95 C    1.706    93 C    1.155   117 H    1.000
    95   6 C    3.863 --    94 C    1.706    96 C    1.147   118 H    0.993
    96   6 C    3.968 --    60 C    1.384    97 N    1.375    95 C    1.147
    97   7 N    2.553 --    93 C    1.381    96 C    1.375
    98   1 H    1.033 --    60 C    0.996
    99   1 H    1.016 --    62 C    0.993
   100   1 H    1.032 --    63 C    0.999
   101   1 H    1.083 --    65 N    0.961
   102   1 H    1.049 --    68 C    0.989
   103   1 H    1.013 --    69 C    0.981
   104   1 H    1.005 --    71 O    0.964
   105   1 H    1.023 --    72 C    0.983
   106   1 H    1.046 --    73 C    0.990
   107   1 H    1.034 --    75 C    0.999
   108   1 H    1.032 --    76 C    0.999
   109   1 H    1.029 --    81 C    0.998
   110   1 H    1.032 --    82 C    0.999
   111   1 H    1.086 --    84 N    0.960
   112   1 H    1.046 --    87 C    0.990
   113   1 H    1.023 --    88 C    0.983
   114   1 H    1.005 --    90 O    0.964
   115   1 H    1.013 --    91 C    0.982
   116   1 H    1.048 --    92 C    0.989
   117   1 H    1.035 --    94 C    1.000
   118   1 H    1.019 --    95 C    0.993
   119   6 C    3.834 --   120 C    2.379   123 C    1.353   122 C    0.170
   120   6 C    3.832 --   119 C    2.379   121 C    1.352   124 C    0.170
   121   6 C    3.808 --   122 C    2.477   120 C    1.352
   122   6 C    3.766 --   121 C    2.477    20 C    1.217   119 C    0.170
   123   6 C    3.803 --   124 C    2.472   119 C    1.353
   124   6 C    3.768 --   123 C    2.472   149 C    1.221   120 C    0.170
   125   6 C    3.833 --   126 C    2.365   129 C    1.364   128 C    0.169
   126   6 C    3.833 --   125 C    2.365   127 C    1.364   130 C    0.169
   127   6 C    3.802 --   128 C    2.461   126 C    1.364
   128   6 C    3.766 --   127 C    2.461   168 C    1.231   125 C    0.169
   129   6 C    3.802 --   130 C    2.460   125 C    1.364
   130   6 C    3.767 --   129 C    2.460   207 C    1.231   126 C    0.169
   131   6 C    3.833 --   132 C    2.364   135 C    1.364   134 C    0.169
   132   6 C    3.833 --   131 C    2.364   133 C    1.364   136 C    0.169
   133   6 C    3.802 --   134 C    2.460   132 C    1.364
   134   6 C    3.767 --   133 C    2.460   226 C    1.231   131 C    0.169
   135   6 C    3.802 --   136 C    2.460   131 C    1.364
   136   6 C    3.767 --   135 C    2.460   265 C    1.231   132 C    0.169
   137   6 C    3.833 --   138 C    2.365   141 C    1.364   140 C    0.169
   138   6 C    3.833 --   137 C    2.365   139 C    1.364   142 C    0.169
   139   6 C    3.802 --   140 C    2.460   138 C    1.364
   140   6 C    3.767 --   139 C    2.460   284 C    1.231   137 C    0.169
   141   6 C    3.802 --   142 C    2.461   137 C    1.364
   142   6 C    3.766 --   141 C    2.461   323 C    1.231   138 C    0.169
   143   6 C    3.831 --   144 C    2.383   147 C    1.348   146 C    0.170
   144   6 C    3.834 --   143 C    2.383   145 C    1.350   148 C    0.171
   145   6 C    3.803 --   146 C    2.476   144 C    1.350
   146   6 C    3.768 --   145 C    2.476   342 C    1.217   143 C    0.170
   147   6 C    3.808 --   148 C    2.481   143 C    1.348
   148   6 C    3.766 --   147 C    2.481    79 C    1.213   144 C    0.171
   149   6 C    3.826 --   185 C    1.284   150 C    1.281   124 C    1.221
   150   6 C    3.905 --   149 C    1.281   151 C    1.271   154 N    1.251
   151   6 C    3.827 --   152 C    1.577   150 C    1.271   187 H    0.999
   152   6 C    3.820 --   151 C    1.577   153 C    1.265   188 H    0.999
   153   6 C    3.886 --   155 C    1.337   152 C    1.265   154 N    1.219
   154   7 N    3.249 --   150 C    1.251   153 C    1.219   189 H    0.961
   155   6 C    3.835 --   163 C    1.372   153 C    1.337   156 C    1.051
   156   6 C    3.877 --   157 C    1.418   162 C    1.410   155 C    1.051
   157   6 C    3.869 --   158 C    1.448   156 C    1.418   190 H    0.989
   158   6 C    3.873 --   157 C    1.448   159 C    1.394   191 H    0.982
   159   6 C    3.970 --   158 C    1.394   161 C    1.385   160 O    1.125
   160   8 O    2.170 --   159 C    1.125   192 H    0.964
   161   6 C    3.904 --   162 C    1.456   159 C    1.385   193 H    0.983
   162   6 C    3.866 --   161 C    1.456   156 C    1.410   194 H    0.990
   163   6 C    3.923 --   155 C    1.372   166 N    1.349   164 C    1.164
   164   6 C    3.840 --   165 C    1.689   163 C    1.164   195 H    1.000
   165   6 C    3.849 --   164 C    1.689   167 C    1.168   196 H    1.000
   166   7 N    2.551 --   167 C    1.418   163 C    1.349
   167   6 C    3.943 --   166 N    1.418   168 C    1.280   165 C    1.168
   168   6 C    3.826 --   167 C    1.280   169 C    1.278   128 C    1.231
   169   6 C    3.903 --   168 C    1.278   170 C    1.273   173 N    1.252
   170   6 C    3.828 --   171 C    1.575   169 C    1.273   197 H    0.998
   171   6 C    3.818 --   170 C    1.575   172 C    1.266   198 H    0.999
   172   6 C    3.886 --   174 C    1.335   171 C    1.266   173 N    1.221
   173   7 N    3.251 --   169 C    1.252   172 C    1.221   199 H    0.961
   174   6 C    3.834 --   182 C    1.374   172 C    1.335   175 C    1.051
   175   6 C    3.877 --   181 C    1.418   176 C    1.410   174 C    1.051
   176   6 C    3.866 --   177 C    1.456   175 C    1.410   200 H    0.990
   177   6 C    3.904 --   176 C    1.456   178 C    1.385   201 H    0.983
   178   6 C    3.970 --   180 C    1.395   177 C    1.385   179 O    1.125
   179   8 O    2.169 --   178 C    1.125   202 H    0.964
   180   6 C    3.873 --   181 C    1.447   178 C    1.395   203 H    0.982
   181   6 C    3.869 --   180 C    1.447   175 C    1.418   204 H    0.989
   182   6 C    3.925 --   174 C    1.374   186 N    1.349   183 C    1.163
   183   6 C    3.841 --   184 C    1.691   182 C    1.163   205 H    1.000
   184   6 C    3.849 --   183 C    1.691   185 C    1.167   206 H    1.000
   185   6 C    3.944 --   186 N    1.416   149 C    1.284   184 C    1.167
   186   7 N    2.548 --   185 C    1.416   182 C    1.349
   187   1 H    1.029 --   151 C    0.999
   188   1 H    1.033 --   152 C    0.999
   189   1 H    1.084 --   154 N    0.961
   190   1 H    1.049 --   157 C    0.989
   191   1 H    1.013 --   158 C    0.982
   192   1 H    1.005 --   160 O    0.964
   193   1 H    1.023 --   161 C    0.983
   194   1 H    1.047 --   162 C    0.990
   195   1 H    1.035 --   164 C    1.000
   196   1 H    1.033 --   165 C    1.000
   197   1 H    1.029 --   170 C    0.998
   198   1 H    1.031 --   171 C    0.999
   199   1 H    1.084 --   173 N    0.961
   200   1 H    1.047 --   176 C    0.990
   201   1 H    1.023 --   177 C    0.983
   202   1 H    1.006 --   179 O    0.964
   203   1 H    1.013 --   180 C    0.982
   204   1 H    1.049 --   181 C    0.989
   205   1 H    1.035 --   183 C    1.000
   206   1 H    1.033 --   184 C    1.000
   207   6 C    3.826 --   243 C    1.280   208 C    1.277   130 C    1.231
   208   6 C    3.904 --   207 C    1.277   209 C    1.273   212 N    1.253
   209   6 C    3.828 --   210 C    1.574   208 C    1.273   245 H    0.999
   210   6 C    3.819 --   209 C    1.574   211 C    1.267   246 H    0.999
   211   6 C    3.887 --   213 C    1.335   210 C    1.267   212 N    1.220
   212   7 N    3.250 --   208 C    1.253   211 C    1.220   247 H    0.961
   213   6 C    3.834 --   221 C    1.374   211 C    1.335   214 C    1.052
   214   6 C    3.877 --   215 C    1.418   220 C    1.410   213 C    1.052
   215   6 C    3.868 --   216 C    1.448   214 C    1.418   248 H    0.989
   216   6 C    3.873 --   215 C    1.448   217 C    1.395   249 H    0.982
   217   6 C    3.969 --   216 C    1.395   219 C    1.385   218 O    1.125
   218   8 O    2.170 --   217 C    1.125   250 H    0.964
   219   6 C    3.905 --   220 C    1.457   217 C    1.385   251 H    0.983
   220   6 C    3.866 --   219 C    1.457   214 C    1.410   252 H    0.990
   221   6 C    3.924 --   213 C    1.374   224 N    1.348   222 C    1.164
   222   6 C    3.840 --   223 C    1.690   221 C    1.164   253 H    1.000
   223   6 C    3.849 --   222 C    1.690   225 C    1.168   254 H    1.000
   224   7 N    2.550 --   225 C    1.419   221 C    1.348
   225   6 C    3.943 --   224 N    1.419   226 C    1.279   223 C    1.168
   226   6 C    3.826 --   225 C    1.279   227 C    1.277   134 C    1.231
   227   6 C    3.904 --   226 C    1.277   228 C    1.273   231 N    1.253
   228   6 C    3.828 --   229 C    1.575   227 C    1.273   255 H    0.999
   229   6 C    3.819 --   228 C    1.575   230 C    1.267   256 H    0.999
   230   6 C    3.886 --   232 C    1.336   229 C    1.267   231 N    1.220
   231   7 N    3.250 --   227 C    1.253   230 C    1.220   257 H    0.961
   232   6 C    3.834 --   240 C    1.374   230 C    1.336   233 C    1.051
   233   6 C    3.877 --   239 C    1.418   234 C    1.410   232 C    1.051
   234   6 C    3.866 --   235 C    1.456   233 C    1.410   258 H    0.990
   235   6 C    3.904 --   234 C    1.456   236 C    1.385   259 H    0.983
   236   6 C    3.970 --   238 C    1.395   235 C    1.385   237 O    1.125
   237   8 O    2.169 --   236 C    1.125   260 H    0.964
   238   6 C    3.873 --   239 C    1.448   236 C    1.395   261 H    0.982
   239   6 C    3.869 --   238 C    1.448   233 C    1.418   262 H    0.989
   240   6 C    3.924 --   232 C    1.374   244 N    1.348   241 C    1.164
   241   6 C    3.840 --   242 C    1.689   240 C    1.164   263 H    1.000
   242   6 C    3.849 --   241 C    1.689   243 C    1.168   264 H    1.000
   243   6 C    3.943 --   244 N    1.418   207 C    1.280   242 C    1.168
   244   7 N    2.549 --   243 C    1.418   240 C    1.348
   245   1 H    1.029 --   209 C    0.999
   246   1 H    1.033 --   210 C    0.999
   247   1 H    1.084 --   212 N    0.961
   248   1 H    1.049 --   215 C    0.989
   249   1 H    1.013 --   216 C    0.982
   250   1 H    1.006 --   218 O    0.964
   251   1 H    1.023 --   219 C    0.983
   252   1 H    1.047 --   220 C    0.990
   253   1 H    1.035 --   222 C    1.000
   254   1 H    1.033 --   223 C    1.000
   255   1 H    1.029 --   228 C    0.999
   256   1 H    1.032 --   229 C    0.999
   257   1 H    1.084 --   231 N    0.961
   258   1 H    1.047 --   234 C    0.990
   259   1 H    1.023 --   235 C    0.983
   260   1 H    1.006 --   237 O    0.964
   261   1 H    1.013 --   238 C    0.982
   262   1 H    1.049 --   239 C    0.989
   263   1 H    1.035 --   241 C    1.000
   264   1 H    1.033 --   242 C    1.000
   265   6 C    3.826 --   301 C    1.280   266 C    1.277   136 C    1.231
   266   6 C    3.904 --   265 C    1.277   267 C    1.273   270 N    1.252
   267   6 C    3.828 --   268 C    1.574   266 C    1.273   303 H    0.999
   268   6 C    3.819 --   267 C    1.574   269 C    1.267   304 H    0.999
   269   6 C    3.886 --   271 C    1.334   268 C    1.267   270 N    1.221
   270   7 N    3.250 --   266 C    1.252   269 C    1.221   305 H    0.961
   271   6 C    3.834 --   279 C    1.375   269 C    1.334   272 C    1.052
   272   6 C    3.877 --   273 C    1.418   278 C    1.409   271 C    1.052
   273   6 C    3.868 --   274 C    1.448   272 C    1.418   306 H    0.989
   274   6 C    3.873 --   273 C    1.448   275 C    1.395   307 H    0.982
   275   6 C    3.969 --   274 C    1.395   277 C    1.385   276 O    1.125
   276   8 O    2.169 --   275 C    1.125   308 H    0.964
   277   6 C    3.905 --   278 C    1.457   275 C    1.385   309 H    0.983
   278   6 C    3.866 --   277 C    1.457   272 C    1.409   310 H    0.990
   279   6 C    3.924 --   271 C    1.375   282 N    1.347   280 C    1.164
   280   6 C    3.840 --   281 C    1.690   279 C    1.164   311 H    1.000
   281   6 C    3.849 --   280 C    1.690   283 C    1.168   312 H    1.000
   282   7 N    2.549 --   283 C    1.419   279 C    1.347
   283   6 C    3.943 --   282 N    1.419   284 C    1.279   281 C    1.168
   284   6 C    3.826 --   283 C    1.279   285 C    1.277   140 C    1.231
   285   6 C    3.904 --   284 C    1.277   286 C    1.272   289 N    1.253
   286   6 C    3.828 --   287 C    1.575   285 C    1.272   313 H    0.999
   287   6 C    3.819 --   286 C    1.575   288 C    1.267   314 H    0.999
   288   6 C    3.886 --   290 C    1.336   287 C    1.267   289 N    1.219
   289   7 N    3.250 --   285 C    1.253   288 C    1.219   315 H    0.961
   290   6 C    3.834 --   298 C    1.373   288 C    1.336   291 C    1.051
   291   6 C    3.877 --   297 C    1.418   292 C    1.411   290 C    1.051
   292   6 C    3.866 --   293 C    1.456   291 C    1.411   316 H    0.990
   293   6 C    3.904 --   292 C    1.456   294 C    1.385   317 H    0.983
   294   6 C    3.970 --   296 C    1.394   293 C    1.385   295 O    1.125
   295   8 O    2.170 --   294 C    1.125   318 H    0.964
   296   6 C    3.873 --   297 C    1.448   294 C    1.394   319 H    0.982
   297   6 C    3.869 --   296 C    1.448   291 C    1.418   320 H    0.989
   298   6 C    3.924 --   290 C    1.373   302 N    1.349   299 C    1.164
   299   6 C    3.840 --   300 C    1.689   298 C    1.164   321 H    1.000
   300   6 C    3.849 --   299 C    1.689   301 C    1.168   322 H    1.000
   301   6 C    3.943 --   302 N    1.418   265 C    1.280   300 C    1.168
   302   7 N    2.549 --   301 C    1.418   298 C    1.349
   303   1 H    1.029 --   267 C    0.999
   304   1 H    1.032 --   268 C    0.999
   305   1 H    1.084 --   270 N    0.961
   306   1 H    1.049 --   273 C    0.989
   307   1 H    1.013 --   274 C    0.982
   308   1 H    1.006 --   276 O    0.964
   309   1 H    1.023 --   277 C    0.983
   310   1 H    1.047 --   278 C    0.990
   311   1 H    1.035 --   280 C    1.000
   312   1 H    1.033 --   281 C    1.000
   313   1 H    1.029 --   286 C    0.999
   314   1 H    1.033 --   287 C    0.999
   315   1 H    1.084 --   289 N    0.961
   316   1 H    1.047 --   292 C    0.990
   317   1 H    1.023 --   293 C    0.983
   318   1 H    1.006 --   295 O    0.964
   319   1 H    1.013 --   296 C    0.982
   320   1 H    1.049 --   297 C    0.989
   321   1 H    1.035 --   299 C    1.000
   322   1 H    1.033 --   300 C    1.000
   323   6 C    3.827 --   359 C    1.280   324 C    1.278   142 C    1.231
   324   6 C    3.903 --   323 C    1.278   325 C    1.273   328 N    1.252
   325   6 C    3.828 --   326 C    1.575   324 C    1.273   361 H    0.998
   326   6 C    3.818 --   325 C    1.575   327 C    1.266   362 H    0.999
   327   6 C    3.886 --   329 C    1.334   326 C    1.266   328 N    1.221
   328   7 N    3.252 --   324 C    1.252   327 C    1.221   363 H    0.961
   329   6 C    3.834 --   337 C    1.374   327 C    1.334   330 C    1.051
   330   6 C    3.877 --   331 C    1.418   336 C    1.410   329 C    1.051
   331   6 C    3.868 --   332 C    1.447   330 C    1.418   364 H    0.989
   332   6 C    3.873 --   331 C    1.447   333 C    1.395   365 H    0.982
   333   6 C    3.969 --   332 C    1.395   335 C    1.385   334 O    1.125
   334   8 O    2.170 --   333 C    1.125   366 H    0.964
   335   6 C    3.905 --   336 C    1.457   333 C    1.385   367 H    0.983
   336   6 C    3.866 --   335 C    1.457   330 C    1.410   368 H    0.990
   337   6 C    3.925 --   329 C    1.374   340 N    1.350   338 C    1.162
   338   6 C    3.841 --   339 C    1.692   337 C    1.162   369 H    1.000
   339   6 C    3.849 --   338 C    1.692   341 C    1.166   370 H    1.000
   340   7 N    2.548 --   341 C    1.415   337 C    1.350
   341   6 C    3.945 --   340 N    1.415   342 C    1.286   339 C    1.166
   342   6 C    3.827 --   341 C    1.286   343 C    1.283   146 C    1.217
   343   6 C    3.906 --   342 C    1.283   344 C    1.269   347 N    1.251
   344   6 C    3.827 --   345 C    1.578   343 C    1.269   371 H    0.999
   345   6 C    3.820 --   344 C    1.578   346 C    1.264   372 H    0.999
   346   6 C    3.886 --   348 C    1.339   345 C    1.264   347 N    1.219
   347   7 N    3.249 --   343 C    1.251   346 C    1.219   373 H    0.961
   348   6 C    3.836 --   356 C    1.372   346 C    1.339   349 C    1.050
   349   6 C    3.877 --   355 C    1.418   350 C    1.411   348 C    1.050
   350   6 C    3.866 --   351 C    1.456   349 C    1.411   374 H    0.990
   351   6 C    3.904 --   350 C    1.456   352 C    1.385   375 H    0.983
   352   6 C    3.970 --   354 C    1.394   351 C    1.385   353 O    1.125
   353   8 O    2.170 --   352 C    1.125   376 H    0.964
   354   6 C    3.873 --   355 C    1.448   352 C    1.394   377 H    0.982
   355   6 C    3.869 --   354 C    1.448   349 C    1.418   378 H    0.989
   356   6 C    3.923 --   348 C    1.372   360 N    1.350   357 C    1.164
   357   6 C    3.840 --   358 C    1.689   356 C    1.164   379 H    1.000
   358   6 C    3.849 --   357 C    1.689   359 C    1.168   380 H    1.000
   359   6 C    3.942 --   360 N    1.417   323 C    1.280   358 C    1.168
   360   7 N    2.551 --   359 C    1.417   356 C    1.350
   361   1 H    1.029 --   325 C    0.998
   362   1 H    1.032 --   326 C    0.999
   363   1 H    1.084 --   328 N    0.961
   364   1 H    1.049 --   331 C    0.989
   365   1 H    1.013 --   332 C    0.982
   366   1 H    1.006 --   334 O    0.964
   367   1 H    1.023 --   335 C    0.983
   368   1 H    1.047 --   336 C    0.990
   369   1 H    1.036 --   338 C    1.000
   370   1 H    1.033 --   339 C    1.000
   371   1 H    1.029 --   344 C    0.999
   372   1 H    1.033 --   345 C    0.999
   373   1 H    1.084 --   347 N    0.961
   374   1 H    1.047 --   350 C    0.990
   375   1 H    1.023 --   351 C    0.983
   376   1 H    1.005 --   353 O    0.964
   377   1 H    1.013 --   354 C    0.982
   378   1 H    1.049 --   355 C    0.989
   379   1 H    1.035 --   357 C    1.000
   380   1 H    1.033 --   358 C    1.000
 ---------------------------------------------------------------------------

Topologies differ in total number of bonds
Writing topology from bond orders to xtbtopo.mol

 dipole moment from electron density (au)
     X       Y       Z   
-207.3465  -1.1792  -1.7196  total (Debye):  527.049


           -------------------------------------------------
          | TOTAL ENERGY             -751.642181248890 Eh   |
          | GRADIENT NORM               0.111425106055 Eh/α |
          | HOMO-LUMO GAP               0.078191374216 eV   |
           -------------------------------------------------
########################################################################
[WARNING] Runtime exception occurred
-1- restart_readRestart: Dimension missmatch in restart file.
########################################################################

------------------------------------------------------------------------
 * finished run on 2022/07/28 at 21:07:15.662     
------------------------------------------------------------------------
 total:
 * wall-time:     0 d,  0 h,  1 min, 13.532 sec
 *  cpu-time:     0 d,  0 h,  1 min, 12.554 sec
 * ratio c/w:     0.987 speedup
 SCF:
 * wall-time:     0 d,  0 h,  1 min, 11.838 sec
 *  cpu-time:     0 d,  0 h,  1 min, 11.395 sec
 * ratio c/w:     0.994 speedup

