175
 energy: -297.846288308411 gnorm: 1.133561697141 xtb: 6.5.1 (b24c23e)
Co          27.93709400000000        0.06377600000000        0.01377000000000
C           24.60053100000000       -0.09229400000000        0.00335800000000
C           25.26464000000000       -1.24449800000000       -0.12447100000000
C           24.61496199999999       -2.54123900000000       -0.27486100000000
C           25.55679100000000       -3.46495200000000       -0.32225300000000
C           26.86162000000000       -2.80053100000000       -0.20278500000000
N           26.68333300000000       -1.38895200000000       -0.08234900000000
C           28.05182300000000       -3.43225800000000       -0.15760500000000
C           29.34545600000000       -2.71622000000000       -0.00713700000000
C           30.63599900000000       -3.39101800000000        0.17777400000000
C           31.57071500000000       -2.46454200000000        0.23556800000000
N           29.48607400000000       -1.42716500000000       -0.06710500000000
C           30.88557900000000       -1.18712900000000        0.08016700000000
C           31.48015300000000        0.01529900000000        0.00947800000000
C           30.71913900000000        1.27288300000000       -0.16943200000000
C           31.25610700000000        2.41795400000000       -0.57163600000000
C           30.21237199999999        3.42270400000000       -0.52957800000000
C           29.10635400000000        2.82625900000000       -0.10028500000000
C           27.82124600000000        3.52827300000000        0.15091800000000
C           27.84036600000000        5.00307400000000        0.30887900000000
C           27.18110200000000        5.82902600000000       -0.61736900000000
C           27.21980500000000        7.21913900000000       -0.47227200000000
C           27.92136000000000        7.79309800000000        0.59170400000000
C           28.58740300000000        6.97786500000000        1.51120200000000
C           28.55060900000000        5.58721200000000        1.37027900000000
C           26.65619800000000        2.85827000000000        0.23962100000000
C           25.34383900000000        3.43920700000000        0.51840400000000
C           24.48224600000000        2.44213400000000        0.46592100000000
C           25.23522800000000        1.22518600000000        0.16763700000000
N           26.50337900000000        1.45529400000000        0.03420400000000
N           29.33611300000000        1.43763300000000        0.14673900000000
C           28.09060400000000       -4.90716700000000       -0.24951300000000
C           27.98961500000000       -5.53931900000000       -1.49840800000000
C           28.02770800000000       -6.93456700000000       -1.58300100000000
C           28.16762400000000       -7.70310000000000       -0.42340100000000
C           28.26947200000000       -7.07751800000000        0.82285000000000
C           28.23109100000000       -5.68256700000000        0.91170200000000
H           23.51712900000000       -0.12089400000000        0.00036900000000
H           23.55063500000000       -2.73095600000000       -0.32938400000000
H           25.37135700000000       -4.52681800000000       -0.42003800000000
H           30.81341800000000       -4.45586900000000        0.24987900000000
H           32.62938500000000       -2.64902600000000        0.36042000000000
H           32.28544700000000        2.58563600000000       -0.85879700000000
H           30.32522200000000        4.46934700000000       -0.78099700000000
H           26.64224300000000        5.39571400000000       -1.45105000000000
H           26.70853300000000        7.85157800000000       -1.18642500000000
H           27.95126000000000        8.86936700000000        0.70199800000000
H           29.13320400000000        7.42362500000000        2.33267400000000
H           29.07169800000000        4.96531800000000        2.08789800000000
H           25.09899400000000        4.47141600000000        0.73134200000000
H           23.41497000000000        2.52360300000000        0.62479500000000
H           27.88154100000000       -4.95176900000000       -2.40186800000000
H           27.94914400000000       -7.42003000000000       -2.54712300000000
H           28.19726199999999       -8.78291900000000       -0.49053900000000
H           28.37806900000000       -7.67352700000000        1.71970700000000
H           28.31072800000000       -5.20628200000000        1.88121200000000
Co          56.68613100000000       -0.03331800000000        0.01166100000000
C           60.02269399999999        0.12305700000000        0.00803500000000
C           59.35858400000000        1.27972500000000       -0.06964200000000
C           60.00826300000000        2.58177300000000       -0.16358300000000
C           59.06643399999999        3.50667200000000       -0.17082100000000
C           57.76160500000000        2.83769100000000       -0.08031600000000
N           57.93989100000000        1.42221400000000       -0.02128700000000
C           56.57140200000000        3.46686000000000       -0.00774800000000
C           55.27776900000000        2.74496400000000        0.11148600000000
C           53.98722500000000        3.41109600000000        0.32552400000000
C           53.05251000000000        2.48298400000000        0.34303400000000
N           55.13715100000000        1.45972900000000       -0.00439900000000
C           53.73764500000000        1.21352400000000        0.13231200000000
C           53.14307200000000        0.01529900000000        0.00947800000000
C           53.90408600000000       -1.23332900000000       -0.22387000000000
C           53.36711800000000       -2.35985600000000       -0.67541600000000
C           54.41085300000000       -3.36548500000000       -0.67702600000000
C           55.51687100000000       -2.78824300000000       -0.22223800000000
C           56.80197900000000       -3.50050300000000       -0.00175500000000
C           56.78285899999999       -4.98077100000000        0.09201800000000
C           57.44212199999999       -5.76572500000000       -0.86922100000000
C           57.40341999999999       -7.16082700000000       -0.78462100000000
C           56.70186500000000       -7.78044500000000        0.25342800000000
C           56.03582200000000       -7.00590700000000        1.20745800000000
C           56.07261599999999       -5.61044600000000        1.12705200000000
C           57.96702700000000       -2.83498300000000        0.11595700000000
C           59.27938600000000       -3.42747700000000        0.36925200000000
C           60.14097900000000       -2.42906600000000        0.36011200000000
C           59.38799700000000       -1.20031400000000        0.11495200000000
N           58.11984600000000       -1.42441000000000       -0.02834600000000
N           55.28711200000000       -1.41165300000000        0.08484900000000
C           56.53261999999999        4.94436900000000       -0.03552600000000
C           56.63360899999999        5.63015400000000       -1.25579400000000
C           56.59551699999999        7.02775900000000       -1.27972200000000
C           56.45560100000000        7.74521600000000       -0.08784500000000
C           56.35375299999999        7.06610900000000        1.13006600000000
C           56.39213400000000        5.66861600000000        1.15826300000000
H           61.10609500000000        0.15176000000000        0.00629100000000
H           61.07258900000000        2.77367900000000       -0.20981700000000
H           59.25186700000000        4.57178300000000       -0.22240500000000
H           53.80980600000000        4.47181200000000        0.44379900000000
H           51.99384000000000        2.66187300000000        0.47577900000000
H           52.33777799999999       -2.51491100000000       -0.96958700000000
H           54.29800300000000       -4.40022400000000       -0.97365400000000
H           57.98098199999999       -5.29662200000000       -1.68330000000000
H           57.91469200000000       -7.76166000000000       -1.52556300000000
H           56.67196500000000       -8.86048800000000        0.31688500000000
H           55.49002000000000       -7.48691700000000        2.00879900000000
H           55.55152600000000       -5.02030000000000        1.87099800000000
H           59.52423100000000       -4.46795900000000        0.53716800000000
H           61.20825500000000       -2.51735700000000        0.51530000000000
H           56.74168400000000        5.08238800000000       -2.18391400000000
H           56.67408099999999        7.55462800000000       -2.22185600000000
H           56.42596300000000        8.82693100000000       -0.10803200000000
H           56.24515499999999        7.62261300000000        2.05195700000000
H           56.31249700000000        5.15068200000000        2.10617700000000
C           34.93171399999999        0.02803100000000        0.01200300000000
C           33.67944400000000        0.00885000000000        0.00765500000000
C           36.24538299999999        0.02726500000000        0.01393600000000
C           37.74851600000000        0.00885000000000        0.00765500000000
C           48.21304899999999        0.02803100000000        0.01200300000000
C           46.96077800000000        0.00885000000000        0.00765500000000
C           49.52671699999999        0.02726500000000        0.01393600000000
C           51.02985100000000        0.00885000000000        0.00765500000000
Co          42.24108200000000        0.06451600000000        0.02114200000000
C           38.86687500000000       -0.03244200000000       -0.02041500000000
C           39.52569500000000       -1.20551400000000       -0.02522300000000
C           38.88024800000000       -2.52020300000000       -0.01330200000000
C           39.81999400000000       -3.44288600000000       -0.02158100000000
C           41.12365699999999       -2.77296800000000       -0.04297000000000
N           40.94772199999999       -1.35444700000000       -0.04205100000000
C           42.31018800000000       -3.41221600000000       -0.06141500000000
C           43.61931100000000       -2.71612500000000       -0.08709300000000
C           44.90427200000000       -3.41971700000000       -0.18512200000000
C           45.85891900000000       -2.51552200000000       -0.17941800000000
N           43.78022800000000       -1.42937700000000       -0.02312800000000
C           45.19278000000000       -1.22215300000000       -0.07562800000000
C           45.81484499999999       -0.03244200000000       -0.02041500000000
C           45.09051700000000        1.25591400000000        0.09371800000000
C           45.69126299999999        2.42833000000000        0.24813000000000
C           44.66069500000000        3.44115800000000        0.28772400000000
C           43.49128999999999        2.82757200000000        0.14795200000000
C           42.18448000000000        3.53697500000000        0.11188900000000
C           42.19364200000000        5.01914400000000        0.13453700000000
C           41.82600900000000        5.71164500000000        1.29959300000000
C           41.85005800000000        7.10945100000000        1.32305000000000
C           42.24677400000000        7.82155700000000        0.18694500000000
C           42.61717600000000        7.13719600000000       -0.97461500000000
C           42.59297599999999        5.73908800000000       -1.00260300000000
C           41.00237900000000        2.89191700000000        0.05929100000000
C           39.69372100000000        3.53562500000000       -0.00600800000000
C           38.80803300000000        2.56425700000000       -0.04724200000000
C           39.53633000000000        1.29139000000000       -0.01025400000000
N           40.82109499999999        1.47442600000000        0.05069500000000
N           43.67028799999999        1.41461300000000        0.02351400000000
C           42.33196900000000       -4.89086100000000       -0.06752200000000
C           42.19130500000000       -5.59438200000000       -1.27391600000000
C           42.22896500000000       -6.99207300000000       -1.27824400000000
C           42.40812200000000       -7.69173300000000       -0.08112700000000
C           42.54852900000000       -6.99450600000000        1.12286900000000
C           42.51309200000000       -5.59690400000000        1.13115100000000
H           37.81997000000000       -2.73423600000000        0.00304700000000
H           39.63368600000000       -4.50920700000000       -0.01080500000000
H           45.06077700000000       -4.48770500000000       -0.25545500000000
H           46.91806100000000       -2.72568700000000       -0.24220800000000
H           46.75402200000000        2.61224100000000        0.32576900000000
H           44.82645000000000        4.50318800000000        0.40192200000000
H           41.52567800000000        5.16886300000000        2.18687100000000
H           41.56443800000000        7.64123500000000        2.22226000000000
H           42.26725800000000        8.90321200000000        0.20846900000000
H           42.92660700000000        7.68955600000000       -1.85249000000000
H           42.88665500000000        5.21768800000000       -1.90544600000000
H           39.46647400000000        4.59418300000000       -0.02400900000000
H           37.73789599999999        2.70959300000000       -0.10194100000000
H           42.05604099999999       -5.06031600000000       -2.20611000000000
H           42.12177700000000       -7.53311400000000       -2.20945200000000
H           42.43891300000000       -8.77320500000000       -0.08600100000000
H           42.68726899999999       -7.53797800000000        2.04877900000000
H           42.62652000000000       -5.06431900000000        2.06710200000000
175
 energy: -298.188791306493 gnorm: 0.486666945480 xtb: 6.5.1 (b24c23e)
Co          27.94666063443080        0.05508016520065        0.01352612703114
C           24.60137091421678       -0.07677240779597        0.00560268448885
C           25.27188759259828       -1.24399279329234       -0.12445052040404
C           24.61534935867389       -2.53435622571807       -0.27444262534561
C           25.56663261554711       -3.46551309227754       -0.32204119740941
C           26.86218373663549       -2.79065349689290       -0.20289744359652
N           26.67181981081061       -1.39561752837151       -0.08358760736885
C           28.06675072209642       -3.42720569912980       -0.15599795052534
C           29.33828434620619       -2.72695680541984       -0.00789146244727
C           30.62393875037063       -3.39913956062995        0.17562856349019
C           31.57032325902384       -2.45861671269534        0.23542615693594
N           29.49327067845627       -1.41623046085377       -0.06193109315571
C           30.89716613467616       -1.18208765201516        0.08026462566280
C           31.49792326614501        0.02804094456987        0.00578425374431
C           30.72111949934612        1.25722667887810       -0.16042218597701
C           31.25837243697063        2.43744273469663       -0.57432514952084
C           30.23127303956506        3.42365578570450       -0.53150616526864
C           29.09609223454878        2.81342925242535       -0.09177162760872
C           27.83378644558581        3.52067476509672        0.15001401699246
C           27.84650127958523        5.00224545597125        0.30589212199200
C           27.18258043122743        5.82973218959609       -0.61321648969426
C           27.22175744199377        7.21588768966297       -0.46900583288917
C           27.92125925074993        7.78930761076931        0.59131369304048
C           28.58472735736338        6.97562957013678        1.50794283297558
C           28.55006952847197        5.58946025223454        1.36681346051300
C           26.65715742028331        2.85443483346686        0.23978974001178
C           25.35182968240236        3.43784270292774        0.51703981119425
C           24.47512100130215        2.43083286721072        0.46386985332501
C           25.22068272037360        1.21520311045118        0.16656983920942
N           26.51031924437851        1.45702735150274        0.04059359210961
N           29.33560765756926        1.43384865712952        0.13682391314674
C           28.09438190754513       -4.90976304769154       -0.24931089988599
C           27.98968561133948       -5.54205275960996       -1.49475246677709
C           28.02779075731587       -6.93273622943659       -1.57887390700058
C           28.16754043451494       -7.69941075136465       -0.42317835093043
C           28.26891333897744       -7.07543838484271        0.81911002735442
C           28.23181316703626       -5.68528833796804        0.90815009040901
H           23.51769046636838       -0.11639838024055        0.00139775588755
H           23.55135483758128       -2.72413993526961       -0.32892247726808
H           25.38007560386257       -4.52670306054168       -0.41989112916395
H           30.80624497076004       -4.45923438353859        0.24924299285572
H           32.62856380394118       -2.64142579429766        0.36004281780012
H           32.28615461913841        2.59038696915520       -0.85979935796859
H           30.32931260536699        4.46887281823741       -0.78228410556214
H           26.64360396506484        5.39526024770613       -1.44934797713286
H           26.70932659837190        7.85012081220727       -1.18545797809587
H           27.95126489860595        8.86810719967639        0.70180724465836
H           29.13229188676963        7.42256272379291        2.33153026809563
H           29.07064948426654        4.96546613501545        2.08625301853954
H           25.10701758517903        4.47032340691805        0.73005610775594
H           23.41237192591066        2.51760865818463        0.62398761756444
H           27.88192232814307       -4.95191359853171       -2.39961955136212
H           27.94925132059631       -7.41911341773074       -2.54577860956595
H           28.19725078208719       -8.78170031303019       -0.49048090455736
H           28.37781569990351       -7.67258373300855        1.71853996778826
H           28.31052946088314       -5.20632334992084        1.87913855898903
Co          56.67661470484826       -0.02463129517631        0.01176594644998
C           60.02183759804768        0.10745366546334        0.00960211604710
C           59.35133518473430        1.27924171387777       -0.06966336174562
C           60.00789467869965        2.57489871966284       -0.16346504456584
C           59.05659974188222        3.50722319706284       -0.17057451494224
C           57.76107314389608        2.82770864524143       -0.08087978438220
N           57.95148664233828        1.42907147974307       -0.02223124459279
C           56.55625116563280        3.46162965512875       -0.00637193963808
C           55.28492752009686        2.75558799457182        0.11117651891873
C           53.99929997092395        3.41931992436333        0.32374192048443
C           53.05278090807896        2.47726704535871        0.34265391041275
N           55.12916693490602        1.44798386850782        0.00042970485270
C           53.72501605057460        1.20854699511432        0.13217389124930
C           53.11972003375778        0.00255620446203        0.00526113214032
C           53.90109377664353       -1.21810382753743       -0.21406933287136
C           53.36471621351342       -2.37943174589759       -0.67900670351468
C           54.39185041644259       -3.36630206842563       -0.67898818623555
C           55.52704956030227       -2.77560338459939       -0.21314961315116
C           56.78934889433889       -3.49280213933196       -0.00232136862973
C           56.77670738567517       -4.97979289242802        0.08906244959773
C           57.44064472778908       -5.76660273464581       -0.86510127652953
C           57.40146703180161       -7.15771747132841       -0.78121560929902
C           56.70196585988255       -7.77663861374007        0.25320332317550
C           56.03850005755148       -7.00352988350437        1.20429885608561
C           56.07315344576939       -5.61253652060548        1.12349105933285
C           57.96606034450701       -2.83111538998422        0.11630110667681
C           59.27138554537171       -3.42604862918453        0.36794256561326
C           60.14810326835656       -2.41768271574990        0.35854586359829
C           59.40253669879358       -1.19029343321238        0.11431047491786
N           58.11287546165859       -1.42641326106939       -0.02196600109367
N           55.28700255067906       -1.40717659981425        0.07498572415688
C           56.52881018289747        4.94692943521362       -0.03520302563813
C           56.63354045614791        5.63271495414010       -1.25201839351927
C           56.59543616009495        7.02574634553444       -1.27567482926250
C           56.45568572615196        7.74151723764231       -0.08778198584601
C           56.35431422384548        7.06419324713286        1.12623826589070
C           56.39141471046055        5.67148325543877        1.15483487392736
H           61.10552736197210        0.14722298538847        0.00712675351915
H           61.07187823947181        2.76685606608226       -0.20965104622612
H           59.24314191346391        4.57166199836343       -0.22226139935700
H           53.81699332496493        4.47519621347180        0.44330473044349
H           51.99455542717084        2.65430166188721        0.47506664453741
H           52.33695852722026       -2.51968056164771       -0.97080298281638
H           54.29390872773967       -4.39966457306844       -0.97491473775864
H           57.97962039099516       -5.29624129072715       -1.68158174122958
H           57.91389740931711       -7.76024338596937       -1.52453317071345
H           56.67195975552955       -8.85921868007098        0.31674854399043
H           55.49093293346630       -7.48580296800802        2.00770015133101
H           55.55257370903024       -5.02037635947970        1.86934874762924
H           59.51620224620528       -4.46680737573936        0.53592830482306
H           61.21085136445753       -2.51133235510548        0.51475239429340
H           56.74130040042214        5.08243286533593       -2.18166192792319
H           56.67397231688712        7.55364911304225       -2.22055016355621
H           56.42597357936295        8.82570761929103       -0.10802704941844
H           56.24540690474720        7.62171838579198        2.05074805772480
H           56.31269354150014        5.15081212749607        2.10410883164241
C           34.91742687681594        0.02808988415867        0.01228715454172
C           33.65192116769584        0.01175161601314        0.00736684960824
C           36.26106139756763        0.02611867335101        0.01345478737277
C           37.59653633213274        0.01627587246576        0.00946059476681
C           48.28545028167203        0.03041106096310        0.01199331745236
C           47.04885683725865        0.02120962983698        0.00789103225318
C           49.61896468114841        0.02551851085541        0.01407233069903
C           50.99484163640496        0.00822388035255        0.00745667123408
Co          42.24963663242157        0.05690173412426        0.01953029459113
C           38.89506624816337       -0.01870332544117       -0.02092545945270
C           39.55519395280972       -1.22286490270692       -0.02551146592110
C           38.88261246415251       -2.51036683226778       -0.01341438895816
C           39.83246430087351       -3.44586730881137       -0.02164247067551
C           41.12399540478682       -2.76793914891477       -0.04262031381204
N           40.94043152600305       -1.36361541674181       -0.04060019661603
C           42.32379301064116       -3.41064164453596       -0.06205002053101
C           43.60920819968440       -2.73469155871674       -0.08705136452542
C           44.88808079893280       -3.43092559635461       -0.18473146048996
C           45.85318331084647       -2.50640010230122       -0.17891145697822
N           43.77676070207499       -1.42791367383678       -0.02555490735548
C           45.16193311916011       -1.23799373114634       -0.07737196371990
C           45.75699597582165       -0.02063331435475       -0.01810061296836
C           45.05708761419290        1.25366094812766        0.09189163394923
C           45.68847489172087        2.44709076231068        0.24941506843377
C           44.67722111307843        3.44458326770304        0.28805344406967
C           43.47599388382479        2.81805522369837        0.14525576542469
C           42.19765928497756        3.52979170142877        0.11230553956858
C           42.19968521645156        5.01923789723335        0.13564814412672
C           41.82665287886195        5.71327077153638        1.29561375728778
C           41.85119151283001        7.10694678115702        1.31893285834765
C           42.24653673279882        7.81767233272913        0.18685792453875
C           42.61562823405895        7.13471252600120       -0.97084176114665
C           42.59334871316130        5.74111920394065       -0.99879911664940
C           41.00462334105666        2.89105650863074        0.05966406990171
C           39.70357287626626        3.53568735632291       -0.00557069402555
C           38.80220850616757        2.55192628950446       -0.04739085523879
C           39.53932220041213        1.29612697696343       -0.01129239062564
N           40.83209376285643        1.48154754555142        0.04939735429559
N           43.66095549221970        1.41997651248790        0.02643983488528
C           42.33554027405328       -4.89451533707585       -0.06802120134658
C           42.19159725657946       -5.59722763812576       -1.27049751884272
C           42.22930007111500       -6.99017584557989       -1.27428130951499
C           42.40794552232183       -7.68798713834907       -0.08103954795306
C           42.54784583295521       -6.99269221315587        1.11899121117807
C           42.51331165256862       -5.59980787815610        1.12778993182609
H           37.82073167793475       -2.72339091637110        0.00291281118173
H           39.64223600107616       -4.50969101241276       -0.01109751477954
H           45.05371364639836       -4.49220948227697       -0.25523303389147
H           46.91520266100498       -2.71509787706284       -0.24145757731945
H           46.75293646925659        2.61415828606345        0.32606473436714
H           44.83066757996126        4.50450932252927        0.40238899909212
H           41.52632853293287        5.16862642630610        2.18490029942618
H           41.56499643898510        7.63978851521972        2.22067975690699
H           42.26728141213739        8.90196376905471        0.20833818236864
H           42.92595419155752        7.68837804488342       -1.85120639417276
H           42.88592715354875        5.21774295308184       -1.90352245261154
H           39.47461227437024        4.59295006764144       -0.02355009544563
H           37.73522957459506        2.70076163450079       -0.10199528206023
H           42.05634359362808       -5.06033368353338       -2.20402698204813
H           42.12188078284970       -7.53211198626371       -2.20819007844228
H           42.43885212828203       -8.77207066717026       -0.08601194655446
H           42.68701260157692       -7.53694115787813        2.04748524085317
H           42.62628395615572       -5.06440423735514        2.06510012403847
175
 energy: -298.316315704042 gnorm: 0.233537229825 xtb: 6.5.1 (b24c23e)
Co          27.96476678700195        0.04248372559281        0.01452790402446
C           24.60462382475761       -0.05849951763622        0.00841247834171
C           25.28101017875098       -1.24207582423693       -0.12506307815284
C           24.62033882528839       -2.52446946015245       -0.27374598626538
C           25.58156634369022       -3.46206616930828       -0.32159828644866
C           26.86506575258282       -2.77803790697696       -0.20355255741489
N           26.65808139364261       -1.40400290068289       -0.08512140019674
C           28.08685650726789       -3.41667243001086       -0.15400618312646
C           29.33255291844830       -2.73331191080831       -0.00810073972166
C           30.60949432807016       -3.40270952247515        0.17165648946946
C           31.56595887433197       -2.45205326729632        0.23403490658995
N           29.50796849026648       -1.39805188439644       -0.05187358661571
C           30.91535507656695       -1.17431946854505        0.08169945374751
C           31.53691330913654        0.04598788921318       -0.00052431851047
C           30.73496261266418        1.24129661510313       -0.15092128361862
C           31.26111074798284        2.46114352264510       -0.57228948675200
C           30.25575509489148        3.41946062538997       -0.52826038626403
C           29.09132176970844        2.79461040618668       -0.08270070986899
C           27.85576738579534        3.50530267412638        0.14832713976322
C           27.85908790713290        4.99609760547948        0.29886237263318
C           27.18578386895609        5.82698202398969       -0.60875202806556
C           27.22336767659992        7.21022587252901       -0.46497760563400
C           27.92111764322498        7.78489441512129        0.59094025160270
C           28.58169258847602        6.97200572481344        1.50449307279742
C           28.55150589142772        5.58952213258899        1.36119556922561
C           26.66069600942979        2.84301565676987        0.24235958691202
C           25.36327581047886        3.42883927030088        0.51383326420751
C           24.47126744996959        2.41708036464503        0.45911405990548
C           25.20580661260509        1.20325535929378        0.16609551551121
N           26.52014648963143        1.45621943248980        0.05289500490307
N           29.34453436405423        1.42588254673215        0.11657951740075