      -----------------------------------------------------------      
     |                   =====================                   |     
     |                           x T B                           |     
     |                   =====================                   |     
     |                         S. Grimme                         |     
     |          Mulliken Center for Theoretical Chemistry        |     
     |                    University of Bonn                     |     
      -----------------------------------------------------------      

   * xtb version 6.5.1 (b24c23e) compiled by 'conda@728c89f4b128' on 2022-07-12

   xtb is free software: you can redistribute it and/or modify it under
   the terms of the GNU Lesser General Public License as published by
   the Free Software Foundation, either version 3 of the License, or
   (at your option) any later version.
   
   xtb is distributed in the hope that it will be useful,
   but WITHOUT ANY WARRANTY; without even the implied warranty of
   MERCHANTABILITY or FITNESS FOR A PARTICULAR PURPOSE.  See the
   GNU Lesser General Public License for more details.
   
   Cite this work as:
   * C. Bannwarth, E. Caldeweyher, S. Ehlert, A. Hansen, P. Pracht,
     J. Seibert, S. Spicher, S. Grimme, WIREs Comput. Mol. Sci., 2020, 11,
     e01493. DOI: 10.1002/wcms.1493
   
   for GFN2-xTB:
   * C. Bannwarth, S. Ehlert and S. Grimme., J. Chem. Theory Comput., 2019,
     15, 1652-1671. DOI: 10.1021/acs.jctc.8b01176
   for GFN1-xTB:
   * S. Grimme, C. Bannwarth, P. Shushkov, J. Chem. Theory Comput., 2017,
     13, 1989-2009. DOI: 10.1021/acs.jctc.7b00118
   for GFN0-xTB:
   * P. Pracht, E. Caldeweyher, S. Ehlert, S. Grimme, ChemRxiv, 2019, preprint.
     DOI: 10.26434/chemrxiv.8326202.v1
   for GFN-FF:
   * S. Spicher and S. Grimme, Angew. Chem. Int. Ed., 2020, 59, 15665-15673.
     DOI: 10.1002/anie.202004239
   
   for ALPB and GBSA implicit solvation:
   * S. Ehlert, M. Stahn, S. Spicher, S. Grimme, J. Chem. Theory Comput.,
     2021, 17, 4250-4261. DOI: 10.1021/acs.jctc.1c00471
   
   for DFT-D4:
   * E. Caldeweyher, C. Bannwarth and S. Grimme, J. Chem. Phys., 2017,
     147, 034112. DOI: 10.1063/1.4993215
   * E. Caldeweyher, S. Ehlert, A. Hansen, H. Neugebauer, S. Spicher,
     C. Bannwarth and S. Grimme, J. Chem. Phys., 2019, 150, 154122.
     DOI: 10.1063/1.5090222
   * E. Caldeweyher, J.-M. Mewes, S. Ehlert and S. Grimme, Phys. Chem. Chem. Phys.
     2020, 22, 8499-8512. DOI: 10.1039/D0CP00502A
   
   for sTDA-xTB:
   * S. Grimme and C. Bannwarth, J. Chem. Phys., 2016, 145, 054103.
     DOI: 10.1063/1.4959605
   
   in the mass-spec context:
   * V. Asgeirsson, C. Bauer and S. Grimme, Chem. Sci., 2017, 8, 4879.
     DOI: 10.1039/c7sc00601b
   * J. Koopman and S. Grimme, ACS Omega 2019, 4, 12, 15120-15133.
     DOI: 10.1021/acsomega.9b02011
   
   for metadynamics refer to:
   * S. Grimme, J. Chem. Theory Comput., 2019, 155, 2847-2862
     DOI: 10.1021/acs.jctc.9b00143
   
   for SPH calculations refer to:
   * S. Spicher and S. Grimme, J. Chem. Theory Comput., 2021, 17, 1701-1714
     DOI: 10.1021/acs.jctc.0c01306
   
   with help from (in alphabetical order)
   P. Atkinson, C. Bannwarth, F. Bohle, G. Brandenburg, E. Caldeweyher
   M. Checinski, S. Dohm, S. Ehlert, S. Ehrlich, I. Gerasimov, C. Hölzer
   A. Katbashev, J. Koopman, C. Lavigne, S. Lehtola, F. März, M. Müller,
   F. Musil, H. Neugebauer, J. Pisarek, C. Plett, P. Pracht, F. Pultar,
   J. Seibert, P. Shushkov, S. Spicher, M. Stahn, M. Steiner, T. Strunk,
   J. Stückrath, T. Rose, and J. Unsleber
   
 * started run on 2022/07/27 at 19:33:09.318     

           -------------------------------------------------
          |                Calculation Setup                |
           -------------------------------------------------

          program call               : xtb xtbopt.xyz --gfn 1 --vipea
          hostname                   : cx3-6-25.cx3.hpc.ic.ac.uk
          coordinate file            : xtbopt.xyz
          omp threads                :                     1

   ID    Z sym.   atoms
    1    6 C      1-5, 7-12, 14-18, 20-25, 27-32, 34-39, 60-64, 66-71, 73-77,
                  79-84, 86-91, 93-98, 119-124
    2    7 N      6, 13, 19, 26, 33, 40, 65, 72, 78, 85, 92, 99
    3    1 H      41-59, 100-118

           -------------------------------------------------
          |                 I P E A - x T B                 |
           -------------------------------------------------

        Reference                      10.1039/c7sc00601b
      * Hamiltonian:
        H0-scaling (s, p, d)           2.150000    2.300000    2.000000
        zeta-weighting                 0.000000
      * Dispersion:
        s8                             2.400000
        a1                             0.630000
        a2                             5.000000
        s9                             0.000000
      * Repulsion:
        kExp                           1.500000
        rExp                           1.000000
      * Coulomb:
        alpha                          1.000000
        third order                    atomic
        anisotropic                    false
      * Halogen bond correction:
        rad-scale                      1.300000
        damping                        0.440000


          ...................................................
          :                      SETUP                      :
          :.................................................:
          :  # basis functions                 506          :
          :  # atomic orbitals                 506          :
          :  # shells                          334          :
          :  # electrons                       394          :
          :  # halogen bonds                     0          :
          :  max. iterations                   250          :
          :  Hamiltonian                  GFN1-xTB          :
          :  restarted?                      false          :
          :  GBSA solvation                  false          :
          :  PC potential                    false          :
          :  electronic temp.          300.0000000     K    :
          :  accuracy                    1.0000000          :
          :  -> integral cutoff          0.2500000E+02      :
          :  -> integral neglect         0.1000000E-07      :
          :  -> SCF convergence          0.1000000E-05 Eh   :
          :  -> wf. convergence          0.2000000E-04 e    :
          :  Broyden damping             0.4000000          :
          ...................................................

 iter      E             dE          RMSdq      gap      omega  full diag
   1   -249.2226569 -0.249223E+03  0.103E+01    1.01       0.0  T
   2   -249.1447957  0.778611E-01  0.645E+00    1.42       1.0  T
   3   -243.8244735  0.532032E+01  0.573E+00    0.86       1.0  T
   4   -249.8320710 -0.600760E+01  0.150E+00    1.37       1.0  T
   5   -250.4183302 -0.586259E+00  0.380E-01    1.39       1.0  T
   6   -250.4566798 -0.383495E-01  0.131E-01    1.35       1.0  T
   7   -250.4606400 -0.396026E-02  0.468E-02    1.35       1.0  T
   8   -250.4606979 -0.578860E-04  0.393E-02    1.34       1.0  T
   9   -250.4608767 -0.178763E-03  0.208E-02    1.34       1.0  T
  10   -250.4609568 -0.801631E-04  0.724E-03    1.35       1.2  T
  11   -250.4609649 -0.805904E-05  0.222E-03    1.34       4.1  T
  12   -250.4609658 -0.949673E-06  0.952E-04    1.35       9.4  T
  13   -250.4609661 -0.226589E-06  0.323E-04    1.35      27.8  T
  14   -250.4609661 -0.262614E-07  0.117E-04    1.35      76.6  T
  15   -250.4609661 -0.147341E-08  0.770E-05    1.35     116.6  T

   *** convergence criteria satisfied after 15 iterations ***

         #    Occupation            Energy/Eh            Energy/eV
      -------------------------------------------------------------
         1        2.0000           -1.0519760             -28.6257
       ...           ...                  ...                  ...
       191        2.0000           -0.4289629             -11.6727
       192        2.0000           -0.4237949             -11.5320
       193        2.0000           -0.4139867             -11.2652
       194        2.0000           -0.4000267             -10.8853
       195        2.0000           -0.3998455             -10.8804
       196        2.0000           -0.3897077             -10.6045
       197        2.0000           -0.3760647             -10.2332 (HOMO)
       198                         -0.3266329              -8.8881 (LUMO)
       199                         -0.3166920              -8.6176
       200                         -0.3158306              -8.5942
       201                         -0.3115873              -8.4787
       202                         -0.2801201              -7.6225
       ...                                ...                  ...
       506                        544.6139605           14819.7002
      -------------------------------------------------------------
                  HL-Gap            0.0494318 Eh            1.3451 eV
             Fermi-level           -0.3513488 Eh           -9.5607 eV

 SCC (total)                   0 d,  0 h,  0 min,  1.511 sec
 SCC setup                      ...        0 min,  0.002 sec (  0.126%)
 Dispersion                     ...        0 min,  0.003 sec (  0.184%)
 classical contributions        ...        0 min,  0.001 sec (  0.075%)
 integral evaluation            ...        0 min,  0.232 sec ( 15.324%)
 iterations                     ...        0 min,  0.742 sec ( 49.107%)
 molecular gradient             ...        0 min,  0.520 sec ( 34.441%)
 printout                       ...        0 min,  0.011 sec (  0.743%)

         :::::::::::::::::::::::::::::::::::::::::::::::::::::
         ::                     SUMMARY                     ::
         :::::::::::::::::::::::::::::::::::::::::::::::::::::
         :: total energy            -245.151291725684 Eh    ::
         :: gradient norm              0.070150390752 Eh/a0 ::
         :: HOMO-LUMO gap              1.345108363914 eV    ::
         ::.................................................::
         :: SCC energy              -250.460966087389 Eh    ::
         :: -> electrostatic           0.194169090576 Eh    ::
         :: repulsion energy           5.415338432848 Eh    ::
         :: dispersion energy         -0.105664071143 Eh    ::
         :: halogen bond corr.         0.000000000000 Eh    ::
         :: add. restraining           0.000000000000 Eh    ::
         :: total charge               0.000000000000 e     ::
         :::::::::::::::::::::::::::::::::::::::::::::::::::::

           ------------------------------------------------- 
          |        vertical delta SCC IP calculation        |
           ------------------------------------------------- 
   1   -250.0403354 -0.250040E+03  0.168E-01    1.35       0.0  T
   2   -250.0467920 -0.645663E-02  0.109E-01    1.39       1.0  T
   3   -250.0491709 -0.237886E-02  0.816E-02    1.35       1.0  T
   4   -250.0499694 -0.798538E-03  0.392E-02    1.36       1.0  T
   5   -250.0499095  0.599366E-04  0.265E-02    1.36       1.0  T
   6   -250.0500384 -0.128944E-03  0.107E-02    1.36       1.0  T
   7   -250.0500689 -0.304906E-04  0.410E-03    1.36       2.2  T
   8   -250.0500695 -0.560460E-06  0.354E-03    1.36       2.5  T
   9   -250.0500746 -0.511522E-05  0.149E-03    1.36       6.0  T
  10   -250.0500755 -0.856752E-06  0.387E-04    1.36      23.2  T
  11   -250.0500755 -0.501682E-07  0.119E-04    1.36      75.2  T
  12   -250.0500755 -0.133085E-08  0.880E-05    1.36     102.1  T
     SCC iter.                  ...        0 min,  0.589 sec
     gradient                   ...        0 min,  0.522 sec
------------------------------------------------------------------------
empirical IP shift (eV):    4.8455
delta SCC IP (eV):    6.3354
------------------------------------------------------------------------
           ------------------------------------------------- 
          |        vertical delta SCC EA calculation        |
           ------------------------------------------------- 
   1   -250.7191581 -0.250719E+03  0.300E-01    0.33       0.0  T
   2   -250.7430544 -0.238963E-01  0.209E-01    0.15       1.0  T
   3   -250.7502486 -0.719420E-02  0.141E-01    0.20       1.0  T
   4   -250.7521977 -0.194918E-02  0.842E-02    0.16       1.0  T
   5   -250.7522406 -0.428121E-04  0.496E-02    0.16       1.0  T
   6   -250.7526784 -0.437875E-03  0.214E-02    0.16       1.0  T
   7   -250.7527543 -0.758864E-04  0.105E-02    0.16       1.0  T
   8   -250.7527705 -0.162245E-04  0.904E-03    0.16       1.0  T
   9   -250.7528367 -0.661577E-04  0.252E-03    0.16       3.6  T
  10   -250.7528394 -0.268861E-05  0.790E-04    0.16      11.4  T
  11   -250.7528395 -0.164795E-06  0.303E-04    0.16      29.6  T
  12   -250.7528396 -0.141752E-07  0.141E-04    0.16      63.6  T
  13   -250.7528396 -0.363355E-08  0.830E-05    0.16     108.2  T
     SCC iter.                  ...        0 min,  0.645 sec
     gradient                   ...        0 min,  0.519 sec
------------------------------------------------------------------------
empirical EA shift (eV):    4.8455
delta SCC EA (eV):    3.0968
------------------------------------------------------------------------
           -------------------------------------------------
          |                Property Printout                |
           -------------------------------------------------

    * Orbital Energies and Occupations

         #    Occupation            Energy/Eh            Energy/eV
      -------------------------------------------------------------
         1        2.0000           -0.9846635             -26.7941
       ...           ...                  ...                  ...
       186        2.0000           -0.3748248             -10.1995
       187        2.0000           -0.3748021             -10.1989
       188        2.0000           -0.3667572              -9.9800
       189        2.0000           -0.3658821              -9.9562
       190        2.0000           -0.3623095              -9.8589
       191        2.0000           -0.3622398              -9.8570
       192        2.0000           -0.3538959              -9.6300
       193        2.0000           -0.3406430              -9.2694
       194        2.0000           -0.3324082              -9.0453
       195        2.0000           -0.3323303              -9.0432
       196        2.0000           -0.3215755              -8.7505
       197        2.0000           -0.3071822              -8.3589
       198        0.9482           -0.2572669              -7.0006 (HOMO)
       199        0.0340           -0.2513256              -6.8389 (LUMO)
       200        0.0178           -0.2506938              -6.8217
       201        0.0000           -0.2427189              -6.6047
       202                         -0.2218975              -6.0381
       203                         -0.2202030              -5.9920
       204                         -0.2132108              -5.8018
       205                         -0.2131513              -5.8001
       206                         -0.2010109              -5.4698
       207                         -0.1923410              -5.2339
       208                         -0.1830904              -4.9821
       209                         -0.1829812              -4.9792
       ...                                ...                  ...
       506                        544.6793818           14821.4804
      -------------------------------------------------------------
                  HL-Gap            0.0059413 Eh            0.1617 eV
             Fermi-level           -0.2683647 Eh           -7.3026 eV

  Mulliken/CM5 charges         n(s)   n(p)   n(d)
     1C    -0.03413 -0.07497   1.080  2.954  0.000
     2C     0.05826  0.11864   1.104  2.837  0.000
     3C    -0.04278 -0.08811   1.077  2.966  0.000
     4C    -0.03918 -0.08415   1.071  2.968  0.000
     5C     0.05612  0.12011   1.094  2.850  0.000
     6N    -0.16319 -0.51615   1.312  3.851  0.000
     7C     0.00333  0.00908   1.085  2.912  0.000
     8C     0.01667  0.00804   1.092  2.891  0.000
     9C    -0.01582 -0.06915   1.077  2.939  0.000
    10C    -0.01254 -0.06464   1.092  2.921  0.000
    11C     0.01291  0.00916   1.075  2.912  0.000
    12C     0.11066  0.22823   1.211  2.678  0.000
    13N    -0.27453 -0.39916   1.544  3.730  0.000
    14C    -0.01360 -0.06566   1.091  2.922  0.000
    15C    -0.01762 -0.07083   1.074  2.943  0.000
    16C     0.05352  0.12160   1.112  2.834  0.000
    17C    -0.04243 -0.08847   1.081  2.961  0.000
    18C    -0.04192 -0.08738   1.089  2.953  0.000
    19N    -0.29053 -0.47717   1.293  3.998  0.000
    20C     0.06192  0.13274   1.130  2.808  0.000
    21C     0.00802  0.01521   1.078  2.914  0.000
    22C     0.06214  0.12705   1.108  2.830  0.000
    23C    -0.04033 -0.08477   1.076  2.965  0.000
    24C    -0.04015 -0.08513   1.069  2.971  0.000
    25C     0.05539  0.11878   1.092  2.852  0.000
    26N    -0.15968 -0.51192   1.316  3.844  0.000
    27C     0.00078  0.00658   1.083  2.917  0.000
    28C     0.01615  0.00754   1.092  2.892  0.000
    29C    -0.01713 -0.07046   1.076  2.941  0.000
    30C    -0.01355 -0.06564   1.091  2.922  0.000
    31C     0.01218  0.00843   1.075  2.913  0.000
    32C     0.11016  0.22771   1.211  2.679  0.000
    33N    -0.27576 -0.40038   1.544  3.732  0.000
    34C    -0.01338 -0.06545   1.091  2.922  0.000
    35C    -0.01727 -0.07048   1.075  2.943  0.000
    36C     0.05557  0.12497   1.116  2.828  0.000
    37C    -0.04212 -0.08814   1.084  2.958  0.000
    38C    -0.04431 -0.09070   1.090  2.954  0.000
    39C     0.05552  0.12120   1.125  2.820  0.000
    40N    -0.29581 -0.48282   1.291  4.005  0.000
    41H     0.01857  0.07760   0.981  0.000  0.000
    42H     0.03043  0.08712   0.970  0.000  0.000
    43H     0.02314  0.08183   0.977  0.000  0.000
    44H     0.16064  0.36892   0.839  0.000  0.000
    45H     0.03002  0.08797   0.970  0.000  0.000
    46H     0.03843  0.09571   0.962  0.000  0.000
    47H     0.03699  0.09425   0.963  0.000  0.000
    48H     0.02916  0.08711   0.971  0.000  0.000
    49H     0.01547  0.07426   0.985  0.000  0.000
    50H     0.01953  0.07762   0.980  0.000  0.000
    51H     0.02793  0.08605   0.972  0.000  0.000
    52H     0.02353  0.08230   0.976  0.000  0.000
    53H     0.15878  0.36702   0.841  0.000  0.000
    54H     0.02811  0.08605   0.972  0.000  0.000
    55H     0.03660  0.09386   0.963  0.000  0.000
    56H     0.03752  0.09477   0.962  0.000  0.000
    57H     0.02981  0.08776   0.970  0.000  0.000
    58H     0.01470  0.07339   0.985  0.000  0.000
    59H     0.02178  0.07822   0.978  0.000  0.000
    60C    -0.03411 -0.07495   1.080  2.954  0.000
    61C     0.05825  0.11863   1.104  2.837  0.000
    62C    -0.04278 -0.08810   1.077  2.966  0.000
    63C    -0.03918 -0.08416   1.071  2.968  0.000
    64C     0.05613  0.12011   1.094  2.850  0.000
    65N    -0.16318 -0.51615   1.312  3.851  0.000
    66C     0.00331  0.00906   1.085  2.912  0.000
    67C     0.01664  0.00802   1.092  2.891  0.000
    68C    -0.01581 -0.06915   1.077  2.939  0.000
    69C    -0.01255 -0.06465   1.092  2.921  0.000
    70C     0.01289  0.00915   1.075  2.912  0.000
    71C     0.11064  0.22820   1.211  2.678  0.000
    72N    -0.27457 -0.39918   1.544  3.730  0.000
    73C    -0.01360 -0.06567   1.091  2.922  0.000
    74C    -0.01763 -0.07084   1.075  2.943  0.000
    75C     0.05353  0.12161   1.112  2.834  0.000
    76C    -0.04243 -0.08847   1.081  2.961  0.000
    77C    -0.04192 -0.08737   1.089  2.953  0.000
    78N    -0.29052 -0.47717   1.293  3.998  0.000
    79C     0.06192  0.13274   1.130  2.808  0.000
    80C     0.00804  0.01523   1.078  2.914  0.000
    81C     0.06211  0.12702   1.108  2.830  0.000
    82C    -0.04033 -0.08477   1.076  2.965  0.000
    83C    -0.04016 -0.08514   1.069  2.971  0.000
    84C     0.05540  0.11879   1.093  2.852  0.000
    85N    -0.15968 -0.51193   1.316  3.844  0.000
    86C     0.00075  0.00655   1.083  2.917  0.000
    87C     0.01612  0.00752   1.092  2.892  0.000
    88C    -0.01714 -0.07047   1.076  2.941  0.000
    89C    -0.01358 -0.06566   1.091  2.922  0.000
    90C     0.01217  0.00842   1.075  2.913  0.000
    91C     0.11013  0.22764   1.211  2.679  0.000
    92N    -0.27582 -0.40040   1.544  3.732  0.000
    93C    -0.01338 -0.06545   1.091  2.922  0.000
    94C    -0.01728 -0.07049   1.075  2.943  0.000
    95C     0.05558  0.12498   1.116  2.828  0.000
    96C    -0.04211 -0.08814   1.084  2.958  0.000
    97C    -0.04430 -0.09070   1.090  2.954  0.000
    98C     0.05551  0.12120   1.125  2.820  0.000
    99N    -0.29581 -0.48282   1.291  4.005  0.000
   100H     0.01857  0.07761   0.981  0.000  0.000
   101H     0.03043  0.08711   0.970  0.000  0.000
   102H     0.02312  0.08182   0.977  0.000  0.000
   103H     0.16063  0.36892   0.839  0.000  0.000
   104H     0.02999  0.08796   0.970  0.000  0.000
   105H     0.03843  0.09571   0.962  0.000  0.000
   106H     0.03698  0.09423   0.963  0.000  0.000
   107H     0.02915  0.08710   0.971  0.000  0.000
   108H     0.01547  0.07426   0.985  0.000  0.000
   109H     0.01953  0.07762   0.980  0.000  0.000
   110H     0.02792  0.08604   0.972  0.000  0.000
   111H     0.02351  0.08229   0.976  0.000  0.000
   112H     0.15877  0.36703   0.841  0.000  0.000
   113H     0.02807  0.08601   0.972  0.000  0.000
   114H     0.03658  0.09384   0.963  0.000  0.000
   115H     0.03752  0.09477   0.962  0.000  0.000
   116H     0.02981  0.08777   0.970  0.000  0.000
   117H     0.01470  0.07338   0.985  0.000  0.000
   118H     0.02178  0.07822   0.978  0.000  0.000
   119C    -0.02652 -0.02663   1.075  2.951  0.000
   120C    -0.02651 -0.02661   1.075  2.951  0.000
   121C    -0.02998 -0.03075   1.060  2.970  0.000
   122C    -0.02594 -0.02757   1.090  2.936  0.000
   123C    -0.02996 -0.03073   1.060  2.970  0.000
   124C    -0.02595 -0.02759   1.090  2.936  0.000

Wiberg/Mayer (AO) data.
largest (>0.10) Wiberg bond orders for each atom

 ---------------------------------------------------------------------------
     #   Z sym  total        # sym  WBO       # sym  WBO       # sym  WBO
 ---------------------------------------------------------------------------
     1   6 C    3.778 --    39 C    1.383     2 C    1.360    41 H    0.997
     2   6 C    3.919 --     1 C    1.360     3 C    1.247     6 N    1.231
     3   6 C    3.818 --     4 C    1.580     2 C    1.247    42 H    0.994
     4   6 C    3.811 --     3 C    1.580     5 C    1.260    43 H    0.999
     5   6 C    3.883 --     7 C    1.331     4 C    1.260     6 N    1.222
     6   7 N    3.237 --     2 C    1.231     5 C    1.222    44 H    0.962
     7   6 C    3.826 --    16 C    1.369     5 C    1.331     8 C    1.055
     8   6 C    3.870 --     9 C    1.414    15 C    1.413     7 C    1.055
     9   6 C    3.864 --    10 C    1.465     8 C    1.414    45 H    0.987
    10   6 C    3.905 --     9 C    1.465    11 C    1.380    46 H    0.986
    11   6 C    3.902 --    14 C    1.381    10 C    1.380    12 C    1.126
    12   6 C    4.102 --    13 N    2.958    11 C    1.126
    13   7 N    2.982 --    12 C    2.958
    14   6 C    3.905 --    15 C    1.465    11 C    1.381    47 H    0.986
    15   6 C    3.859 --    14 C    1.465     8 C    1.413    48 H    0.987
    16   6 C    3.915 --     7 C    1.369    19 N    1.344    17 C    1.164
    17   6 C    3.831 --    18 C    1.684    16 C    1.164    49 H    0.999
    18   6 C    3.841 --    17 C    1.684    20 C    1.170    50 H    1.000
    19   7 N    2.541 --    20 C    1.418    16 C    1.344
    20   6 C    3.936 --    19 N    1.418    21 C    1.275    18 C    1.170
    21   6 C    3.799 --    20 C    1.275    22 C    1.263   122 C    1.241
    22   6 C    3.891 --    23 C    1.283    21 C    1.263    26 N    1.251
    23   6 C    3.811 --    24 C    1.555    22 C    1.283    51 H    0.999
    24   6 C    3.795 --    23 C    1.555    25 C    1.273    52 H    0.999
    25   6 C    3.875 --    27 C    1.320    24 C    1.273    26 N    1.220
    26   7 N    3.256 --    22 C    1.251    25 C    1.220    53 H    0.961
    27   6 C    3.803 --    36 C    1.368    25 C    1.320    28 C    1.058
    28   6 C    3.868 --    29 C    1.412    35 C    1.411    27 C    1.058
    29   6 C    3.861 --    30 C    1.466    28 C    1.412    54 H    0.987
    30   6 C    3.905 --    29 C    1.466    31 C    1.380    55 H    0.986
    31   6 C    3.899 --    30 C    1.380    34 C    1.379    32 C    1.127
    32   6 C    4.101 --    33 N    2.957    31 C    1.127
    33   7 N    2.981 --    32 C    2.957
    34   6 C    3.904 --    35 C    1.466    31 C    1.379    56 H    0.986
    35   6 C    3.859 --    34 C    1.466    28 C    1.411    57 H    0.987
    36   6 C    3.939 --    40 N    1.368    27 C    1.368    37 C    1.152
    37   6 C    3.839 --    38 C    1.705    36 C    1.152    58 H    1.000
    38   6 C    3.856 --    37 C    1.705    39 C    1.146    59 H    0.995
    39   6 C    3.964 --     1 C    1.383    40 N    1.375    38 C    1.146
    40   7 N    2.518 --    39 C    1.375    36 C    1.368
    41   1 H    1.036 --     1 C    0.997
    42   1 H    1.019 --     3 C    0.994
    43   1 H    1.033 --     4 C    0.999
    44   1 H    1.085 --     6 N    0.962
    45   1 H    1.053 --     9 C    0.987
    46   1 H    1.039 --    10 C    0.986
    47   1 H    1.039 --    14 C    0.986
    48   1 H    1.049 --    15 C    0.987
    49   1 H    1.036 --    17 C    0.999
    50   1 H    1.035 --    18 C    1.000
    51   1 H    1.032 --    23 C    0.999
    52   1 H    1.032 --    24 C    0.999
    53   1 H    1.089 --    26 N    0.961
    54   1 H    1.053 --    29 C    0.987
    55   1 H    1.040 --    30 C    0.986
    56   1 H    1.039 --    34 C    0.986
    57   1 H    1.050 --    35 C    0.987
    58   1 H    1.036 --    37 C    1.000
    59   1 H    1.022 --    38 C    0.995
    60   6 C    3.778 --    98 C    1.383    61 C    1.360   100 H    0.997
    61   6 C    3.919 --    60 C    1.360    62 C    1.247    65 N    1.231
    62   6 C    3.818 --    63 C    1.580    61 C    1.247   101 H    0.994
    63   6 C    3.811 --    62 C    1.580    64 C    1.260   102 H    0.999
    64   6 C    3.883 --    66 C    1.331    63 C    1.260    65 N    1.222
    65   7 N    3.237 --    61 C    1.231    64 C    1.222   103 H    0.962
    66   6 C    3.826 --    75 C    1.369    64 C    1.331    67 C    1.056
    67   6 C    3.870 --    68 C    1.413    74 C    1.413    66 C    1.056
    68   6 C    3.864 --    69 C    1.465    67 C    1.413   104 H    0.987
    69   6 C    3.905 --    68 C    1.465    70 C    1.380   105 H    0.986
    70   6 C    3.902 --    69 C    1.380    73 C    1.380    71 C    1.126
    71   6 C    4.102 --    72 N    2.958    70 C    1.126
    72   7 N    2.982 --    71 C    2.958
    73   6 C    3.905 --    74 C    1.465    70 C    1.380   106 H    0.986
    74   6 C    3.859 --    73 C    1.465    67 C    1.413   107 H    0.987
    75   6 C    3.915 --    66 C    1.369    78 N    1.344    76 C    1.164
    76   6 C    3.831 --    77 C    1.684    75 C    1.164   108 H    0.999
    77   6 C    3.841 --    76 C    1.684    79 C    1.170   109 H    1.000
    78   7 N    2.541 --    79 C    1.418    75 C    1.344
    79   6 C    3.936 --    78 N    1.418    80 C    1.275    77 C    1.170
    80   6 C    3.799 --    79 C    1.275    81 C    1.263   124 C    1.241
    81   6 C    3.891 --    82 C    1.283    80 C    1.263    85 N    1.251
    82   6 C    3.811 --    83 C    1.555    81 C    1.283   110 H    0.999
    83   6 C    3.795 --    82 C    1.555    84 C    1.273   111 H    0.999
    84   6 C    3.875 --    86 C    1.319    83 C    1.273    85 N    1.220
    85   7 N    3.256 --    81 C    1.251    84 C    1.220   112 H    0.961
    86   6 C    3.803 --    95 C    1.367    84 C    1.319    87 C    1.058
    87   6 C    3.868 --    88 C    1.412    94 C    1.411    86 C    1.058
    88   6 C    3.861 --    89 C    1.466    87 C    1.412   113 H    0.987
    89   6 C    3.905 --    88 C    1.466    90 C    1.379   114 H    0.986
    90   6 C    3.899 --    89 C    1.379    93 C    1.379    91 C    1.127
    91   6 C    4.101 --    92 N    2.957    90 C    1.127
    92   7 N    2.981 --    91 C    2.957
    93   6 C    3.904 --    94 C    1.466    90 C    1.379   115 H    0.986
    94   6 C    3.858 --    93 C    1.466    87 C    1.411   116 H    0.987
    95   6 C    3.939 --    99 N    1.368    86 C    1.367    96 C    1.152
    96   6 C    3.839 --    97 C    1.705    95 C    1.152   117 H    1.000
    97   6 C    3.856 --    96 C    1.705    98 C    1.146   118 H    0.995
    98   6 C    3.964 --    60 C    1.383    99 N    1.375    97 C    1.146
    99   7 N    2.518 --    98 C    1.375    95 C    1.368
   100   1 H    1.036 --    60 C    0.997
   101   1 H    1.019 --    62 C    0.994
   102   1 H    1.033 --    63 C    0.999
   103   1 H    1.085 --    65 N    0.962
   104   1 H    1.053 --    68 C    0.987
   105   1 H    1.039 --    69 C    0.986
   106   1 H    1.039 --    73 C    0.986
   107   1 H    1.049 --    74 C    0.987
   108   1 H    1.036 --    76 C    0.999
   109   1 H    1.035 --    77 C    1.000
   110   1 H    1.032 --    82 C    0.999
   111   1 H    1.032 --    83 C    0.999
   112   1 H    1.089 --    85 N    0.961
   113   1 H    1.053 --    88 C    0.987
   114   1 H    1.040 --    89 C    0.986
   115   1 H    1.039 --    93 C    0.986
   116   1 H    1.050 --    94 C    0.987
   117   1 H    1.036 --    96 C    1.000
   118   1 H    1.022 --    97 C    0.995
   119   6 C    3.828 --   120 C    2.350   123 C    1.373   122 C    0.163
   120   6 C    3.828 --   119 C    2.350   121 C    1.373   124 C    0.163
   121   6 C    3.791 --   122 C    2.445   120 C    1.373
   122   6 C    3.761 --   121 C    2.445    21 C    1.241   119 C    0.163
   123   6 C    3.791 --   124 C    2.445   119 C    1.373
   124   6 C    3.761 --   123 C    2.445    80 C    1.241   120 C    0.163
 ---------------------------------------------------------------------------

Topologies differ in total number of bonds
Writing topology from bond orders to xtbtopo.mol

 dipole moment from electron density (au)
     X       Y       Z   
 -42.2702  -0.0062  -0.0392  total (Debye):  107.440


           -------------------------------------------------
          | TOTAL ENERGY             -245.443165205068 Eh   |
          | GRADIENT NORM               0.082954049812 Eh/α |
          | HOMO-LUMO GAP               0.161670841024 eV   |
           -------------------------------------------------
########################################################################
[WARNING] Runtime exception occurred
-1- restart_readRestart: Dimension missmatch in restart file.
########################################################################

------------------------------------------------------------------------
 * finished run on 2022/07/27 at 19:33:13.849     
------------------------------------------------------------------------
 total:
 * wall-time:     0 d,  0 h,  0 min,  4.531 sec
 *  cpu-time:     0 d,  0 h,  0 min,  4.509 sec
 * ratio c/w:     0.995 speedup
 SCF:
 * wall-time:     0 d,  0 h,  0 min,  4.286 sec
 *  cpu-time:     0 d,  0 h,  0 min,  4.270 sec
 * ratio c/w:     0.996 speedup

