124
 energy: -214.614356993319 gnorm: 0.483789410920 xtb: 6.5.1 (b24c23e)
C           10.75575900000000       -0.01312000000000        0.10763000000000
C           11.48397800000000        1.36284400000000        0.18638200000000
C           10.87667000000000        2.58450400000000        0.36475000000000
C           11.89929000000000        3.56733800000000        0.31767900000000
C           13.09676000000000        2.91158200000000        0.10260200000000
N           12.83601500000000        1.56431500000000        0.07123700000000
C           14.51960100000000        3.58038400000000       -0.10034800000000
C           14.55899800000000        5.04635900000000       -0.30407700000000
C           14.86334700000000        5.89766800000000        0.76518400000000
C           14.89228000000000        7.28137200000000        0.57815800000000
C           14.61578000000000        7.82119700000000       -0.68249700000000
C           14.64657300000000        9.24095200000000       -0.87838600000000
N           14.67029800000000       10.39043600000000       -1.04267300000000
C           14.30908400000000        6.97378900000000       -1.75297000000000
C           14.28085900000000        5.58981700000000       -1.56228300000000
C           15.64987400000000        2.82389900000000       -0.12383100000000
C           16.95296700000000        3.40479400000000       -0.37591800000000
C           17.85639400000000        2.43217500000000       -0.35975800000000
N           15.84799100000000        1.47840400000000        0.04394900000000
C           17.17995300000000        1.17945400000000       -0.08526600000000
C           17.85131900000000       -0.00019900000000        0.00005500000000
C           17.07817300000000       -1.34819500000000        0.32697900000000
C           17.63187200000000       -2.49962100000000        0.85418300000000
C           16.60455800000000       -3.47277800000000        0.92679400000000
C           15.45086500000000       -2.88668800000000        0.45123200000000
N           15.73630800000000       -1.57810300000000        0.14475900000000
C           14.03778400000000       -3.58953500000000        0.29671400000000
C           14.00540400000000       -5.06531300000000        0.20997200000000
C           13.66304500000000       -5.83592400000000        1.32825600000000
C           13.64164500000000       -7.22909900000000        1.24290100000000
C           13.96692000000000       -7.86046700000000        0.03725800000000
C           13.94325500000000       -9.29076900000000       -0.05295900000000
N           13.92506100000000      -10.44975800000000       -0.12667900000000
C           14.31357400000000       -7.09388700000000       -1.08137400000000
C           14.33192200000000       -5.70085100000000       -0.99318300000000
C           12.91043900000000       -2.83703500000000        0.21235700000000
C           11.58704200000000       -3.41567100000000        0.05686800000000
C           10.69971300000000       -2.42548900000000        0.01945600000000
C           11.42201200000000       -1.18273200000000        0.13266300000000
N           12.74440900000000       -1.48045000000000        0.24213000000000
H            9.67691200000000       -0.01167500000000        0.00661100000000
H            9.81871000000000        2.75043300000000        0.49780100000000
H           11.77101500000000        4.63545600000000        0.40653300000000
H           13.53541500000000        0.83170400000000       -0.01918500000000
H           15.08186500000000        5.46384100000000        1.73976000000000
H           15.13209800000000        7.92338900000000        1.42128000000000
H           14.09335400000000        7.37392200000000       -2.73930900000000
H           14.04546900000000        4.92065100000000       -2.38670800000000
H           17.16589799999999        4.44236200000000       -0.56160800000000
H           18.90891800000000        2.57475100000000       -0.52361800000000
H           18.66498400000000       -2.63370100000000        1.13698300000000
H           16.70282400000000       -4.49033000000000        1.26901600000000
H           15.04840300000000       -0.88250100000000       -0.13479100000000
H           13.40857200000000       -5.33218800000000        2.25856800000000
H           13.37026000000000       -7.80796300000000        2.12143200000000
H           14.57178700000000       -7.56510500000000       -2.02617600000000
H           14.59554000000000       -5.09247800000000       -1.85752200000000
H           11.35550600000000       -4.46252700000000       -0.01600600000000
H            9.63442500000000       -2.52538700000000       -0.08776500000000
C           33.97602500000000        0.04208600000000        0.09981100000000
C           33.24780600000000       -1.25789400000000        0.55755800000000
C           33.85511400000000       -2.38197600000000        1.06815300000000
C           32.83249400000000       -3.33922700000000        1.29585600000000
C           31.63502400000000       -2.76898600000000        0.90714100000000
N           31.89576900000000       -1.48341600000000        0.50288800000000
C           30.21218300000000       -3.46784200000000        0.89789200000000
C           30.17278599999999       -4.93273500000000        1.10926200000000
C           29.86843700000000       -5.45363900000000        2.37287000000000
C           29.83950400000000       -6.83485900000000        2.57744000000000
C           30.11600400000000       -7.70352300000000        1.51627000000000
C           30.08521000000000       -9.12183700000000        1.72233700000000
N           30.06148500000000      -10.27173300000000        1.88371000000000
C           30.42270000000000       -7.18670300000000        0.25258100000000
C           30.45092400000000       -5.80421000000000        0.05145300000000
C           29.08191000000000       -2.74763000000000        0.66526500000000
C           27.77881700000000       -3.37568000000000        0.58440100000000
C           26.87539000000000       -2.43682700000000        0.32983900000000
N           28.88379200000000       -1.40846000000000        0.45281600000000
C           27.55183100000000       -1.15715000000000        0.24566700000000
C           26.88046500000000       -0.00019900000000        0.00005500000000
C           27.65361100000000        1.38556500000000       -0.06020400000000
C           27.09991100000000        2.63810500000000        0.12652600000000
C           28.12722500000000        3.59315200000000       -0.07395400000000
C           29.28091900000000        2.89805400000000       -0.36806100000000
N           28.99547600000000        1.55583000000000       -0.29910000000000
C           30.69399900000000        3.53035100000000       -0.71167600000000
C           30.72637900000000        4.92400000000000       -1.20481400000000
C           31.06873900000000        5.97483900000000       -0.34450300000000
C           31.09013900000000        7.28952000000000       -0.81337200000000
C           30.76486400000000        7.56126200000000       -2.14692200000000
C           30.78852800000000        8.91025800000000       -2.63077100000000
N           30.80672200000000       10.00319400000000       -3.02343100000000
C           30.41821000000000        6.51419800000000       -3.00868800000000
C           30.39986200000000        5.20043900000000       -2.53713300000000
C           31.82134500000000        2.78402000000000       -0.58375300000000
C           33.14474200000000        3.29672100000000       -0.89380800000000
C           34.03207100000000        2.33509400000000       -0.65478600000000
C           33.30977100000000        1.17264900000000       -0.20093000000000
N           31.98737500000000        1.48905600000000       -0.17844100000000
H           35.05487100000000        0.01264600000000        0.00316600000000
H           34.91307400000000       -2.50443100000000        1.24204800000000
H           32.96076900000000       -4.34066300000000        1.67782100000000
H           31.19636900000000       -0.80472700000000        0.21258300000000
H           29.64991900000000       -4.76624400000000        3.18864800000000
H           29.59968600000000       -7.21749900000000        3.56568400000000
H           30.63843000000000       -7.84499500000000       -0.58385400000000
H           30.68631500000000       -5.39029600000000       -0.92636800000000
H           27.56588600000000       -4.42400600000000        0.69413500000000
H           25.82286500000000       -2.61929700000000        0.21201500000000
H           26.06680000000000        2.84544300000000        0.36097200000000
H           28.02896000000000        4.66571600000000       -0.02775500000000
H           29.68338000000000        0.80995700000000       -0.37449400000000
H           31.32321100000000        5.74925300000000        0.68910300000000
H           31.36152400000000        8.08957600000000       -0.13013800000000
H           30.15999700000000        6.70452100000000       -4.04718400000000
H           30.13624400000000        4.37597500000000       -3.19853900000000
H           33.37627700000000        4.28216900000000       -1.25451700000000
H           35.09735800000000        2.40128900000000       -0.78553100000000
C           22.96981200000000        0.00111300000000        0.00848700000000
C           21.76087300000000       -0.01234300000000        0.00004000000000
C           20.33934400000000       -0.00352300000000       -0.01194300000000
C           19.12767400000000        0.00391600000000       -0.00108000000000
C           24.38641600000000       -0.00556300000000        0.00902000000000
C           25.60711200000000        0.00391600000000       -0.00108000000000
124
 energy: -214.736779525744 gnorm: 0.256411371409 xtb: 6.5.1 (b24c23e)
C           10.79408260371386        0.02719465599133        0.10991220499344
C           11.48488581568850        1.34572762422698        0.18564724837920
C           10.88455454111523        2.59016065610415        0.35822701356199
C           11.89840979886994        3.56414868885889        0.30975477247259
C           13.11581542574341        2.91348024623261        0.10079060303508
N           12.83975149153920        1.56345487812843        0.06744451023331
C           14.47824690483038        3.55239265055867       -0.09346590745600
C           14.53929411708607        5.03286514326741       -0.29751435296167
C           14.86085559281011        5.89308831855516        0.76126304771227
C           14.89266111438262        7.27248751552675        0.57614211462979
C           14.61548291837431        7.81875542545341       -0.68223200913038
C           14.64630367311610        9.23715512698752       -0.87810910881257
N           14.67004808262782       10.37596411748641       -1.04046826282538
C           14.31067045391438        6.96607615404444       -1.74931140407601
C           14.27696467856132        5.58766757317999       -1.55594026078988
C           15.64288037165908        2.81642574274937       -0.12470052107885
C           16.94939632424806        3.41588194683061       -0.37774279558087
C           17.85698854479378        2.43313502955494       -0.36066431201777
N           15.82319039011061        1.46814352154882        0.03896666289869
C           17.14506438654925        1.18898701194138       -0.08977210681114
C           17.79915307778432       -0.03164918318091        0.02574592134646
C           17.07016100189820       -1.33583392914476        0.32919618834517
C           17.62623624080665       -2.50403081601703        0.84369472391326
C           16.60638314133446       -3.47110723861555        0.91619991073811
C           15.43037354876276       -2.89030261610363        0.44856445644784
N           15.73009632497615       -1.58005378038332        0.13967367956582
C           14.07589147549389       -3.56062991069832        0.29902988967484
C           14.02502641962244       -5.05117931725975        0.21613788416230
C           13.66517027896778       -5.83147785636038        1.32365610670803
C           13.64127900144320       -7.22066703032140        1.24004334522931
C           13.96709561818842       -7.85816923201070        0.03730104962896
C           13.94366796740006       -9.28712586817869       -0.05258169948999
N           13.92522128485134      -10.43523151971287       -0.12582685955999
C           14.31216204405995       -7.08617633694141       -1.07822613687259
C           14.33596467813983       -5.69781822890117       -0.98681149625539
C           12.91331480557470       -2.82661336916241        0.20893993444739
C           11.58756260781295       -3.42585449911688        0.05728097710809
C           10.69525182765578       -2.42937614968257        0.01825497441027
C           11.43653785456635       -1.18150183493109        0.13011632353655
N           12.76179794432283       -1.46919759103282        0.24005265495343
H            9.70718022708235        0.01786055888307        0.01508957365362
H            9.82638888333788        2.75651007042695        0.49722547357638
H           11.76862681980042        4.63157529547955        0.40582643991223
H           13.53688735680966        0.83248254141625       -0.02017187199581
H           15.07981186460246        5.46718426749784        1.73635544840326
H           15.13103003670766        7.91966066473731        1.41570586759902
H           14.09522077191488        7.37220122156021       -2.73347376620303
H           14.04488259722549        4.92501120184331       -2.38436952824808
H           17.15808042927506        4.45489678770303       -0.56159099628558
H           18.91484443675359        2.56295974441559       -0.52201604274134
H           18.65868018777432       -2.63543999892354        1.13416765594918
H           16.70620305700844       -4.48647299861153        1.26764850049889
H           15.04666169596256       -0.88419013432712       -0.13606082292750
H           13.41065153914497       -5.33547145916941        2.25566754115261
H           13.37163379745030       -7.80479234921395        2.11562971983403
H           14.56903851286584       -7.56309320785000       -2.02018080721868
H           14.59620585584398       -5.09693544785675       -1.85404630910728
H           11.36288332875012       -4.47529194087459       -0.01472423276821
H            9.62754468702087       -2.52180423372644       -0.08788207961039
C           33.93770772398132        0.00399885657078        0.11319452229373
C           33.24689848922156       -1.24166284974284        0.55210316166453
C           33.84722459331304       -2.38921716666646        1.06345866560160
C           32.83335154976393       -3.33836338429132        1.28735876435829
C           31.61596014670083       -2.77130070799841        0.90593350968059
N           31.89203592069757       -1.48363898321581        0.49900092671245
C           30.25343253518050       -3.43894586749553        0.89669826236437
C           30.19245742944804       -4.91790240542776        1.11180235454889
C           29.87092723972276       -5.45030940516576        2.36782135882812
C           29.83912716306116       -6.82687121244987        2.57303064726868
C           30.11630128569587       -7.70109729919454        1.51584505868944
C           30.08547963299153       -9.11810866308646        1.72154774115777
N           30.06173495157566      -10.25721473669845        1.88180874967988
C           30.42111417073780       -7.17826481453217        0.25395570040806
C           30.45481316815785       -5.80036412781918        0.05694960750703
C           29.08878108122642       -2.74058180182787        0.66231969343998
C           27.78236066533074       -3.38680455392565        0.58566236834477
C           26.87468115212701       -2.43798494571572        0.32908883223660
N           28.90812135898291       -1.39970719677483        0.44525709273805
C           27.58620386900823       -1.16744278228418        0.24421534770420
C           26.93105710880447        0.03768343882721        0.01798553893744
C           27.66171399120721        1.37451616621835       -0.05446934468127
C           27.10561505696375        2.63951999738046        0.11522535807585
C           28.12547285107287        3.58867405868450       -0.08369468247261
C           29.30145232922100        2.90084755035580       -0.37165108169519
N           29.00173483875224        1.55636081109206       -0.30455595241158
C           30.65593302207133        3.50324869818548       -0.70143457381585
C           30.70677396108227        4.91214259211328       -1.19497417276797
C           31.06661694069374        5.96929456909589       -0.34768805920088
C           31.09050426522596        7.28062842509288       -0.81377571855723
C           30.76468828243312        7.55906762211694       -2.14624317128334
C           30.78811498150517        8.90686400587725       -2.62939720267712
N           30.80656188829219        9.98947613863855       -3.01857886873605
C           30.41962080473319        6.50766655939748       -3.00352398661487
C           30.39582066961022        5.19929765587416       -2.53017336558803
C           31.81848317067748        2.77307091373902       -0.58414096789496
C           33.14423060360892        3.30662022364888       -0.89624099474120
C           34.03653732191645        2.33849503163444       -0.65701985400070
C           33.29525195449969        1.17076230026236       -0.20303427392456
N           31.96998785490884        1.47767122135435       -0.17731084306712
H           35.02460753902817       -0.01337090955982        0.01950872299842
H           34.90539128913247       -2.51042912566878        1.24318156620911
H           32.96314449057546       -4.33713163385158        1.67606234018041
H           31.19490479480091       -0.80574156939115        0.21184757439031
H           29.65196999360184       -4.77039607685033        3.18630456053541
H           29.60075568512146       -7.21545730491968        3.55928883475938
H           30.63656331438480       -7.84171340504378       -0.57872349144732
H           30.68689965188774       -5.39383099599210       -0.92291433870265
H           27.57372033054454       -4.43602015236413        0.69761640754716
H           25.81684285456248       -2.60753151796865        0.21028038908734
H           26.07314283377667        2.84634909703643        0.35779252202740
H           28.02560950924119        4.66167768769747       -0.02801385170710
H           29.68512588706822        0.81125163913730       -0.37616795949646
H           31.32113241014040        5.75160298606401        0.68540432974171
H           31.36014999556468        8.08492052066123       -0.13483100025312
H           30.16274491348004        6.70425421316949       -4.04086703355234
H           30.13557876735976        4.38122288572171       -3.19643863834170
H           33.36890499779403        4.29478909471325       -1.25683171823271
H           35.10424262795092        2.39781373654259       -0.78464881270709
C           22.98034884271151        0.00186492225421        0.00818250978657
C           21.75187023244755       -0.01390406277666       -0.00280090903097
C           20.38048976195613       -0.01408543819780       -0.01172399281463
C           19.15191889781715       -0.02353165865653        0.00793241505597
C           24.35000364274310        0.00432281392260        0.00149264766709
C           25.57917025337741        0.03092701959171       -0.00083294969680
124
 energy: -214.796019158861 gnorm: 0.067755202187 xtb: 6.5.1 (b24c23e)
C           10.84826539688488        0.07549462732090        0.11326613613134
C           11.49171744983943        1.32386497783312        0.18275545802400
C           10.89890022209338        2.59865093692071        0.34713240527123
C           11.89695495854855        3.55782841183793        0.29834443683484
C           13.14377274724243        2.91504414773139        0.09540534869686
N           12.84941802417328        1.56249957508728        0.06722094692455
C           14.42760749435614        3.51348810447546       -0.08615235505453
C           14.51497968605861        5.01243563497227       -0.28846755998922
C           14.85342435824105        5.88207768149964        0.75845263168960
C           14.89281097816789        7.25775274656347        0.57406609493595
C           14.61521388451374        7.81088878721912       -0.68115852618527
C           14.64566784043907        9.22681936103762       -0.87686310204189
N           14.66995441156640       10.36671580900025       -1.03880468552904
C           14.31186629838462        6.95303037341781       -1.74405800761388
C           14.26972850652973        5.57959370096509       -1.54672113972293
C           15.63657420353825        2.80595135210490       -0.13006045280687
C           16.94228787350039        3.41986690308471       -0.37870053660314
C           17.85578212585332        2.42862553574218       -0.36083555004802
N           15.80910072138913        1.45643766913099        0.02855615653738
C           17.12324896701595        1.19051603971472       -0.09460919014591
C           17.75605646711213       -0.07304011191244        0.05796999755843
C           17.06594056200445       -1.31263373071837        0.32969647152137
C           17.61782071565275       -2.50994455271866        0.83007126796497
C           16.61170736804481       -3.46662503605390        0.89779444183226
C           15.40524631538054       -2.89177108976467        0.44105617746344
N           15.72391129606646       -1.57572767662869        0.14092775104246
C           14.12551817799523       -3.52156731894088        0.30157698208805
C           14.04881036842775       -5.03031428327183        0.22480399557624
C           13.67214412415994       -5.82067432501377        1.32020386612257
C           13.64129787318856       -7.20643093094544        1.23691525997235
C           13.96735901575265       -7.85038989118976        0.03789453935183
C           13.94424045410936       -9.27695030342986       -0.05171503576784
N           13.92531767117078      -10.42604358809198       -0.12518826837043
C           14.31112141069542       -7.07308318183906       -1.07370601459619
C           14.34314267087572       -5.68881917809654       -0.97766291185917
C           12.91920253936281       -2.81618993084620        0.20182719652870
C           11.59439966780748       -3.43117556760175        0.05723937927871
C           10.69732333279397       -2.42834471578390        0.01657804653244
C           11.45391728868112       -1.18010496060337        0.12454672624231
N           12.77812490864332       -1.46108513904478        0.23209221753154
H            9.75360458702904        0.05384186132036        0.03132352179071
H            9.84007613407950        2.76362115734710        0.49458953701219
H           11.76596781093251        4.62496504725128        0.40333583126665
H           13.54433651466551        0.83153614738787       -0.01961190439038
H           15.07641839660556        5.46767696057299        1.73547016649230
H           15.13148752311993        7.91170684818628        1.40836440537725
H           14.09922063992868        7.36705061558375       -2.72581074366722
H           14.04108705946814        4.92651587088372       -2.38216946228616
H           17.14249285094108        4.46284597283224       -0.55869267495265
H           18.91693620695303        2.54469670091321       -0.51878421448515
H           18.64873968731942       -2.63888344128754        1.12920074055385
H           16.71068293974194       -4.47942032036112        1.26179829658552
H           15.04303215779612       -0.88037278313277       -0.13505051326913
H           13.41370750799622       -5.33586230146724        2.25517149117559
H           13.37151073772181       -7.79754492799286        2.10780047163364
H           14.56399018308447       -7.55760228490408       -2.01273024667243
H           14.60035377295791       -5.09856053718421       -1.85072164497823
H           11.37801135297700       -4.48428306012429       -0.01155961906644
H            9.62659287764372       -2.51195894559324       -0.08656455476221
C           33.88352373070228       -0.04147356135560        0.12982133620046
C           33.24005913140386       -1.22145760764510        0.54324208394498
C           33.83286574403208       -2.40045655448590        1.05514595899389
C           32.83478829817356       -3.33545534943755        1.27463343381733
C           31.58798161811963       -2.77428984870328        0.90118034973246
N           31.88235809442943       -1.48277199704209        0.49850927205384
C           30.30406592898952       -3.39954500489753        0.89289336519247
C           30.21673266974907       -4.89576240401392        1.11480353680517
C           29.87834874287658       -5.44050752326313        2.36205310942440
C           29.83898197429838       -6.81328462717788        2.56693971696479
C           30.11657139706749       -7.69323780893772        1.51468765506112
C           30.08611372889437       -9.10782876776498        1.71987008765596
N           30.06182966011649      -10.24786420729046        1.88083559293146
C           30.41992175215092       -7.16426700206288        0.25537667325928
C           30.46203393834729       -5.79004401124240        0.06355699962421
C           29.09510021863635       -2.73197193906191        0.65426841518947
C           27.78944060848813       -3.39082956199371        0.58583657595567
C           26.87585489758643       -2.43361979877846        0.32783758373269
N           28.92237759145962       -1.39129400648649        0.43229131950681
C           27.60821631327630       -1.17020947862936        0.24014314687616
C           26.97498040129858        0.08619925463425        0.03812421677617
C           27.66607748705901        1.35229007426275       -0.04701805688525
C           27.11406108327935        2.64142819284030        0.10068600547992
C           28.12012720648068        3.57929963535965       -0.10015614108362
C           29.32654873718416        2.90016244506524       -0.37924308446618
N           29.00794475210473        1.55251926341985       -0.30186622534159
C           30.60628059737342        3.46641598192365       -0.68817395498276
C           30.68298879739867        4.89450069464131       -1.18087178563640
C           31.05964597075333        5.95795412187845       -0.34801823836929
C           31.09048539804311        7.26608245424900       -0.81283830919070
C           30.76442378119059        7.55175843979477       -2.14352348409440
C           30.78754195448004        8.89732841374958       -2.62575000291116
N           30.80646419165596        9.98082638842511       -3.01542516058907
C           30.42065865721118        6.49634444792601       -2.99555735710325
C           30.38864281390158        5.19319336554964       -2.51890024574067
C           31.81258618078211        2.76107555100032       -0.58809613459356
C           33.13738958562689        3.31171925043969       -0.89776507291760
C           34.03446539638659        2.33703641531683       -0.65835404237127
C           33.27787235263029        1.16787280819110       -0.20800534331845
N           31.95366218348512        1.46766699131323       -0.18271557829455
H           34.97818309771349       -0.04343532733844        0.04508685541791
H           34.89169172263897       -2.51800008407295        1.24261431821003
H           32.96579745175154       -4.33146746911858        1.67182583500046
H           31.18745047751756       -0.80466288418807        0.21211431160534
H           29.65536135148599       -4.77111299536718        3.18558519690345
H           29.60030564495039       -7.20984639519015        3.55002335499015
H           30.63256647817650       -7.83463078554685       -0.57279508028956
H           30.69068841551499       -5.39466581976746       -0.92039131516651
H           27.58927763109682       -4.44279692881409        0.70252444852182
H           25.81472142569078       -2.58907006496603        0.20829908727966
H           26.08309009233309        2.84828500099726        0.35209777138123
H           28.02112432850737        4.65332854537359       -0.03174512716121
H           29.68877563364358        0.80785132026101       -0.37405040618697
H           31.31807849760915        5.75183734266973        0.68480598411846
H           31.36027242329748        8.07578402839699       -0.14035025286058
H           30.16778890948955        6.70104956943476       -4.03219574363752
H           30.13142863917431        4.38370651830414       -3.19370771152995
H           33.35377319605777        4.30430400570639       -1.25629864608347
H           35.10519537414982        2.38871930356578       -0.78066152228118
C           22.98756596994043        0.00262720210286        0.00421812063099
C           21.74265023733982       -0.01480624526975       -0.00612649971183
C           20.40040684528747       -0.02338378432695       -0.00903570013430
C           19.16347319226195       -0.05702091519393        0.02053007453876
C           24.33115936136538        0.01599923969270       -0.00185789395248
C           25.56750271865918        0.06329204954987        0.00190784443157
124
 energy: -214.810492126082 gnorm: 0.041860365270 xtb: 6.5.1 (b24c23e)
C           10.89098802136528        0.09032474240843        0.11747181672613
C           11.52076530300815        1.32952434494162        0.18204344240085
C           10.91737411882778        2.60870211968302        0.33123154329038
C           11.90246979363394        3.56137719743929        0.28014649691191
C           13.15581908275922        2.91369767314608        0.09071688425464
N           12.87392811231197        1.56397581682930        0.07299965595948
C           14.42028027134845        3.49595450597929       -0.08849277449503
C           14.49456080326668        4.99343650021483       -0.28067150450418