520
 energy: -897.809260329007 gnorm: 0.000509857623 xtb: 6.5.1 (b24c23e)
C          102.62021494656651        0.04345671437675        0.06985041298089
C          103.22515580879568        1.27643921143346        0.27646680323942
C          102.56936175593177        2.52457998170619        0.47078671079274
C          103.52875798372406        3.48297180780600        0.63786444997593
C          104.80196897481335        2.84924401194920        0.56059548055634
N          104.56792170249349        1.52278600090246        0.33439995908354
C          106.06352283152592        3.44625453914284        0.66307398556122
C          106.08729008710903        4.90510889417017        0.92476799366822
C          106.66492544895929        5.79461569098257        0.01950392859811
C          106.65697642864019        7.15060317771110        0.30577044939587
N          106.12422980948449        7.65396427857417        1.41464997610538
C          105.57459390660426        6.81279828447874        2.28452123098522
C          105.52903540471094        5.44207632944903        2.08435438926414
C          107.28252663479759        2.77547858439756        0.54134017522282
C          108.57769742117287        3.41098553637503        0.70605214613336
C          109.50257181635466        2.44531934489090        0.52787933040467
N          107.44262905307909        1.44786670111151        0.28481626332332
C          108.77134595876153        1.22085156438558        0.26396381651670
C          109.41311974342234       -0.01226078223758        0.03027205252953
C          108.78203062281619       -1.24921565593291       -0.20081323038705
C          109.43082906157913       -2.48415572126867       -0.46687647990635
C          108.46705104440981       -3.43817972126037       -0.64190174290382
C          107.19869188846056       -2.81539601890957       -0.47778098660833
N          107.44119887714875       -1.49222442701518       -0.21897665250464
C          105.93806682381181       -3.41153017136194       -0.58734987515567
C          105.91044717646957       -4.86578173190802       -0.86982040622550
C          106.47635281030952       -5.78851079674534        0.00941699891312
C          106.42407799448581       -7.13823831089511       -0.30126743116989
N          105.86090888707250       -7.60506058814183       -1.41093815438062
C          105.32060393087947       -6.73222448667361       -2.25538888627394
C          105.31807576582968       -5.36495747882651       -2.02953814578039
C          104.71841239323129       -2.74015042300600       -0.45200124326048
C          103.41705041198369       -3.38775763429240       -0.51270484755827
C          102.49904745153468       -2.41829888237862       -0.32666448506745
C          103.23830105685936       -1.18134259593725       -0.14443409770729
N          104.57173851091902       -1.41461089076378       -0.21863133915388
H          101.53490705779340        0.04725247661977        0.07754043754249
H          101.49947068120260        2.65900519475372        0.47368791734044
H          103.37438897250235        4.53848337129545        0.79256485758131
H          105.29511903521103        0.82457701543804        0.22079617767651
H          107.09984581030507        5.43067124793617       -0.90365988904064
H          107.09653347732380        7.86305829513811       -0.38614845250792
H          105.15102605625022        7.25340548820448        3.18235398656017
H          105.08154044430854        4.79366618463147        2.82829771964753
H          108.73561719300631        4.45119958618013        0.94025430707097
H          110.57683754286357        2.52579849317457        0.57336815793149
H          110.49954022676282       -2.61451062826820       -0.52266375441147
H          108.61806623534507       -4.47976303058231       -0.87390558593518
H          106.71681652383745       -0.79673696905056       -0.07326163855849
H          106.93467596055845       -5.45564074327761        0.93312801211627
H          106.85337503269720       -7.87578960028234        0.37056675834750
H          104.87019614789361       -7.14371136231074       -3.15395125524761
H          104.87675780102589       -4.68967493452313       -2.75281617302874
H          103.25405422216446       -4.44272217851859       -0.66350115244357
H          101.42381038788599       -2.50155872181211       -0.30262523306150
C          217.06685769164730       -0.05153212149816        0.04375034881493
C          216.46219596056343       -1.25623118966586       -0.29087651788245
C          217.11799643480666       -2.46801609559352       -0.64751689256480
C          216.15877683369615       -3.40899674632529       -0.89520247978806
C          214.88575625803210       -2.80509368503799       -0.68692555277200
N          215.11961397362398       -1.50649346897611       -0.33417428952240
C          213.62416918258938       -3.39401025219297       -0.82832510077376
C          213.59874689479631       -4.82716440364310       -1.20546130086014
C          212.99952978201219       -5.25217384107216       -2.39079423439367
C          213.00680725988317       -6.60167754886077       -2.70593797161532
N          213.55860024131587       -7.52504716228524       -1.92506299157864
C          214.12837223943322       -7.12912298231554       -0.79151965070018
C          214.17634875220159       -5.80242196322963       -0.39318398012482
C          212.40547535563474       -2.73758420192634       -0.64150843427236
C          211.11145110044455       -3.39032326407300       -0.72985725687870
C          210.18629855698325       -2.43905815729992       -0.48706490738292
N          212.24487523974869       -1.42128147785139       -0.33275033031412
C          210.91636562180699       -1.20956503259235       -0.24443706574250
C          210.27389230027973        0.01610430652278        0.02413972160405
C          210.90501087301800        1.24432012626668        0.29801737973100
C          210.25697355570594        2.48350249535170        0.54522473262656
C          211.22077318780296        3.42302177256565        0.78660206837095
C          212.48815877655417        2.78259851948634        0.70263782497697
N          212.24548065563255        1.46983711626782        0.39581426351253
C          213.74839400688830        3.36586569911702        0.87117859043544
C          213.77520368133759        4.80417050499541        1.22570529185944
C          213.18898700384631        5.27292618344388        2.40112073378018
C          213.24266840763613        6.62738416219179        2.68996174839142
N          213.82571875277347        7.51583158313581        1.89171166484880
C          214.38487342679574        7.07794224231583        0.76812434368206
C          214.38777165071232        5.74299293816575        0.39605760740409
C          214.96798201920339        2.69522197262366        0.73162851782128
C          216.26848109831349        3.30468184592303        0.96378432691961
C          217.18669623170243        2.34555428459576        0.73103735603262
C          216.44829247313501        1.14897969676668        0.36674042500937
N          215.11511942348977        1.39423618835160        0.38676267355297
H          218.15215928782678       -0.05809367155393        0.04987133130107
H          218.18772988543952       -2.58883916347215       -0.70928245879681
H          216.31321580097108       -4.43038806968931       -1.20303918279078
H          214.39243410473350       -0.82712656849969       -0.13700733623911
H          212.54850390343111       -4.53325018033147       -3.06428853180068
H          212.55078453670328       -6.95585179403900       -3.62581362913853
H          214.56695390219880       -7.90678909326657       -0.17304356491428
H          214.64052771961167       -5.52844859048272        0.54681235263813
H          210.95474579897001       -4.43682972572970       -0.93509428815612
H          209.11264586032200       -2.53528488885902       -0.46253219057286
H          209.18878155724445        2.62869585617416        0.53291786464502
H          211.07065118526165        4.46959133915283        0.99565860282692
H          212.96936602209010        0.77216751821034        0.25833972974805
H          212.71402623453281        4.58373395685806        3.08927028011916
H          212.79813940375175        7.01479285239624        3.60207602433496
H          214.85109973805859        7.82781326352362        0.13572604969112
H          214.84513477533903        5.43375821912083       -0.53618678792183
H          216.43084419832505        4.32406967100999        1.27480984302693
H          218.26147631486995        2.40856072132028        0.79829003969190
C          112.04155175146491       -0.03585419849940        0.01644579427798
C          110.81939448814441       -0.02287965899059        0.02474607981041
C          113.39089560252549       -0.04349168366432        0.00876750569444
C          114.61323939746516       -0.04643392928642        0.00188980244729
C          125.50810038795336       -0.03030083755264       -0.03041413907440
C          124.28531608868920       -0.03929163098254       -0.02902177416314
C          126.85645406508054       -0.02564999883540       -0.02889502024272
C          128.07922460411325       -0.01771779974699       -0.02878067720041
C          138.97283964265981       -0.00763207338428       -0.01424639580317
C          137.75002990124352       -0.01611233538596       -0.01360102055127
C          140.32114586660819       -0.00475670282358       -0.01370852840750
C          141.54397165327663        0.00261569136608       -0.01612246328906
C          152.43739597082720       -0.00346691084330       -0.00790086903174
C          151.21458037365139       -0.00822072146303       -0.00698051128637
C          153.78569156071381       -0.00334217941773       -0.00813376491160
C          155.00855398069970        0.00152875460505       -0.00960007140303
C          165.90171613123573       -0.00394106939235       -0.00550954235612
C          164.67888575809042       -0.01168760397392       -0.00578103082077
C          167.25001254829294       -0.00174805478548       -0.00609104846807
C          168.47284236775599        0.00483524565496       -0.00636252036765
C          179.36656012211751       -0.00279040294635       -0.01045908557558
C          178.14373116175847       -0.00961767997215       -0.00861234766491
C          180.71487212215976       -0.00096942097279       -0.01181834116800
C          181.93770409531106        0.00698775714523       -0.01332567910966
C          192.83159887060640        0.01699419751963       -0.02704552652823
C          191.60879567971190        0.00916838755861       -0.02537872801600
C          194.17993132857259        0.02180842610444       -0.02557881127624
C          195.40270945206547        0.03016176940486       -0.03018283794331
C          206.29623278018371        0.04268613862544        0.00931104017206
C          205.07382111540662        0.04166490983329        0.00382943925456
C          207.64551324084852        0.03744711951771        0.01540111936419
C          208.86777473689588        0.02714013635759        0.02012200665973
C          116.01861923546106       -0.04771399495525       -0.00490072978599
C          116.64521586779601       -1.28820620516759        0.22212045545434
C          115.99627640551289       -2.52204155049255        0.48572774229417
C          116.96104356414934       -3.47822401235581        0.65017698609034
C          118.22784482101429       -2.85595061414694        0.48170778074829
N          117.98620992868520       -1.53164034612263        0.23207481438720
C          119.48828722484025       -3.45898023581539        0.57502859866727
C          119.50205934771827       -4.91761015887638        0.84199587830622
C          120.08325918029713       -5.43386049347521        1.99965510725686
C          120.06777991623332       -6.80345834797223        2.21078683382100
N          119.52460415027201       -7.66229316384706        1.35400902340012
C          118.97170933913786       -7.17892319996129        0.24635343166313
C          118.93300931941090       -5.82547665855807       -0.05026968126827
C          120.71412063332015       -2.80581055471112        0.44114820258850
C          121.99931564596640       -3.48018416609026        0.48623217088558
C          122.93779220527276       -2.52596764089058        0.31699650437847
N          120.89296058396248       -1.47225019229431        0.23025925975069
C          122.22435099797629       -1.27359303805805        0.16135444956781
C          122.88098444011196       -0.04057061508875       -0.02797797565657
C          122.25407383057589        1.20635448510921       -0.21803364906833
C          122.90303514047773        2.45691990020330       -0.38543568867162
C          121.93807643096278        3.41312210551678       -0.54803661126320
C          120.67117472595974        2.77090466913467       -0.49275641711461
N          120.91312894092441        1.43946198333574       -0.28359886315762
C          119.41119251832704        3.37115854466773       -0.60290589692957
C          119.39921761637471        4.83266857134647       -0.85411553313145
C          118.83006190347659        5.71995635828106        0.05848303819841
C          118.84753137554443        7.07780031131444       -0.21875546447906
N          119.38124319704954        7.58440292859706       -1.32560107327323
C          119.92285644942632        6.74522274316919       -2.20235248871294
C          119.95900916533898        5.37288676566581       -2.01132585203589
C          118.18484999780725        2.71313132438073       -0.49855343833705
C          116.89916700216524        3.36570931599041       -0.67061898920154
C          115.96063553597911        2.41170834451672       -0.50106275522055
C          116.67443591486328        1.17808248754945       -0.23569968783537
N          118.00653090535022        1.38672270919910       -0.24811168661594
H          114.92777796452165       -2.65142836416180        0.54684554015704
H          116.81015172574368       -4.52084328646459        0.87736933762594
H          118.70733901080773       -0.83317054241847        0.08580038938391
H          120.52723848087000       -4.77000729347268        2.73179412066390
H          120.50993573910385       -7.22847004170398        3.10711016626076
H          118.53952394493592       -7.90546280115190       -0.43551016902942
H          118.48209075594562       -5.47857974207131       -0.97244542200706
H          122.14177602657256       -4.54076963639423        0.61537613043739
H          124.01032293917409       -2.63350517600967        0.28907180785859
H          123.97161699778373        2.59886661164884       -0.37576937610522
H          122.08860138713375        4.47145456834152       -0.68484889363084
H          120.19216296997328        0.73245566364779       -0.18553755905793
H          118.39395378952150        5.35280382232920        0.97980161193635
H          118.41482247362549        7.78881998333553        0.47890151031090
H          120.34761947524734        7.18870111543918       -3.09816427091422
H          120.40090111801321        4.72596955499633       -2.75986860778196
H          116.75636315841662        4.40852688630314       -0.90280132606015
H          114.88780136829286        2.50563311554100       -0.55345546241286
C          129.48350885408396       -0.01772439377983       -0.02543734203269
C          130.10844984769653       -1.25007227607790        0.24860174045075
C          129.45754746518799       -2.47422968477529        0.54928135819977
C          130.42082300643438       -3.42726124350056        0.73924410882836
C          131.68837598443943       -2.81268102206767        0.55020807937291
N          131.44885912447637       -1.49502217977002        0.26525783478479
C          132.94761242301118       -3.41695730119075        0.65142541244853
C          132.95763050739922       -4.87044209212217        0.94486881687774
C          133.54370197539143       -5.36923032411769        2.10764830433120
C          133.52326281454771       -6.73496341754231        2.34240550486325
N          132.97097765520098       -7.60590678164834        1.50392173397998
C          132.41333773081163       -7.13924172959769        0.39147386648834
C          132.37892624785084       -5.79097509778786        0.07188130023212
C          134.17454086165441       -2.76967066030276        0.50014059509674
C          135.45840442467059       -3.44581854339792        0.55363364809303
C          136.39848659538572       -2.49637420858907        0.36703394516190
N          134.35559203518011       -1.44025194945510        0.26597855212792
C          135.68727187137341       -1.24533235629629        0.19205036760334
C          136.34579953081692       -0.01608998791125       -0.01477565744382
C          135.72063915941268        1.22867033999061       -0.22481735068248
C          136.37133411914388        2.47662607954131       -0.40365503842416
C          135.40806419560349        3.43054616113795       -0.58885339754030
C          134.14071808105271        2.78912487410656       -0.53740191504464
N          134.38038709795097        1.46103987521414       -0.30555733723222
C          132.88171610115663        3.38637271124894       -0.67494537413051
C          132.87189647196152        4.84332209657642       -0.95064234844827
C          132.28289326877902        5.74346763523262       -0.06346366599576
C          132.30383843454891        7.09694764284050       -0.36088516217338
N          132.85925353989066        7.58767467079551       -1.46419769131303
C          133.41967665846553        6.73622258894696       -2.31698008546968
C          133.45387745497490        5.36698397902174       -2.10454635387283
C          131.65474526663562        2.72898413975361       -0.57551823117519
C          130.37115516419635        3.37494761855303       -0.78369647111196
C          129.43110586122305        2.42436808064401       -0.60266473909831
C          130.14212244561642        1.19964156441718       -0.29291662618662
N          131.47377292805385        1.40895132589311       -0.29361937491810
H          128.38895975076406       -2.59995522300733        0.61568831846597
H          130.26827967938806       -4.46261487468012        0.99650777965449
H          132.17110015875303       -0.80265758976383        0.09715776864481
H          133.99497126342447       -4.69493850447933        2.82564643663071
H          133.96889413692105       -7.14654700526902        3.24325563398535
H          131.97354617294371       -7.87539447949149       -0.27503061411674
H          131.92371064104000       -5.45777938796795       -0.85323343482663
H          135.59886987690427       -4.50443723898437        0.69994447844282
H          137.47075532181972       -2.60645008660224        0.33900660947000
H          137.43978212264707        2.61875681924468       -0.38577445128172
H          135.56036187993149        4.48682201484365       -0.73887229613441
H          133.65827820714918        0.75572172540951       -0.20384225943546
H          131.82898327312733        5.38952684847324        0.85442683648518
H          131.85596092524378        7.81764841028611        0.31698525084988
H          133.86199773255407        7.16689096252740       -3.21053635333020
H          133.91148644362778        4.70969315785271       -2.83436987416684
H          130.23080490375946        4.41093079534821       -1.04609400192560
H          128.35898374457804        2.51520286166747       -0.67307356341583
C          142.94820429632668        0.00103153598215       -0.01509785403661
C          143.57191300127212       -1.23156956170409        0.26079921882571
C          142.91974435190596       -2.45421099271869        0.56490955390581
C          143.88193419440708       -3.40846787330953        0.75413074779577
C          145.15002452941951       -2.79615205694829        0.56134651791806
N          144.91195781870709       -1.47847287977935        0.27525360894927
C          146.40840021112834       -3.40259747148586        0.65984476982594
C          146.41653931140058       -4.85622523939397        0.95242410607194
C          147.00511415826296       -5.35715778720215        2.11300492902575
C          146.98266202116875       -6.72306993290662        2.34661265431836
N          146.42614781116453       -7.59218207531315        1.50903385117586
C          145.86607440580428       -7.12346948159140        0.39867461916023
C          145.83338390195885       -5.77486462936948        0.08037876727986
C          147.63605346508581       -2.75722371595569        0.50617931792921
C          148.91898863412163       -3.43529576338238        0.55660698525428
C          149.86012312837624       -2.48691672619723        0.36984142879485
N          147.81856238511924       -1.42782411155850        0.27310842299974
C          149.15040323575138       -1.23466334078813        0.19750265882434
C          149.81036533875798       -0.00597151976715       -0.00815701425100
C          149.18672190984867        1.23973911034938       -0.21699815613628
C          149.83885254656366        2.48713235930223       -0.39433778177142
C          148.87671238140925        3.44224820541186       -0.57939071720065
C          147.60863927485397        2.80214567388724       -0.52942060154690
N          147.84674363702592        1.47365401678498       -0.29840475089406
C          146.35026039472419        3.40063539636960       -0.66807915719104
C          146.34169035415067        4.85773301660589       -0.94279764284428
C          145.74954989708280        5.75709848239260       -0.05684256314231
C          145.77109429958765        7.11080243794713       -0.35306734705050
N          146.33016311202545        7.60259164746252       -1.45407974140943
C          146.89376627653309        6.75198192862091       -2.30558084039099
C          146.92750057534818        5.38254013584423       -2.09424219101102
C          145.12259647826880        2.74430718859006       -0.56993064748288
C          143.83975980747778        3.39118875248418       -0.78007604338103
C          142.89861241763148        2.44188439639234       -0.59804211718755
C          143.60818494506705        1.21696807178673       -0.28581313041662
N          144.94004382306736        1.42478435234993       -0.28648318637226
H          141.85110914591053       -2.57813076337486        0.63383142369529
H          143.72843666633921       -4.44318431474501        1.01336945521441
H          145.63485307632749       -0.78742355467814        0.10457930615625
H          147.45983772603310       -4.68441067471965        2.83027255633878
H          147.43018752057517       -7.13633868015026        3.24574915235484
H          145.42283316738110       -7.85814049027060       -0.26717654018805
H          145.37607193771041       -5.43989655797340       -0.84305747273408
H          149.05818703898208       -4.49432326949229        0.70117887805882
H          150.93217969915969       -2.59853358359588        0.33991071113239
H          150.90744556754080        2.62808899075780       -0.37564446968060
H          149.03030916793404        4.49848299408469       -0.72833411959638
H          147.12381680111736        0.76907352604506       -0.19740441306771
H          145.29268699052514        5.40230684875041        0.85925590509696
H          145.32062925940104        7.83083063097933        0.32380278076419
H          147.33911462931411        7.18348979930041       -3.19722286198980
H          147.38760014177862        4.72603788951724       -2.82321123995220
H          143.70055447861105        4.42680924934117       -1.04449505509807
H          141.82663062663400        2.53372176515354       -0.66931805877048
C          156.41277493037455       -0.00118229705061       -0.00987201622390
C          157.03616949748502       -1.23396124825447        0.26579097817569
C          156.38379575756088       -2.45631459975976        0.57067868824304
C          157.34579884890934       -3.41079868723843        0.75972348969105
C          158.61399694893572       -2.79898604411995        0.56592707831805
N          158.37613755776070       -1.48132521732224        0.27942127762890
C          159.87229789867925       -3.40567695303789        0.66375989108922
C          159.88048478726841       -4.85910326744921        0.95732390925846
C          160.47062814743128       -5.35932085518391        2.11742920179805
C          160.44837511579919       -6.72506556567820        2.35201565857939
N          159.89060601848740       -7.59470093283254        1.51582211904955
C          159.32900498553789       -7.12668929187227        0.40593821004365
C          159.29598945012515       -5.77830052850968        0.08675865369585
C          161.10002275798050       -2.76060350621704        0.50884129456371
C          162.38284545830754       -3.43898010860307        0.55846198054968
C          163.32409282493424       -2.49083667936556        0.37100732179233
N          161.28269596122789       -1.43130973579461        0.27553338953725
C          162.61458738677189       -1.23841150717212        0.19927325458983
C          163.27466186635704       -0.00981541396069       -0.00629844144183
C          162.65115525775101        1.23602321337741       -0.21500891545309
C          163.30353069741130        2.48323191416421       -0.39267175223529
C          162.34155544744340        3.43858298751289       -0.57741962312001
C          161.07339673859192        2.79875126209656       -0.52708003741991
N          161.31121478292872        1.47022839885279       -0.29608152446923
C          159.81512049038270        3.39759194513167       -0.66530307285616
C          159.80698281520216        4.85453927470922       -0.94080389098382
C          159.21623896230489        5.75489044325515       -0.05495744784639
C          159.23844453362241        7.10838110839649       -0.35220358883946
N          159.79680519582863        7.59898790603771       -1.45408243273548
C          160.35905496652038        6.74739466944190       -2.30551714358591
C          160.39208373015089        5.37811066814696       -2.09318433797720
C          158.58742354898342        2.74159001415556       -0.56638823817710
C          157.30461158744478        3.38868094293979       -0.77596804537997
C          156.36340978286395        2.43956919095617       -0.59331692360393
C          157.07294865266707        1.21455697970734       -0.28122600630808
N          158.40479429944554        1.42209699701008       -0.28269723479463
H          155.31515278340672       -2.57988094921497        0.64022742570506
H          157.19206334914674       -4.44535198129900        1.01948739017352
H          159.09918745014051       -0.79055671493344        0.10826617164575
H          160.92644811154366       -4.68615172992769        2.83360219771788
H          160.89714139673490       -7.13775829189034        3.25079606428859
H          158.88475028729809       -7.86178951249531       -0.25875617189590
H          158.83745161085412       -5.44393493108850       -0.83629165619708
H          162.52188252833000       -4.49803692858157        0.70295502653423
H          164.39610838421515       -2.60265069194308        0.34037001020852
H          164.37215015766532        2.62399007770657       -0.37428154288251
H          162.49533133955580        4.49478782197697       -0.72639485771956
H          160.58813275533873        0.76582159480171       -0.19496641317058
H          158.75997526806850        5.40108484287455        0.86181824621967
H          158.78913333457336        7.82920615140573        0.32458704647661
H          160.80381934123565        7.17797042515454       -3.19789972893917
H          160.85110057201578        4.72069796294914       -2.82201288412692
H          157.16550290999692        4.42431539176856       -1.04038553509633
H          155.29141323002972        2.53158039673789       -0.66409611458549
C          169.87705923290622        0.00229022269246       -0.00772251478513
C          170.50054073058217       -1.23056489054182        0.26741377548733
C          169.84824542140026       -2.45292593198638        0.57245090308332
C          170.81027803074986       -3.40752210293746        0.76066290202826
C          172.07842754569558       -2.79578274426083        0.56622873144355
N          171.84048778064647       -1.47802033740602        0.28019110231724
C          173.33671199700265       -3.40257998397753        0.66317315681963
C          173.34501341833752       -4.85589956867310        0.95714918560051
C          173.93682452375202       -5.35558363471857        2.11665759163320
C          173.91476298422535       -6.72117581141881        2.35205217575428
N          173.35553504212928       -7.59119828558351        1.51721872805440
C          172.79231618652341       -7.12370990979071        0.40793961362166
C          172.75908161538840       -5.77549859621369        0.08798518577223
C          174.56447592710785       -2.75770099110790        0.50736706000766
C          175.84714445736083       -3.43644652968155        0.55573809926630
C          176.78851382366304       -2.48851385630754        0.36780056163364
N          174.74731408854166       -1.42843202693134        0.27417247920353
C          176.07923108383454       -1.23587374248396        0.19689211197677
C          176.73949537598955       -0.00743396430441       -0.00893049467863
C          176.11597948935579        1.23854131520266       -0.21680121877612
C          176.76825819495281        2.48574116738284       -0.39471005386949
C          175.80616868627200        3.44110552279347       -0.57883736910959
C          174.53802633669684        2.80129936487648       -0.52766527170419
N          174.77596393571730        1.47279345149980       -0.29685995653276
C          173.27971953003106        3.40029915925275       -0.66521851148596