      -----------------------------------------------------------      
     |                   =====================                   |     
     |                           x T B                           |     
     |                   =====================                   |     
     |                         S. Grimme                         |     
     |          Mulliken Center for Theoretical Chemistry        |     
     |                    University of Bonn                     |     
      -----------------------------------------------------------      

   * xtb version 6.5.1 (b24c23e) compiled by 'conda@728c89f4b128' on 2022-07-12

   xtb is free software: you can redistribute it and/or modify it under
   the terms of the GNU Lesser General Public License as published by
   the Free Software Foundation, either version 3 of the License, or
   (at your option) any later version.
   
   xtb is distributed in the hope that it will be useful,
   but WITHOUT ANY WARRANTY; without even the implied warranty of
   MERCHANTABILITY or FITNESS FOR A PARTICULAR PURPOSE.  See the
   GNU Lesser General Public License for more details.
   
   Cite this work as:
   * C. Bannwarth, E. Caldeweyher, S. Ehlert, A. Hansen, P. Pracht,
     J. Seibert, S. Spicher, S. Grimme, WIREs Comput. Mol. Sci., 2020, 11,
     e01493. DOI: 10.1002/wcms.1493
   
   for GFN2-xTB:
   * C. Bannwarth, S. Ehlert and S. Grimme., J. Chem. Theory Comput., 2019,
     15, 1652-1671. DOI: 10.1021/acs.jctc.8b01176
   for GFN1-xTB:
   * S. Grimme, C. Bannwarth, P. Shushkov, J. Chem. Theory Comput., 2017,
     13, 1989-2009. DOI: 10.1021/acs.jctc.7b00118
   for GFN0-xTB:
   * P. Pracht, E. Caldeweyher, S. Ehlert, S. Grimme, ChemRxiv, 2019, preprint.
     DOI: 10.26434/chemrxiv.8326202.v1
   for GFN-FF:
   * S. Spicher and S. Grimme, Angew. Chem. Int. Ed., 2020, 59, 15665-15673.
     DOI: 10.1002/anie.202004239
   
   for ALPB and GBSA implicit solvation:
   * S. Ehlert, M. Stahn, S. Spicher, S. Grimme, J. Chem. Theory Comput.,
     2021, 17, 4250-4261. DOI: 10.1021/acs.jctc.1c00471
   
   for DFT-D4:
   * E. Caldeweyher, C. Bannwarth and S. Grimme, J. Chem. Phys., 2017,
     147, 034112. DOI: 10.1063/1.4993215
   * E. Caldeweyher, S. Ehlert, A. Hansen, H. Neugebauer, S. Spicher,
     C. Bannwarth and S. Grimme, J. Chem. Phys., 2019, 150, 154122.
     DOI: 10.1063/1.5090222
   * E. Caldeweyher, J.-M. Mewes, S. Ehlert and S. Grimme, Phys. Chem. Chem. Phys.
     2020, 22, 8499-8512. DOI: 10.1039/D0CP00502A
   
   for sTDA-xTB:
   * S. Grimme and C. Bannwarth, J. Chem. Phys., 2016, 145, 054103.
     DOI: 10.1063/1.4959605
   
   in the mass-spec context:
   * V. Asgeirsson, C. Bauer and S. Grimme, Chem. Sci., 2017, 8, 4879.
     DOI: 10.1039/c7sc00601b
   * J. Koopman and S. Grimme, ACS Omega 2019, 4, 12, 15120-15133.
     DOI: 10.1021/acsomega.9b02011
   
   for metadynamics refer to:
   * S. Grimme, J. Chem. Theory Comput., 2019, 155, 2847-2862
     DOI: 10.1021/acs.jctc.9b00143
   
   for SPH calculations refer to:
   * S. Spicher and S. Grimme, J. Chem. Theory Comput., 2021, 17, 1701-1714
     DOI: 10.1021/acs.jctc.0c01306
   
   with help from (in alphabetical order)
   P. Atkinson, C. Bannwarth, F. Bohle, G. Brandenburg, E. Caldeweyher
   M. Checinski, S. Dohm, S. Ehlert, S. Ehrlich, I. Gerasimov, C. Hölzer
   A. Katbashev, J. Koopman, C. Lavigne, S. Lehtola, F. März, M. Müller,
   F. Musil, H. Neugebauer, J. Pisarek, C. Plett, P. Pracht, F. Pultar,
   J. Seibert, P. Shushkov, S. Spicher, M. Stahn, M. Steiner, T. Strunk,
   J. Stückrath, T. Rose, and J. Unsleber
   
 * started run on 2022/07/30 at 10:11:45.126     

           -------------------------------------------------
          |                Calculation Setup                |
           -------------------------------------------------

          program call               : xtb xtbopt.xyz --gfn 1 --vipea
          hostname                   : cx3-5-14.cx3.hpc.ic.ac.uk
          coordinate file            : xtbopt.xyz
          omp threads                :                     1

   ID    Z sym.   atoms
    1    6 C      1-5, 7-12, 14-18, 20-25, 27-32, 34-39, 62-66, 68-73, 75-79,
                  81-86, 88-93, 95-100, 123-163, 165-170, 172-176, 178-183,
                  185-190, 192-197, 219-223, 225-230, 232-236, 238-243,
                  245-250, 252-257, 279-283, 285-290, 292-296, 298-303,
                  305-310, 312-317, 339-343, 345-350, 352-356, 358-363,
                  365-370, 372-377, 399-403, 405-410, 412-416, 418-423,
                  425-430, 432-437, 459-463, 465-470, 472-476, 478-483,
                  485-490, 492-497, 519-523, 525-530, 532-536, 538-543,
                  545-550, 552-557, 579-583, 585-590, 592-596, 598-603,
                  605-610, 612-617
    2    7 N      6, 19, 26, 40, 67, 80, 87, 101, 164, 177, 184, 198, 224,
                  237, 244, 258, 284, 297, 304, 318, 344, 357, 364, 378, 404,
                  417, 424, 438, 464, 477, 484, 498, 524, 537, 544, 558, 584,
                  597, 604, 618
    3    8 O      13, 33, 74, 94, 171, 191, 231, 251, 291, 311, 351, 371,
                  411, 431, 471, 491, 531, 551, 591, 611
    4    1 H      41-61, 102-122, 199-218, 259-278, 319-338, 379-398,
                  439-458, 499-518, 559-578, 619-638

           -------------------------------------------------
          |                 I P E A - x T B                 |
           -------------------------------------------------

        Reference                      10.1039/c7sc00601b
      * Hamiltonian:
        H0-scaling (s, p, d)           2.150000    2.300000    2.000000
        zeta-weighting                 0.000000
      * Dispersion:
        s8                             2.400000
        a1                             0.630000
        a2                             5.000000
        s9                             0.000000
      * Repulsion:
        kExp                           1.500000
        rExp                           1.000000
      * Coulomb:
        alpha                          1.000000
        third order                    atomic
        anisotropic                    false
      * Halogen bond correction:
        rad-scale                      1.300000
        damping                        0.440000


          ...................................................
          :                      SETUP                      :
          :.................................................:
          :  # basis functions                2584          :
          :  # atomic orbitals                2584          :
          :  # shells                         1712          :
          :  # electrons                      2026          :
          :  # halogen bonds                     0          :
          :  max. iterations                   250          :
          :  Hamiltonian                  GFN1-xTB          :
          :  restarted?                      false          :
          :  GBSA solvation                  false          :
          :  PC potential                    false          :
          :  electronic temp.          300.0000000     K    :
          :  accuracy                    1.0000000          :
          :  -> integral cutoff          0.2500000E+02      :
          :  -> integral neglect         0.1000000E-07      :
          :  -> SCF convergence          0.1000000E-05 Eh   :
          :  -> wf. convergence          0.2000000E-04 e    :
          :  Broyden damping             0.4000000          :
          ...................................................

 iter      E             dE          RMSdq      gap      omega  full diag
   1  -1285.2942441 -0.128529E+04  0.101E+01    0.48       0.0  T
   2  -1286.4745935 -0.118035E+01  0.627E+00    1.08       1.0  T
   3  -1265.2593857  0.212152E+02  0.478E+00    0.06       1.0  T
   4  -1289.9704606 -0.247111E+02  0.941E-01    0.97       1.0  T
   5  -1291.2550003 -0.128454E+01  0.265E-01    0.82       1.0  T
   6  -1291.3467395 -0.917392E-01  0.110E-01    0.87       1.0  T
   7  -1291.3599480 -0.132085E-01  0.470E-02    0.86       1.0  T
   8  -1291.3613588 -0.141082E-02  0.322E-02    0.86       1.0  T
   9  -1291.3618279 -0.469016E-03  0.211E-02    0.86       1.0  T
  10  -1291.3622892 -0.461397E-03  0.397E-03    0.86       1.0  T
  11  -1291.3623026 -0.133326E-04  0.183E-03    0.86       2.2  T
  12  -1291.3623055 -0.288535E-05  0.928E-04    0.86       4.3  T
  13  -1291.3623063 -0.822665E-06  0.442E-04    0.86       9.0  T
  14  -1291.3623065 -0.185709E-06  0.191E-04    0.86      20.7  T
  15  -1291.3623065 -0.316559E-07  0.856E-05    0.86      46.2  T

   *** convergence criteria satisfied after 15 iterations ***

         #    Occupation            Energy/Eh            Energy/eV
      -------------------------------------------------------------
         1        2.0000           -1.0557219             -28.7277
       ...           ...                  ...                  ...
      1007        2.0000           -0.3883037             -10.5663
      1008        2.0000           -0.3852015             -10.4819
      1009        2.0000           -0.3825765             -10.4104
      1010        2.0000           -0.3797268             -10.3329
      1011        2.0000           -0.3763304             -10.2405
      1012        2.0000           -0.3731553             -10.1541
      1013        2.0000           -0.3711103             -10.0984 (HOMO)
      1014        0.0000           -0.3396144              -9.2414 (LUMO)
      1015                         -0.3367056              -9.1622
      1016                         -0.3329796              -9.0608
      1017                         -0.3288564              -8.9486
      1018                         -0.3248459              -8.8395
       ...                                ...                  ...
      2584                        570.1835959           15515.4854
      -------------------------------------------------------------
                  HL-Gap            0.0314959 Eh            0.8570 eV
             Fermi-level           -0.3553305 Eh           -9.6690 eV

 SCC (total)                   0 d,  0 h,  1 min, 16.419 sec
 SCC setup                      ...        0 min,  0.043 sec (  0.056%)
 Dispersion                     ...        0 min,  0.043 sec (  0.057%)
 classical contributions        ...        0 min,  0.010 sec (  0.013%)
 integral evaluation            ...        0 min,  2.612 sec (  3.418%)
 iterations                     ...        1 min,  8.519 sec ( 89.662%)
 molecular gradient             ...        0 min,  4.377 sec (  5.728%)
 printout                       ...        0 min,  0.815 sec (  1.066%)

         :::::::::::::::::::::::::::::::::::::::::::::::::::::
         ::                     SUMMARY                     ::
         :::::::::::::::::::::::::::::::::::::::::::::::::::::
         :: total energy           -1265.794560375063 Eh    ::
         :: gradient norm              0.133681555751 Eh/a0 ::
         :: HOMO-LUMO gap              0.857045971335 eV    ::
         ::.................................................::
         :: SCC energy             -1291.362306507014 Eh    ::
         :: -> electrostatic           0.930050973921 Eh    ::
         :: repulsion energy          26.124560920969 Eh    ::
         :: dispersion energy         -0.556814789018 Eh    ::
         :: halogen bond corr.         0.000000000000 Eh    ::
         :: add. restraining           0.000000000000 Eh    ::
         :: total charge               0.000000000011 e     ::
         :::::::::::::::::::::::::::::::::::::::::::::::::::::

           ------------------------------------------------- 
          |        vertical delta SCC IP calculation        |
           ------------------------------------------------- 
   1  -1290.9746285 -0.129097E+04  0.353E-02    0.86       0.0  T
   2  -1290.9700190  0.460942E-02  0.444E-02    0.80       1.0  T
   3  -1290.9751525 -0.513346E-02  0.272E-02    0.84       1.0  T
   4  -1290.9765697 -0.141720E-02  0.212E-02    0.85       1.0  T
   5  -1290.9781783 -0.160858E-02  0.121E-02    0.85       1.0  T
   6  -1290.9785116 -0.333296E-03  0.580E-03    0.85       1.0  T
   7  -1290.9785491 -0.375523E-04  0.355E-03    0.85       1.1  T
   8  -1290.9785766 -0.275118E-04  0.148E-03    0.85       2.7  T
   9  -1290.9785807 -0.405269E-05  0.777E-04    0.85       5.1  T
  10  -1290.9785816 -0.898480E-06  0.338E-04    0.85      11.7  T
  11  -1290.9785818 -0.166718E-06  0.125E-04    0.85      31.5  T
  12  -1290.9785818 -0.157313E-07  0.617E-05    0.85      64.2  T
     SCC iter.                  ...        0 min, 54.708 sec
     gradient                   ...        0 min,  4.373 sec
------------------------------------------------------------------------
empirical IP shift (eV):    4.8455
delta SCC IP (eV):    5.5962
------------------------------------------------------------------------
           ------------------------------------------------- 
          |        vertical delta SCC EA calculation        |
           ------------------------------------------------- 
   1  -1291.6764228 -0.129168E+04  0.604E-02    0.08       0.0  T
   2  -1291.6799333 -0.351054E-02  0.564E-02    0.02       1.0  T
   3  -1291.6855049 -0.557160E-02  0.335E-02    0.07       1.0  T
   4  -1291.6853385  0.166490E-03  0.287E-02    0.05       1.0  T
   5  -1291.6834558  0.188271E-02  0.282E-02    0.07       1.0  T
   6  -1291.6866145 -0.315872E-02  0.174E-02    0.06       1.0  T
   7  -1291.6880294 -0.141495E-02  0.535E-03    0.04       1.0  T
   8  -1291.6880666 -0.371354E-04  0.232E-03    0.04       1.7  T
   9  -1291.6880722 -0.559154E-05  0.151E-03    0.04       2.6  T
  10  -1291.6880750 -0.283505E-05  0.594E-04    0.04       6.7  T
  11  -1291.6880754 -0.401417E-06  0.298E-04    0.04      13.3  T
  12  -1291.6880755 -0.115534E-06  0.110E-04    0.04      36.0  T
  13  -1291.6880755 -0.130062E-07  0.543E-05    0.04      72.9  T
     SCC iter.                  ...        0 min, 59.245 sec
     gradient                   ...        0 min,  4.374 sec
------------------------------------------------------------------------
empirical EA shift (eV):    4.8455
delta SCC EA (eV):    4.0191
------------------------------------------------------------------------
           -------------------------------------------------
          |                Property Printout                |
           -------------------------------------------------

    * Orbital Energies and Occupations

         #    Occupation            Energy/Eh            Energy/eV
      -------------------------------------------------------------
         1        2.0000           -1.0344581             -28.1490
       ...           ...                  ...                  ...
      1002        2.0000           -0.3747339             -10.1970
      1003        2.0000           -0.3747168             -10.1966
      1004        2.0000           -0.3710198             -10.0960
      1005        2.0000           -0.3697891             -10.0625
      1006        2.0000           -0.3675525             -10.0016
      1007        2.0000           -0.3651519              -9.9363
      1008        2.0000           -0.3622999              -9.8587
      1009        2.0000           -0.3585888              -9.7577
      1010        2.0000           -0.3544317              -9.6446
      1011        2.0000           -0.3502429              -9.5306
      1012        2.0000           -0.3462959              -9.4232
      1013        2.0000           -0.3432544              -9.3404
      1014        0.6874           -0.3116267              -8.4798 (HOMO)
      1015        0.2933           -0.3100426              -8.4367 (LUMO)
      1016        0.0186           -0.3071114              -8.3569
      1017        0.0007           -0.3039124              -8.2699
      1018        0.0001           -0.3017001              -8.2097
      1019        0.0000           -0.3003172              -8.1720
      1020        0.0000           -0.2991076              -8.1391
      1021        0.0000           -0.2974931              -8.0952
      1022        0.0000           -0.2957516              -8.0478
      1023                         -0.2951448              -8.0313
      1024                         -0.2939756              -7.9995
      1025                         -0.2929549              -7.9717
       ...                                ...                  ...
      2584                        570.2095617           15516.1919
      -------------------------------------------------------------
                  HL-Gap            0.0015841 Eh            0.0431 eV
             Fermi-level           -0.3191926 Eh           -8.6857 eV

  Mulliken/CM5 charges         n(s)   n(p)   n(d)
     1C    -0.01856 -0.05940   1.090  2.928  0.000
     2C     0.06381  0.12421   1.105  2.831  0.000
     3C    -0.03201 -0.07734   1.082  2.950  0.000
     4C    -0.03106 -0.07606   1.076  2.955  0.000
     5C     0.06481  0.12881   1.102  2.833  0.000
     6N    -0.15708 -0.51009   1.311  3.846  0.000
     7C     0.01004  0.01579   1.091  2.899  0.000
     8C     0.01552  0.00691   1.094  2.891  0.000
     9C    -0.01678 -0.07003   1.080  2.937  0.000
    10C    -0.00975 -0.06154   1.092  2.917  0.000
    11C    -0.00733 -0.01579   1.100  2.907  0.000
    12C     0.14556  0.13541   1.202  2.653  0.000
    13O    -0.29672 -0.35216   1.652  4.645  0.000
    14C    -0.01599 -0.06911   1.086  2.930  0.000
    15C    -0.01937 -0.07266   1.075  2.945  0.000
    16C     0.06141  0.12964   1.119  2.820  0.000
    17C    -0.03608 -0.08212   1.085  2.951  0.000
    18C    -0.03595 -0.08141   1.091  2.945  0.000
    19N    -0.28293 -0.46967   1.293  3.990  0.000
    20C     0.06568  0.13636   1.130  2.804  0.000
    21C     0.02002  0.02723   1.087  2.893  0.000
    22C     0.06770  0.13256   1.110  2.822  0.000
    23C    -0.03098 -0.07542   1.081  2.950  0.000
    24C    -0.03085 -0.07586   1.075  2.956  0.000
    25C     0.06403  0.12746   1.100  2.836  0.000
    26N    -0.15534 -0.50761   1.314  3.842  0.000
    27C     0.00959  0.01539   1.092  2.899  0.000
    28C     0.01540  0.00681   1.094  2.891  0.000
    29C    -0.01802 -0.07121   1.078  2.940  0.000
    30C    -0.01027 -0.06206   1.092  2.918  0.000
    31C    -0.00749 -0.01595   1.100  2.907  0.000
    32C     0.14540  0.13523   1.202  2.653  0.000
    33O    -0.29724 -0.35268   1.652  4.646  0.000
    34C    -0.01570 -0.06883   1.086  2.930  0.000
    35C    -0.01832 -0.07170   1.077  2.941  0.000
    36C     0.06254  0.13199   1.122  2.816  0.000
    37C    -0.03653 -0.08257   1.086  2.950  0.000
    38C    -0.03734 -0.08375   1.092  2.945  0.000
    39C     0.06081  0.12646   1.126  2.814  0.000
    40N    -0.28487 -0.47197   1.293  3.992  0.000
    41H     0.03343  0.09246   0.967  0.000  0.000
    42H     0.04397  0.10066   0.956  0.000  0.000
    43H     0.03405  0.09277   0.966  0.000  0.000
    44H     0.16592  0.37428   0.834  0.000  0.000
    45H     0.03221  0.09018   0.968  0.000  0.000
    46H     0.04273  0.10294   0.957  0.000  0.000
    47H     0.04115  0.10286   0.959  0.000  0.000
    48H     0.04432  0.10098   0.956  0.000  0.000
    49H     0.03121  0.08913   0.969  0.000  0.000
    50H     0.02520  0.08397   0.975  0.000  0.000
    51H     0.02812  0.08621   0.972  0.000  0.000
    52H     0.03796  0.09606   0.962  0.000  0.000
    53H     0.03471  0.09350   0.965  0.000  0.000
    54H     0.16460  0.37292   0.835  0.000  0.000
    55H     0.03250  0.09047   0.967  0.000  0.000
    56H     0.04235  0.10256   0.958  0.000  0.000
    57H     0.04120  0.10292   0.959  0.000  0.000
    58H     0.04439  0.10106   0.956  0.000  0.000
    59H     0.03071  0.08867   0.969  0.000  0.000
    60H     0.02437  0.08306   0.976  0.000  0.000
    61H     0.03385  0.09030   0.966  0.000  0.000
    62C    -0.01814 -0.05898   1.091  2.928  0.000
    63C     0.06393  0.12432   1.105  2.831  0.000
    64C    -0.03174 -0.07708   1.082  2.949  0.000
    65C    -0.03086 -0.07584   1.076  2.955  0.000
    66C     0.06507  0.12906   1.102  2.833  0.000
    67N    -0.15690 -0.50989   1.311  3.845  0.000
    68C     0.01024  0.01599   1.091  2.898  0.000
    69C     0.01552  0.00689   1.094  2.891  0.000
    70C    -0.01674 -0.07002   1.080  2.937  0.000
    71C    -0.00960 -0.06140   1.092  2.917  0.000
    72C    -0.00725 -0.01571   1.100  2.907  0.000
    73C     0.14564  0.13549   1.202  2.653  0.000
    74O    -0.29649 -0.35192   1.652  4.645  0.000
    75C    -0.01597 -0.06909   1.086  2.930  0.000
    76C    -0.01941 -0.07267   1.075  2.945  0.000
    77C     0.06176  0.13000   1.119  2.819  0.000
    78C    -0.03584 -0.08187   1.085  2.951  0.000
    79C    -0.03564 -0.08111   1.091  2.944  0.000
    80N    -0.28282 -0.46947   1.293  3.990  0.000
    81C     0.06587  0.13653   1.130  2.804  0.000
    82C     0.02046  0.02766   1.087  2.893  0.000
    83C     0.06798  0.13283   1.110  2.822  0.000
    84C    -0.03044 -0.07489   1.081  2.950  0.000
    85C    -0.03042 -0.07542   1.075  2.955  0.000
    86C     0.06443  0.12785   1.100  2.835  0.000
    87N    -0.15531 -0.50753   1.313  3.842  0.000
    88C     0.00984  0.01564   1.092  2.898  0.000
    89C     0.01543  0.00683   1.094  2.891  0.000
    90C    -0.01803 -0.07125   1.077  2.941  0.000
    91C    -0.01016 -0.06195   1.092  2.918  0.000
    92C    -0.00735 -0.01581   1.100  2.907  0.000
    93C     0.14551  0.13534   1.202  2.653  0.000
    94O    -0.29704 -0.35247   1.652  4.645  0.000
    95C    -0.01559 -0.06872   1.086  2.930  0.000
    96C    -0.01825 -0.07161   1.077  2.941  0.000
    97C     0.06277  0.13223   1.122  2.816  0.000
    98C    -0.03641 -0.08244   1.087  2.950  0.000
    99C    -0.03718 -0.08359   1.093  2.945  0.000
   100C     0.06091  0.12655   1.126  2.813  0.000
   101N    -0.28457 -0.47169   1.293  3.992  0.000
   102H     0.03371  0.09276   0.966  0.000  0.000
   103H     0.04423  0.10092   0.956  0.000  0.000
   104H     0.03433  0.09304   0.966  0.000  0.000
   105H     0.16609  0.37443   0.834  0.000  0.000
   106H     0.03258  0.09051   0.967  0.000  0.000
   107H     0.04301  0.10321   0.957  0.000  0.000
   108H     0.04117  0.10289   0.959  0.000  0.000
   109H     0.04435  0.10101   0.956  0.000  0.000
   110H     0.03120  0.08911   0.969  0.000  0.000
   111H     0.02561  0.08440   0.974  0.000  0.000
   112H     0.02845  0.08656   0.972  0.000  0.000
   113H     0.03846  0.09658   0.962  0.000  0.000
   114H     0.03527  0.09408   0.965  0.000  0.000
   115H     0.16480  0.37309   0.835  0.000  0.000
   116H     0.03251  0.09044   0.967  0.000  0.000
   117H     0.04250  0.10270   0.958  0.000  0.000
   118H     0.04133  0.10305   0.959  0.000  0.000
   119H     0.04456  0.10123   0.955  0.000  0.000
   120H     0.03094  0.08891   0.969  0.000  0.000
   121H     0.02457  0.08327   0.975  0.000  0.000
   122H     0.03406  0.09050   0.966  0.000  0.000
   123C    -0.01673 -0.01759   1.061  2.956  0.000
   124C    -0.01755 -0.01919   1.090  2.928  0.000
   125C    -0.01925 -0.02010   1.059  2.961  0.000
   126C    -0.01503 -0.01664   1.093  2.922  0.000
   127C    -0.01838 -0.01922   1.060  2.958  0.000
   128C    -0.01801 -0.01962   1.090  2.928  0.000
   129C    -0.01965 -0.02049   1.059  2.961  0.000
   130C    -0.01679 -0.01839   1.091  2.925  0.000
   131C    -0.01889 -0.01973   1.060  2.959  0.000
   132C    -0.01738 -0.01899   1.090  2.927  0.000
   133C    -0.01905 -0.01989   1.059  2.960  0.000
   134C    -0.01725 -0.01885   1.091  2.927  0.000
   135C    -0.01886 -0.01970   1.059  2.959  0.000
   136C    -0.01706 -0.01866   1.091  2.926  0.000
   137C    -0.01875 -0.01959   1.060  2.959  0.000
   138C    -0.01722 -0.01883   1.090  2.927  0.000
   139C    -0.01872 -0.01956   1.060  2.959  0.000
   140C    -0.01700 -0.01861   1.091  2.926  0.000
   141C    -0.01874 -0.01958   1.060  2.959  0.000
   142C    -0.01712 -0.01872   1.091  2.927  0.000
   143C    -0.01873 -0.01957   1.060  2.959  0.000
   144C    -0.01709 -0.01870   1.090  2.927  0.000
   145C    -0.01885 -0.01969   1.059  2.959  0.000
   146C    -0.01717 -0.01878   1.091  2.927  0.000
   147C    -0.01901 -0.01985   1.059  2.960  0.000
   148C    -0.01705 -0.01865   1.091  2.926  0.000
   149C    -0.01880 -0.01964   1.060  2.959  0.000
   150C    -0.01748 -0.01908   1.090  2.927  0.000
   151C    -0.01949 -0.02033   1.059  2.961  0.000
   152C    -0.01647 -0.01807   1.091  2.925  0.000
   153C    -0.01813 -0.01897   1.060  2.958  0.000
   154C    -0.01797 -0.01956   1.090  2.928  0.000
   155C    -0.01842 -0.01926   1.059  2.960  0.000
   156C    -0.01432 -0.01591   1.093  2.921  0.000
   157C    -0.01598 -0.01685   1.061  2.955  0.000
   158C    -0.01684 -0.01850   1.090  2.927  0.000
   159C     0.01678  0.02402   1.084  2.899  0.000
   160C     0.06688  0.13173   1.110  2.823  0.000
   161C    -0.03347 -0.07792   1.079  2.954  0.000
   162C    -0.03220 -0.07716   1.075  2.957  0.000
   163C     0.06222  0.12571   1.098  2.840  0.000
   164N    -0.15515 -0.50757   1.313  3.842  0.000
   165C     0.01204  0.01769   1.093  2.895  0.000
   166C     0.01614  0.00746   1.094  2.890  0.000
   167C    -0.01658 -0.06986   1.080  2.937  0.000
   168C    -0.00981 -0.06160   1.092  2.917  0.000
   169C    -0.00749 -0.01595   1.100  2.907  0.000
   170C     0.14550  0.13534   1.202  2.653  0.000
   171O    -0.29702 -0.35248   1.652  4.645  0.000
   172C    -0.01596 -0.06908   1.086  2.930  0.000
   173C    -0.01894 -0.07225   1.075  2.944  0.000
   174C     0.05987  0.12791   1.117  2.823  0.000
   175C    -0.03685 -0.08288   1.085  2.952  0.000
   176C    -0.03734 -0.08281   1.090  2.947  0.000
   177N    -0.28265 -0.46894   1.293  3.990  0.000
   178C     0.06536  0.13622   1.131  2.804  0.000
   179C     0.01870  0.02593   1.086  2.895  0.000
   180C     0.06733  0.13228   1.110  2.823  0.000
   181C    -0.03227 -0.07672   1.079  2.953  0.000
   182C    -0.03159 -0.07657   1.075  2.956  0.000
   183C     0.06252  0.12593   1.098  2.840  0.000
   184N    -0.15454 -0.50700   1.313  3.841  0.000
   185C     0.01187  0.01753   1.093  2.895  0.000
   186C     0.01608  0.00740   1.094  2.890  0.000
   187C    -0.01777 -0.07116   1.077  2.941  0.000
   188C    -0.01548 -0.06862   1.086  2.930  0.000
   189C    -0.00746 -0.01591   1.100  2.907  0.000
   190C     0.14550  0.13534   1.202  2.653  0.000
   191O    -0.29730 -0.35276   1.652  4.646  0.000
   192C    -0.01017 -0.06197   1.092  2.918  0.000
   193C    -0.01770 -0.07091   1.077  2.940  0.000
   194C     0.06019  0.12839   1.117  2.822  0.000
   195C    -0.03691 -0.08295   1.086  2.951  0.000
   196C    -0.03767 -0.08315   1.090  2.947  0.000
   197C     0.06502  0.13567   1.130  2.805  0.000
   198N    -0.28346 -0.46968   1.292  3.991  0.000
   199H     0.03550  0.09358   0.964  0.000  0.000
   200H     0.03252  0.09137   0.967  0.000  0.000
   201H     0.16457  0.37253   0.835  0.000  0.000
   202H     0.03217  0.09011   0.968  0.000  0.000
   203H     0.04231  0.10253   0.958  0.000  0.000
   204H     0.04082  0.10253   0.959  0.000  0.000
   205H     0.04400  0.10066   0.956  0.000  0.000
   206H     0.03126  0.08915   0.969  0.000  0.000
   207H     0.02380  0.08261   0.976  0.000  0.000
   208H     0.02660  0.08464   0.973  0.000  0.000
   209H     0.03732  0.09541   0.963  0.000  0.000
   210H     0.03366  0.09251   0.966  0.000  0.000
   211H     0.16433  0.37231   0.836  0.000  0.000
   212H     0.03101  0.08893   0.969  0.000  0.000
   213H     0.04429  0.10096   0.956  0.000  0.000
   214H     0.04101  0.10273   0.959  0.000  0.000
   215H     0.04205  0.10227   0.958  0.000  0.000
   216H     0.03243  0.09035   0.968  0.000  0.000
   217H     0.02331  0.08214   0.977  0.000  0.000
   218H     0.02589  0.08396   0.974  0.000  0.000
   219C     0.01716  0.02439   1.085  2.898  0.000
   220C     0.06704  0.13197   1.110  2.823  0.000
   221C    -0.03324 -0.07769   1.079  2.955  0.000
   222C    -0.03215 -0.07713   1.075  2.957  0.000
   223C     0.06188  0.12531   1.097  2.841  0.000
   224N    -0.15479 -0.50726   1.313  3.841  0.000
   225C     0.01233  0.01799   1.093  2.894  0.000
   226C     0.01616  0.00748   1.094  2.890  0.000
   227C    -0.01655 -0.06983   1.080  2.937  0.000
   228C    -0.00981 -0.06161   1.092  2.917  0.000
   229C    -0.00741 -0.01587   1.100  2.907  0.000
   230C     0.14558  0.13544   1.202  2.653  0.000
   231O    -0.29704 -0.35252   1.652  4.646  0.000
   232C    -0.01584 -0.06897   1.086  2.930  0.000
   233C    -0.01877 -0.07208   1.075  2.944  0.000
   234C     0.05965  0.12767   1.117  2.823  0.000
   235C    -0.03686 -0.08291   1.085  2.952  0.000
   236C    -0.03765 -0.08312   1.090  2.948  0.000
   237N    -0.28285 -0.46911   1.293  3.990  0.000
   238C     0.06527  0.13614   1.131  2.804  0.000
   239C     0.01797  0.02521   1.085  2.897  0.000
   240C     0.06721  0.13215   1.110  2.823  0.000
   241C    -0.03274 -0.07719   1.079  2.954  0.000
   242C    -0.03174 -0.07672   1.075  2.957  0.000
   243C     0.06212  0.12553   1.098  2.840  0.000
   244N    -0.15464 -0.50713   1.313  3.841  0.000
   245C     0.01225  0.01791   1.093  2.895  0.000
   246C     0.01614  0.00746   1.094  2.890  0.000
   247C    -0.01771 -0.07108   1.077  2.941  0.000
   248C    -0.01550 -0.06863   1.086  2.930  0.000
   249C    -0.00741 -0.01587   1.100  2.907  0.000
   250C     0.14558  0.13543   1.202  2.653  0.000
   251O    -0.29720 -0.35268   1.652  4.646  0.000
   252C    -0.01016 -0.06195   1.092  2.918  0.000
   253C    -0.01763 -0.07085   1.077  2.940  0.000
   254C     0.05955  0.12758   1.117  2.824  0.000
   255C    -0.03719 -0.08323   1.085  2.952  0.000
   256C    -0.03803 -0.08349   1.090  2.948  0.000
   257C     0.06505  0.13589   1.130  2.804  0.000
   258N    -0.28308 -0.46933   1.292  3.991  0.000
   259H     0.03630  0.09440   0.964  0.000  0.000
   260H     0.03272  0.09157   0.967  0.000  0.000
   261H     0.16429  0.37225   0.836  0.000  0.000
   262H     0.03189  0.08985   0.968  0.000  0.000
   263H     0.04212  0.10234   0.958  0.000  0.000
   264H     0.04088  0.10260   0.959  0.000  0.000
   265H     0.04405  0.10071   0.956  0.000  0.000
   266H     0.03131  0.08923   0.969  0.000  0.000
   267H     0.02353  0.08235   0.976  0.000  0.000
   268H     0.02616  0.08420   0.974  0.000  0.000
   269H     0.03683  0.09492   0.963  0.000  0.000
   270H     0.03328  0.09214   0.967  0.000  0.000
   271H     0.16423  0.37220   0.836  0.000  0.000
   272H     0.03078  0.08873   0.969  0.000  0.000
   273H     0.04417  0.10084   0.956  0.000  0.000
   274H     0.04106  0.10278   0.959  0.000  0.000
   275H     0.04197  0.10219   0.958  0.000  0.000
   276H     0.03237  0.09031   0.968  0.000  0.000
   277H     0.02306  0.08187   0.977  0.000  0.000
   278H     0.02570  0.08374   0.974  0.000  0.000
   279C     0.01785  0.02508   1.085  2.897  0.000
   280C     0.06713  0.13208   1.110  2.823  0.000
   281C    -0.03287 -0.07731   1.079  2.954  0.000
   282C    -0.03198 -0.07695   1.075  2.957  0.000
   283C     0.06210  0.12552   1.098  2.840  0.000
   284N    -0.15465 -0.50712   1.313  3.841  0.000
   285C     0.01235  0.01800   1.093  2.894  0.000
   286C     0.01612  0.00744   1.094  2.890  0.000
   287C    -0.01656 -0.06985   1.080  2.937  0.000
   288C    -0.00981 -0.06161   1.092  2.917  0.000
   289C    -0.00736 -0.01582   1.100  2.907  0.000
   290C     0.14562  0.13548   1.202  2.653  0.000
   291O    -0.29699 -0.35247   1.652  4.645  0.000
   292C    -0.01579 -0.06892   1.086  2.930  0.000
   293C    -0.01875 -0.07205   1.075  2.944  0.000
   294C     0.05980  0.12782   1.117  2.823  0.000
   295C    -0.03676 -0.08281   1.085  2.952  0.000
   296C    -0.03762 -0.08308   1.090  2.947  0.000
   297N    -0.28283 -0.46910   1.293  3.990  0.000
   298C     0.06529  0.13616   1.131  2.804  0.000
   299C     0.01797  0.02521   1.085  2.897  0.000
   300C     0.06728  0.13223   1.110  2.823  0.000
   301C    -0.03267 -0.07712   1.079  2.954  0.000
   302C    -0.03162 -0.07660   1.075  2.956  0.000
   303C     0.06223  0.12565   1.098  2.840  0.000
   304N    -0.15463 -0.50711   1.313  3.841  0.000
   305C     0.01238  0.01804   1.093  2.894  0.000
   306C     0.01612  0.00744   1.094  2.890  0.000
   307C    -0.01767 -0.07104   1.077  2.941  0.000
   308C    -0.01544 -0.06857   1.086  2.930  0.000
   309C    -0.00736 -0.01581   1.100  2.907  0.000
   310C     0.14563  0.13547   1.202  2.653  0.000
   311O    -0.29713 -0.35261   1.652  4.646  0.000
   312C    -0.01014 -0.06194   1.092  2.918  0.000
   313C    -0.01763 -0.07086   1.077  2.940  0.000
   314C     0.05966  0.12768   1.117  2.823  0.000
   315C    -0.03709 -0.08313   1.085  2.952  0.000
   316C    -0.03779 -0.08325   1.090  2.948  0.000
   317C     0.06514  0.13600   1.130  2.804  0.000
   318N    -0.28282 -0.46908   1.293  3.990  0.000
   319H     0.03672  0.09482   0.963  0.000  0.000
   320H     0.03299  0.09183   0.967  0.000  0.000
   321H     0.16434  0.37231   0.836  0.000  0.000
   322H     0.03187  0.08983   0.968  0.000  0.000
   323H     0.04214  0.10236   0.958  0.000  0.000
   324H     0.04097  0.10269   0.959  0.000  0.000
   325H     0.04416  0.10083   0.956  0.000  0.000
   326H     0.03140  0.08932   0.969  0.000  0.000
   327H     0.02361  0.08244   0.976  0.000  0.000
   328H     0.02617  0.08421   0.974  0.000  0.000
   329H     0.03685  0.09495   0.963  0.000  0.000
   330H     0.03337  0.09224   0.967  0.000  0.000
   331H     0.16432  0.37229   0.836  0.000  0.000
   332H     0.03088  0.08883   0.969  0.000  0.000
   333H     0.04428  0.10095   0.956  0.000  0.000
   334H     0.04115  0.10287   0.959  0.000  0.000
   335H     0.04200  0.10223   0.958  0.000  0.000
   336H     0.03238  0.09032   0.968  0.000  0.000
   337H     0.02327  0.08207   0.977  0.000  0.000
   338H     0.02605  0.08409   0.974  0.000  0.000
   339C     0.01812  0.02535   1.085  2.896  0.000
   340C     0.06722  0.13217   1.110  2.823  0.000
   341C    -0.03267 -0.07711   1.079  2.954  0.000
   342C    -0.03184 -0.07682   1.075  2.957  0.000
   343C     0.06225  0.12567   1.098  2.840  0.000
   344N    -0.15459 -0.50707   1.313  3.841  0.000
   345C     0.01239  0.01805   1.093  2.894  0.000
   346C     0.01609  0.00741   1.094  2.890  0.000
   347C    -0.01657 -0.06985   1.080  2.937  0.000
   348C    -0.00979 -0.06159   1.092  2.917  0.000
   349C    -0.00732 -0.01577   1.100  2.907  0.000
   350C     0.14566  0.13551   1.202  2.653  0.000
   351O    -0.29691 -0.35239   1.652  4.645  0.000
   352C    -0.01576 -0.06888   1.086  2.930  0.000
   353C    -0.01875 -0.07205   1.075  2.944  0.000
   354C     0.05992  0.12794   1.117  2.823  0.000
   355C    -0.03670 -0.08275   1.085  2.951  0.000
   356C    -0.03754 -0.08300   1.090  2.947  0.000
   357N    -0.28273 -0.46900   1.293  3.990  0.000
   358C     0.06532  0.13618   1.131  2.804  0.000
   359C     0.01817  0.02540   1.085  2.896  0.000
   360C     0.06732  0.13226   1.110  2.823  0.000
   361C    -0.03255 -0.07700   1.079  2.954  0.000
   362C    -0.03153 -0.07652   1.075  2.956  0.000
   363C     0.06235  0.12578   1.098  2.840  0.000
   364N    -0.15457 -0.50706   1.313  3.841  0.000
   365C     0.01243  0.01809   1.093  2.894  0.000
   366C     0.01608  0.00741   1.094  2.890  0.000
   367C    -0.01767 -0.07103   1.077  2.941  0.000
   368C    -0.01541 -0.06854   1.086  2.930  0.000
   369C    -0.00731 -0.01577   1.100  2.907  0.000
   370C     0.14566  0.13551   1.202  2.653  0.000
   371O    -0.29706 -0.35253   1.652  4.646  0.000
   372C    -0.01013 -0.06192   1.092  2.918  0.000
   373C    -0.01764 -0.07086   1.077  2.940  0.000
   374C     0.05979  0.12780   1.117  2.823  0.000
   375C    -0.03698 -0.08302   1.085  2.952  0.000
   376C    -0.03764 -0.08310   1.090  2.948  0.000
   377C     0.06522  0.13609   1.130  2.804  0.000
   378N    -0.28271 -0.46897   1.293  3.990  0.000
   379H     0.03695  0.09505   0.963  0.000  0.000
   380H     0.03318  0.09201   0.967  0.000  0.000
   381H     0.16442  0.37239   0.836  0.000  0.000
   382H     0.03191  0.08986   0.968  0.000  0.000
   383H     0.04219  0.10241   0.958  0.000  0.000
   384H     0.04106  0.10278   0.959  0.000  0.000
   385H     0.04426  0.10093   0.956  0.000  0.000
   386H     0.03146  0.08938   0.969  0.000  0.000
   387H     0.02372  0.08254   0.976  0.000  0.000
   388H     0.02626  0.08430   0.974  0.000  0.000
   389H     0.03696  0.09506   0.963  0.000  0.000
   390H     0.03348  0.09235   0.967  0.000  0.000
   391H     0.16439  0.37236   0.836  0.000  0.000
   392H     0.03094  0.08889   0.969  0.000  0.000
   393H     0.04437  0.10104   0.956  0.000  0.000
   394H     0.04124  0.10296   0.959  0.000  0.000
   395H     0.04206  0.10228   0.958  0.000  0.000
   396H     0.03241  0.09035   0.968  0.000  0.000
   397H     0.02343  0.08223   0.977  0.000  0.000
   398H     0.02625  0.08429   0.974  0.000  0.000
   399C     0.01806  0.02530   1.085  2.897  0.000
   400C     0.06724  0.13219   1.110  2.823  0.000
   401C    -0.03266 -0.07710   1.079  2.954  0.000
   402C    -0.03182 -0.07680   1.075  2.957  0.000
   403C     0.06225  0.12567   1.098  2.840  0.000
   404N    -0.15460 -0.50708   1.313  3.841  0.000
   405C     0.01240  0.01806   1.093  2.894  0.000
   406C     0.01610  0.00742   1.094  2.890  0.000
   407C    -0.01657 -0.06986   1.080  2.937  0.000
   408C    -0.00978 -0.06158   1.092  2.917  0.000
   409C    -0.00731 -0.01577   1.100  2.907  0.000
   410C     0.14566  0.13552   1.202  2.653  0.000
   411O    -0.29691 -0.35239   1.652  4.645  0.000
   412C    -0.01575 -0.06887   1.086  2.930  0.000
   413C    -0.01874 -0.07204   1.075  2.944  0.000
   414C     0.05991  0.12793   1.117  2.823  0.000
   415C    -0.03673 -0.08278   1.085  2.952  0.000
   416C    -0.03754 -0.08300   1.090  2.947  0.000
   417N    -0.28271 -0.46897   1.293  3.990  0.000
   418C     0.06530  0.13616   1.131  2.804  0.000
   419C     0.01822  0.02546   1.085  2.896  0.000
   420C     0.06729  0.13223   1.110  2.823  0.000
   421C    -0.03255 -0.07700   1.079  2.954  0.000
   422C    -0.03156 -0.07655   1.075  2.956  0.000
   423C     0.06236  0.12579   1.098  2.840  0.000
   424N    -0.15456 -0.50705   1.313  3.841  0.000
   425C     0.01241  0.01807   1.093  2.894  0.000
   426C     0.01608  0.00740   1.094  2.890  0.000
   427C    -0.01767 -0.07104   1.077  2.941  0.000
   428C    -0.01541 -0.06854   1.086  2.930  0.000
   429C    -0.00732 -0.01577   1.100  2.907  0.000
   430C     0.14566  0.13550   1.202  2.653  0.000
   431O    -0.29707 -0.35255   1.652  4.646  0.000
   432C    -0.01013 -0.06192   1.092  2.918  0.000
   433C    -0.01764 -0.07087   1.077  2.940  0.000
   434C     0.05981  0.12782   1.117  2.823  0.000
   435C    -0.03696 -0.08301   1.085  2.952  0.000
   436C    -0.03763 -0.08309   1.090  2.948  0.000
   437C     0.06523  0.13610   1.130  2.804  0.000
   438N    -0.28274 -0.46901   1.292  3.990  0.000
   439H     0.03696  0.09506   0.963  0.000  0.000
   440H     0.03320  0.09203   0.967  0.000  0.000
   441H     0.16442  0.37238   0.836  0.000  0.000
   442H     0.03191  0.08986   0.968  0.000  0.000
   443H     0.04219  0.10241   0.958  0.000  0.000
   444H     0.04107  0.10279   0.959  0.000  0.000
   445H     0.04427  0.10094   0.956  0.000  0.000
   446H     0.03147  0.08939   0.969  0.000  0.000
   447H     0.02370  0.08252   0.976  0.000  0.000
   448H     0.02624  0.08428   0.974  0.000  0.000
   449H     0.03694  0.09504   0.963  0.000  0.000
   450H     0.03346  0.09233   0.967  0.000  0.000
   451H     0.16438  0.37236   0.836  0.000  0.000
   452H     0.03094  0.08889   0.969  0.000  0.000
   453H     0.04438  0.10105   0.956  0.000  0.000
   454H     0.04124  0.10296   0.959  0.000  0.000
   455H     0.04204  0.10227   0.958  0.000  0.000
   456H     0.03240  0.09034   0.968  0.000  0.000
   457H     0.02345  0.08225   0.977  0.000  0.000
   458H     0.02627  0.08431   0.974  0.000  0.000
   459C     0.01791  0.02515   1.085  2.897  0.000
   460C     0.06720  0.13215   1.110  2.823  0.000
   461C    -0.03275 -0.07720   1.079  2.954  0.000
   462C    -0.03190 -0.07688   1.075  2.957  0.000
   463C     0.06214  0.12555   1.098  2.840  0.000
   464N    -0.15465 -0.50712   1.313  3.841  0.000
   465C     0.01236  0.01802   1.093  2.894  0.000
   466C     0.01613  0.00745   1.094  2.890  0.000
   467C    -0.01658 -0.06987   1.080  2.937  0.000
   468C    -0.00981 -0.06161   1.092  2.917  0.000
   469C    -0.00735 -0.01581   1.100  2.907  0.000
   470C     0.14564  0.13549   1.202  2.653  0.000
   471O    -0.29701 -0.35248   1.652  4.645  0.000
   472C    -0.01576 -0.06888   1.086  2.930  0.000
   473C    -0.01873 -0.07203   1.075  2.944  0.000
   474C     0.05980  0.12783   1.117  2.823  0.000
   475C    -0.03683 -0.08287   1.085  2.952  0.000
   476C    -0.03768 -0.08314   1.090  2.948  0.000
   477N    -0.28282 -0.46907   1.293  3.990  0.000
   478C     0.06523  0.13608   1.131  2.804  0.000
   479C     0.01795  0.02518   1.085  2.897  0.000
   480C     0.06721  0.13215   1.110  2.823  0.000
   481C    -0.03275 -0.07720   1.079  2.954  0.000
   482C    -0.03169 -0.07668   1.075  2.957  0.000
   483C     0.06222  0.12565   1.098  2.840  0.000
   484N    -0.15461 -0.50710   1.313  3.841  0.000
   485C     0.01237  0.01802   1.093  2.894  0.000
   486C     0.01611  0.00744   1.094  2.890  0.000
   487C    -0.01767 -0.07103   1.077  2.941  0.000
   488C    -0.01542 -0.06855   1.086  2.930  0.000
   489C    -0.00735 -0.01581   1.100  2.907  0.000
   490C     0.14563  0.13548   1.202  2.653  0.000
   491O    -0.29717 -0.35264   1.652  4.646  0.000
   492C    -0.01015 -0.06195   1.092  2.918  0.000
   493C    -0.01764 -0.07087   1.077  2.940  0.000
   494C     0.05971  0.12772   1.117  2.823  0.000
   495C    -0.03703 -0.08307   1.085  2.952  0.000
   496C    -0.03769 -0.08315   1.090  2.948  0.000
   497C     0.06521  0.13608   1.130  2.804  0.000
   498N    -0.28281 -0.46908   1.292  3.990  0.000
   499H     0.03688  0.09497   0.963  0.000  0.000
   500H     0.03310  0.09194   0.967  0.000  0.000
   501H     0.16435  0.37231   0.836  0.000  0.000
   502H     0.03185  0.08980   0.968  0.000  0.000
   503H     0.04210  0.10232   0.958  0.000  0.000
   504H     0.04103  0.10275   0.959  0.000  0.000
   505H     0.04424  0.10090   0.956  0.000  0.000
   506H     0.03145  0.08937   0.969  0.000  0.000
   507H     0.02355  0.08238   0.976  0.000  0.000
   508H     0.02605  0.08408   0.974  0.000  0.000
   509H     0.03672  0.09481   0.963  0.000  0.000
   510H     0.03329  0.09216   0.967  0.000  0.000
   511H     0.16432  0.37229   0.836  0.000  0.000
   512H     0.03092  0.08886   0.969  0.000  0.000
   513H     0.04434  0.10100   0.956  0.000  0.000
   514H     0.04119  0.10291   0.959  0.000  0.000
   515H     0.04196  0.10218   0.958  0.000  0.000
   516H     0.03234  0.09028   0.968  0.000  0.000
   517H     0.02337  0.08217   0.977  0.000  0.000
   518H     0.02620  0.08423   0.974  0.000  0.000
   519C     0.01802  0.02526   1.085  2.897  0.000
   520C     0.06716  0.13211   1.110  2.823  0.000
   521C    -0.03277 -0.07722   1.079  2.954  0.000
   522C    -0.03197 -0.07695   1.075  2.957  0.000
   523C     0.06210  0.12550   1.098  2.840  0.000
   524N    -0.15463 -0.50710   1.313  3.841  0.000
   525C     0.01227  0.01793   1.093  2.895  0.000
   526C     0.01611  0.00744   1.094  2.890  0.000
   527C    -0.01660 -0.06990   1.080  2.937  0.000
   528C    -0.00986 -0.06166   1.092  2.918  0.000
   529C    -0.00737 -0.01583   1.100  2.907  0.000
   530C     0.14561  0.13547   1.202  2.653  0.000
   531O    -0.29710 -0.35257   1.652  4.646  0.000
   532C    -0.01576 -0.06888   1.086  2.930  0.000
   533C    -0.01873 -0.07203   1.075  2.944  0.000
   534C     0.05975  0.12779   1.117  2.823  0.000
   535C    -0.03684 -0.08289   1.085  2.952  0.000
   536C    -0.03788 -0.08334   1.090  2.948  0.000
   537N    -0.28303 -0.46928   1.292  3.991  0.000
   538C     0.06518  0.13600   1.131  2.804  0.000
   539C     0.01733  0.02457   1.085  2.898  0.000
   540C     0.06716  0.13209   1.110  2.823  0.000
   541C    -0.03306 -0.07751   1.079  2.954  0.000
   542C    -0.03179 -0.07677   1.075  2.957  0.000
   543C     0.06206  0.12550   1.098  2.840  0.000
   544N    -0.15473 -0.50721   1.313  3.841  0.000
   545C     0.01241  0.01806   1.093  2.894  0.000
   546C     0.01615  0.00747   1.094  2.890  0.000
   547C    -0.01764 -0.07100   1.077  2.941  0.000
   548C    -0.01540 -0.06853   1.086  2.929  0.000
   549C    -0.00737 -0.01582   1.100  2.907  0.000
   550C     0.14562  0.13547   1.202  2.653  0.000
   551O    -0.29723 -0.35271   1.652  4.646  0.000
   552C    -0.01019 -0.06198   1.092  2.918  0.000
   553C    -0.01767 -0.07089   1.077  2.940  0.000
   554C     0.05961  0.12761   1.117  2.824  0.000
   555C    -0.03708 -0.08312   1.085  2.952  0.000
   556C    -0.03769 -0.08315   1.090  2.948  0.000
   557C     0.06522  0.13610   1.131  2.804  0.000
   558N    -0.28276 -0.46903   1.293  3.990  0.000
   559H     0.03692  0.09501   0.963  0.000  0.000
   560H     0.03306  0.09190   0.967  0.000  0.000
   561H     0.16429  0.37225   0.836  0.000  0.000
   562H     0.03174  0.08971   0.968  0.000  0.000
   563H     0.04201  0.10223   0.958  0.000  0.000
   564H     0.04104  0.10276   0.959  0.000  0.000
   565H     0.04426  0.10092   0.956  0.000  0.000
   566H     0.03146  0.08938   0.969  0.000  0.000
   567H     0.02345  0.08228   0.977  0.000  0.000
   568H     0.02581  0.08384   0.974  0.000  0.000
   569H     0.03641  0.09451   0.964  0.000  0.000
   570H     0.03313  0.09200   0.967  0.000  0.000
   571H     0.16430  0.37227   0.836  0.000  0.000
   572H     0.03096  0.08891   0.969  0.000  0.000
   573H     0.04437  0.10104   0.956  0.000  0.000
   574H     0.04122  0.10294   0.959  0.000  0.000
   575H     0.04188  0.10210   0.958  0.000  0.000
   576H     0.03229  0.09022   0.968  0.000  0.000
   577H     0.02335  0.08214   0.977  0.000  0.000
   578H     0.02625  0.08428   0.974  0.000  0.000
   579C     0.01893  0.02618   1.086  2.895  0.000
   580C     0.06736  0.13232   1.110  2.822  0.000
   581C    -0.03215 -0.07659   1.079  2.953  0.000
   582C    -0.03165 -0.07662   1.075  2.956  0.000
   583C     0.06270  0.12611   1.098  2.839  0.000
   584N    -0.15448 -0.50697   1.313  3.841  0.000
   585C     0.01190  0.01757   1.093  2.895  0.000
   586C     0.01598  0.00730   1.094  2.890  0.000
   587C    -0.01670 -0.06996   1.080  2.937  0.000
   588C    -0.00982 -0.06162   1.092  2.917  0.000
   589C    -0.00721 -0.01567   1.100  2.907  0.000
   590C     0.14571  0.13556   1.202  2.653  0.000
   591O    -0.29701 -0.35248   1.652  4.645  0.000
   592C    -0.01560 -0.06872   1.086  2.930  0.000
   593C    -0.01870 -0.07199   1.075  2.944  0.000
   594C     0.06066  0.12892   1.118  2.822  0.000
   595C    -0.03624 -0.08228   1.086  2.951  0.000
   596C    -0.03723 -0.08271   1.091  2.947  0.000
   597N    -0.28324 -0.46956   1.292  3.991  0.000
   598C     0.06520  0.13579   1.130  2.804  0.000
   599C     0.01738  0.02464   1.084  2.898  0.000
   600C     0.06710  0.13193   1.110  2.823  0.000
   601C    -0.03293 -0.07739   1.079  2.953  0.000
   602C    -0.03143 -0.07643   1.076  2.956  0.000
   603C     0.06268  0.12618   1.098  2.839  0.000
   604N    -0.15500 -0.50748   1.313  3.842  0.000
   605C     0.01216  0.01782   1.093  2.895  0.000
   606C     0.01599  0.00732   1.094  2.890  0.000
   607C    -0.01761 -0.07099   1.077  2.941  0.000
   608C    -0.01529 -0.06842   1.086  2.929  0.000
   609C    -0.00726 -0.01571   1.100  2.907  0.000
   610C     0.14567  0.13552   1.202  2.653  0.000
   611O    -0.29721 -0.35268   1.652  4.646  0.000
   612C    -0.01025 -0.06204   1.092  2.918  0.000
   613C    -0.01778 -0.07100   1.077  2.940  0.000
   614C     0.06001  0.12804   1.117  2.823  0.000
   615C    -0.03691 -0.08296   1.085  2.952  0.000
   616C    -0.03731 -0.08277   1.090  2.947  0.000
   617C     0.06535  0.13623   1.130  2.804  0.000
   618N    -0.28246 -0.46877   1.293  3.990  0.000
   619H     0.03754  0.09562   0.962  0.000  0.000
   620H     0.03359  0.09241   0.966  0.000  0.000
   621H     0.16446  0.37247   0.836  0.000  0.000
   622H     0.03167  0.08964   0.968  0.000  0.000
   623H     0.04209  0.10231   0.958  0.000  0.000
   624H     0.04131  0.10303   0.959  0.000  0.000
   625H     0.04459  0.10125   0.955  0.000  0.000
   626H     0.03168  0.08959   0.968  0.000  0.000
   627H     0.02423  0.08304   0.976  0.000  0.000
   628H     0.02648  0.08453   0.974  0.000  0.000
   629H     0.03610  0.09417   0.964  0.000  0.000
   630H     0.03343  0.09228   0.967  0.000  0.000
   631H     0.16462  0.37265   0.835  0.000  0.000
   632H     0.03113  0.08907   0.969  0.000  0.000
   633H     0.04472  0.10139   0.955  0.000  0.000
   634H     0.04153  0.10324   0.958  0.000  0.000
   635H     0.04190  0.10213   0.958  0.000  0.000
   636H     0.03222  0.09018   0.968  0.000  0.000
   637H     0.02375  0.08255   0.976  0.000  0.000
   638H     0.02680  0.08483   0.973  0.000  0.000

Wiberg/Mayer (AO) data.
largest (>0.10) Wiberg bond orders for each atom

 ---------------------------------------------------------------------------
     #   Z sym  total        # sym  WBO       # sym  WBO       # sym  WBO
 ---------------------------------------------------------------------------
     1   6 C    3.822 --    39 C    1.387     2 C    1.375    41 H    0.995
     2   6 C    3.925 --     1 C    1.375     3 C    1.238     6 N    1.229
     3   6 C    3.843 --     4 C    1.602     2 C    1.238    42 H    0.992
     4   6 C    3.825 --     3 C    1.602     5 C    1.248    43 H    0.998
     5   6 C    3.901 --     7 C    1.342     4 C    1.248     6 N    1.233
     6   7 N    3.249 --     5 C    1.233     2 C    1.229    44 H    0.960
     7   6 C    3.845 --    16 C    1.364     5 C    1.342     8 C    1.057
     8   6 C    3.898 --    15 C    1.415     9 C    1.410     7 C    1.057
     9   6 C    3.869 --    10 C    1.472     8 C    1.410    45 H    0.988
    10   6 C    3.892 --     9 C    1.472    11 C    1.390    46 H    0.987
    11   6 C    3.939 --    10 C    1.390    14 C    1.385    12 C    1.080
    12   6 C    4.002 --    13 O    1.945    11 C    1.080    47 H    0.953
    13   8 O    2.067 --    12 C    1.945
    14   6 C    3.889 --    15 C    1.467    11 C    1.385    48 H    0.982
    15   6 C    3.858 --    14 C    1.467     8 C    1.415    49 H    0.987
    16   6 C    3.927 --     7 C    1.364    19 N    1.361    17 C    1.159
    17   6 C    3.840 --    18 C    1.697    16 C    1.159    50 H    0.998
    18   6 C    3.854 --    17 C    1.697    20 C    1.163    51 H    0.998
    19   7 N    2.569 --    20 C    1.408    16 C    1.361
    20   6 C    3.945 --    19 N    1.408    21 C    1.296    18 C    1.163
    21   6 C    3.856 --    20 C    1.296    22 C    1.295   124 C    1.206
    22   6 C    3.906 --    21 C    1.295    23 C    1.263    26 N    1.248
    23   6 C    3.837 --    24 C    1.590    22 C    1.263    52 H    0.997
    24   6 C    3.820 --    23 C    1.590    25 C    1.255    53 H    0.997
    25   6 C    3.897 --    27 C    1.345    24 C    1.255    26 N    1.225
    26   7 N    3.259 --    22 C    1.248    25 C    1.225    54 H    0.959
    27   6 C    3.834 --    36 C    1.353    25 C    1.345    28 C    1.059
    28   6 C    3.898 --    35 C    1.414    29 C    1.409    27 C    1.059
    29   6 C    3.863 --    30 C    1.472    28 C    1.409    55 H    0.988
    30   6 C    3.892 --    29 C    1.472    31 C    1.390    56 H    0.987
    31   6 C    3.938 --    30 C    1.390    34 C    1.385    32 C    1.081
    32   6 C    4.001 --    33 O    1.944    31 C    1.081    57 H    0.953
    33   8 O    2.066 --    32 C    1.944
    34   6 C    3.889 --    35 C    1.468    31 C    1.385    58 H    0.982
    35   6 C    3.862 --    34 C    1.468    28 C    1.414    59 H    0.987
    36   6 C    3.946 --    40 N    1.385    27 C    1.353    37 C    1.152
    37   6 C    3.843 --    38 C    1.709    36 C    1.152    60 H    0.998
    38   6 C    3.864 --    37 C    1.709    39 C    1.146    61 H    0.992
    39   6 C    3.967 --     1 C    1.387    40 N    1.373    38 C    1.146
    40   7 N    2.558 --    36 C    1.385    39 C    1.373
    41   1 H    1.031 --     1 C    0.995
    42   1 H    1.014 --     3 C    0.992
    43   1 H    1.030 --     4 C    0.998
    44   1 H    1.080 --     6 N    0.960
    45   1 H    1.047 --     9 C    0.988
    46   1 H    1.041 --    10 C    0.987
    47   1 H    1.010 --    12 C    0.953
    48   1 H    1.020 --    14 C    0.982
    49   1 H    1.046 --    15 C    0.987
    50   1 H    1.034 --    17 C    0.998
    51   1 H    1.029 --    18 C    0.998
    52   1 H    1.025 --    23 C    0.997
    53   1 H    1.030 --    24 C    0.997
    54   1 H    1.084 --    26 N    0.959
    55   1 H    1.044 --    29 C    0.988
    56   1 H    1.041 --    30 C    0.987
    57   1 H    1.010 --    32 C    0.953
    58   1 H    1.021 --    34 C    0.982
    59   1 H    1.050 --    35 C    0.987
    60   1 H    1.033 --    37 C    0.998
    61   1 H    1.017 --    38 C    0.992
    62   6 C    3.824 --   100 C    1.387    63 C    1.375   102 H    0.995
    63   6 C    3.925 --    62 C    1.375    64 C    1.238    67 N    1.229
    64   6 C    3.844 --    65 C    1.603    63 C    1.238   103 H    0.992
    65   6 C    3.826 --    64 C    1.603    66 C    1.248   104 H    0.998
    66   6 C    3.902 --    68 C    1.342    65 C    1.248    67 N    1.233
    67   7 N    3.250 --    66 C    1.233    63 C    1.229   105 H    0.960
    68   6 C    3.846 --    77 C    1.365    66 C    1.342    69 C    1.056
    69   6 C    3.898 --    76 C    1.415    70 C    1.411    68 C    1.056
    70   6 C    3.869 --    71 C    1.472    69 C    1.411   106 H    0.988
    71   6 C    3.892 --    70 C    1.472    72 C    1.390   107 H    0.987
    72   6 C    3.939 --    71 C    1.390    75 C    1.385    73 C    1.080
    73   6 C    4.002 --    74 O    1.945    72 C    1.080   108 H    0.953
    74   8 O    2.068 --    73 C    1.945
    75   6 C    3.889 --    76 C    1.467    72 C    1.385   109 H    0.982
    76   6 C    3.859 --    75 C    1.467    69 C    1.415   110 H    0.987
    77   6 C    3.928 --    68 C    1.365    80 N    1.361    78 C    1.159
    78   6 C    3.841 --    79 C    1.698    77 C    1.159   111 H    0.998
    79   6 C    3.855 --    78 C    1.698    81 C    1.163   112 H    0.998
    80   7 N    2.571 --    81 C    1.408    77 C    1.361
    81   6 C    3.946 --    80 N    1.408    82 C    1.298    79 C    1.163
    82   6 C    3.858 --    81 C    1.298    83 C    1.298   158 C    1.202
    83   6 C    3.907 --    82 C    1.298    84 C    1.261    87 N    1.247
    84   6 C    3.838 --    85 C    1.592    83 C    1.261   113 H    0.997
    85   6 C    3.821 --    84 C    1.592    86 C    1.253   114 H    0.997
    86   6 C    3.897 --    88 C    1.347    85 C    1.253    87 N    1.225
    87   7 N    3.259 --    83 C    1.247    86 C    1.225   115 H    0.959
    88   6 C    3.835 --    97 C    1.352    86 C    1.347    89 C    1.058
    89   6 C    3.898 --    96 C    1.414    90 C    1.410    88 C    1.058
    90   6 C    3.864 --    91 C    1.472    89 C    1.410   116 H    0.988
    91   6 C    3.892 --    90 C    1.472    92 C    1.390   117 H    0.987
    92   6 C    3.938 --    91 C    1.390    95 C    1.385    93 C    1.081
    93   6 C    4.001 --    94 O    1.945    92 C    1.081   118 H    0.953
    94   8 O    2.067 --    93 C    1.945
    95   6 C    3.889 --    96 C    1.468    92 C    1.385   119 H    0.982
    96   6 C    3.862 --    95 C    1.468    89 C    1.414   120 H    0.987
    97   6 C    3.947 --   101 N    1.386    88 C    1.352    98 C    1.152
    98   6 C    3.843 --    99 C    1.709    97 C    1.152   121 H    0.998
    99   6 C    3.865 --    98 C    1.709   100 C    1.146   122 H    0.992
   100   6 C    3.967 --    62 C    1.387   101 N    1.373    99 C    1.146
   101   7 N    2.560 --    97 C    1.386   100 C    1.373
   102   1 H    1.031 --    62 C    0.995
   103   1 H    1.014 --    64 C    0.992
   104   1 H    1.029 --    65 C    0.998
   105   1 H    1.080 --    67 N    0.960
   106   1 H    1.047 --    70 C    0.988
   107   1 H    1.041 --    71 C    0.987
   108   1 H    1.010 --    73 C    0.953
   109   1 H    1.020 --    75 C    0.982
   110   1 H    1.046 --    76 C    0.987
   111   1 H    1.033 --    78 C    0.998
   112   1 H    1.029 --    79 C    0.998
   113   1 H    1.025 --    84 C    0.997
   114   1 H    1.030 --    85 C    0.997
   115   1 H    1.084 --    87 N    0.959
   116   1 H    1.044 --    90 C    0.988
   117   1 H    1.041 --    91 C    0.987
   118   1 H    1.010 --    93 C    0.953
   119   1 H    1.021 --    95 C    0.982
   120   1 H    1.049 --    96 C    0.987
   121   1 H    1.033 --    98 C    0.998
   122   1 H    1.017 --    99 C    0.992
   123   6 C    3.803 --   124 C    2.513   125 C    1.316
   124   6 C    3.798 --   123 C    2.513    21 C    1.206   126 C    0.181
   125   6 C    3.798 --   126 C    2.511   123 C    1.316
   126   6 C    3.801 --   125 C    2.511   159 C    1.210   124 C    0.181
   127   6 C    3.800 --   128 C    2.494   129 C    1.333
   128   6 C    3.801 --   127 C    2.494   179 C    1.226   130 C    0.181
   129   6 C    3.799 --   130 C    2.493   127 C    1.333
   130   6 C    3.802 --   129 C    2.493   219 C    1.226   128 C    0.181
   131   6 C    3.799 --   132 C    2.493   133 C    1.334
   132   6 C    3.801 --   131 C    2.493   239 C    1.227   134 C    0.181
   133   6 C    3.800 --   134 C    2.493   131 C    1.334
   134   6 C    3.801 --   133 C    2.493   279 C    1.227   132 C    0.181
   135   6 C    3.800 --   136 C    2.494   137 C    1.333
   136   6 C    3.802 --   135 C    2.494   299 C    1.226   138 C    0.181
   137   6 C    3.800 --   138 C    2.494   135 C    1.333
   138   6 C    3.802 --   137 C    2.494   339 C    1.226   136 C    0.181
   139   6 C    3.800 --   140 C    2.494   141 C    1.333
   140   6 C    3.802 --   139 C    2.494   359 C    1.226   142 C    0.181
   141   6 C    3.800 --   142 C    2.494   139 C    1.333
   142   6 C    3.802 --   141 C    2.494   399 C    1.226   140 C    0.181
   143   6 C    3.800 --   144 C    2.494   145 C    1.333
   144   6 C    3.802 --   143 C    2.494   419 C    1.226   146 C    0.181
   145   6 C    3.800 --   146 C    2.494   143 C    1.333
   146   6 C    3.802 --   145 C    2.494   459 C    1.226   144 C    0.181
   147   6 C    3.800 --   148 C    2.493   149 C    1.334
   148   6 C    3.801 --   147 C    2.493   479 C    1.226   150 C    0.181
   149   6 C    3.799 --   150 C    2.493   147 C    1.334
   150   6 C    3.801 --   149 C    2.493   519 C    1.227   148 C    0.181
   151   6 C    3.799 --   152 C    2.494   153 C    1.333
   152   6 C    3.802 --   151 C    2.494   539 C    1.226   154 C    0.181
   153   6 C    3.800 --   154 C    2.495   151 C    1.333
   154   6 C    3.801 --   153 C    2.495   579 C    1.225   152 C    0.181
   155   6 C    3.798 --   156 C    2.515   157 C    1.313
   156   6 C    3.800 --   155 C    2.515   599 C    1.206   158 C    0.181
   157   6 C    3.804 --   158 C    2.518   155 C    1.313
   158   6 C    3.797 --   157 C    2.518    82 C    1.202   156 C    0.181
   159   6 C    3.834 --   197 C    1.293   160 C    1.289   126 C    1.210
   160   6 C    3.907 --   159 C    1.289   161 C    1.267   164 N    1.250
   161   6 C    3.829 --   162 C    1.582   160 C    1.267   199 H    0.998
   162   6 C    3.820 --   161 C    1.582   163 C    1.261   200 H    0.998
   163   6 C    3.888 --   165 C    1.338   162 C    1.261   164 N    1.224
   164   7 N    3.250 --   160 C    1.250   163 C    1.224   201 H    0.961
   165   6 C    3.837 --   174 C    1.370   163 C    1.338   166 C    1.055
   166   6 C    3.899 --   173 C    1.416   167 C    1.411   165 C    1.055
   167   6 C    3.868 --   168 C    1.472   166 C    1.411   202 H    0.988
   168   6 C    3.892 --   167 C    1.472   169 C    1.390   203 H    0.987
   169   6 C    3.939 --   168 C    1.390   172 C    1.385   170 C    1.080
   170   6 C    4.002 --   171 O    1.945   169 C    1.080   204 H    0.953
   171   8 O    2.068 --   170 C    1.945
   172   6 C    3.889 --   173 C    1.467   169 C    1.385   205 H    0.982
   173   6 C    3.858 --   172 C    1.467   166 C    1.416   206 H    0.987
   174   6 C    3.924 --   165 C    1.370   177 N    1.355   175 C    1.161
   175   6 C    3.839 --   176 C    1.693   174 C    1.161   207 H    0.998
   176   6 C    3.850 --   175 C    1.693   178 C    1.166   208 H    0.999
   177   7 N    2.555 --   178 C    1.416   174 C    1.355
   178   6 C    3.944 --   177 N    1.416   179 C    1.286   176 C    1.166
   179   6 C    3.835 --   178 C    1.286   180 C    1.283   128 C    1.226
   180   6 C    3.904 --   179 C    1.283   181 C    1.270   184 N    1.251
   181   6 C    3.830 --   182 C    1.580   180 C    1.270   209 H    0.998
   182   6 C    3.818 --   181 C    1.580   183 C    1.262   210 H    0.998
   183   6 C    3.888 --   185 C    1.336   182 C    1.262   184 N    1.225
   184   7 N    3.252 --   180 C    1.251   183 C    1.225   211 H    0.961
   185   6 C    3.834 --   194 C    1.370   183 C    1.336   186 C    1.055
   186   6 C    3.898 --   187 C    1.416   193 C    1.411   185 C    1.055
   187   6 C    3.862 --   188 C    1.467   186 C    1.416   212 H    0.987
   188   6 C    3.889 --   187 C    1.467   189 C    1.385   213 H    0.982
   189   6 C    3.938 --   192 C    1.390   188 C    1.385   190 C    1.080
   190   6 C    4.001 --   191 O    1.945   189 C    1.080   214 H    0.953
   191   8 O    2.067 --   190 C    1.945
   192   6 C    3.892 --   193 C    1.472   189 C    1.390   215 H    0.987
   193   6 C    3.864 --   192 C    1.472   186 C    1.411   216 H    0.988
   194   6 C    3.926 --   185 C    1.370   198 N    1.356   195 C    1.159
   195   6 C    3.840 --   196 C    1.696   194 C    1.159   217 H    0.998
   196   6 C    3.850 --   195 C    1.696   197 C    1.164   218 H    0.999
   197   6 C    3.947 --   198 N    1.411   159 C    1.293   196 C    1.164
   198   7 N    2.551 --   197 C    1.411   194 C    1.356
   199   1 H    1.025 --   161 C    0.998
   200   1 H    1.030 --   162 C    0.998
   201   1 H    1.081 --   164 N    0.961
   202   1 H    1.047 --   167 C    0.988
   203   1 H    1.041 --   168 C    0.987
   204   1 H    1.010 --   170 C    0.953
   205   1 H    1.021 --   172 C    0.982
   206   1 H    1.047 --   173 C    0.987
   207   1 H    1.034 --   175 C    0.998
   208   1 H    1.029 --   176 C    0.999
   209   1 H    1.024 --   181 C    0.998
   210   1 H    1.030 --   182 C    0.998
   211   1 H    1.082 --   184 N    0.961
   212   1 H    1.050 --   187 C    0.987
   213   1 H    1.021 --   188 C    0.982
   214   1 H    1.010 --   190 C    0.953
   215   1 H    1.041 --   192 C    0.987
   216   1 H    1.044 --   193 C    0.988
   217   1 H    1.034 --   195 C    0.998
   218   1 H    1.029 --   196 C    0.999
   219   6 C    3.831 --   257 C    1.285   220 C    1.282   130 C    1.226
   220   6 C    3.905 --   219 C    1.282   221 C    1.271   224 N    1.252
   221   6 C    3.829 --   222 C    1.579   220 C    1.271   259 H    0.998
   222   6 C    3.818 --   221 C    1.579   223 C    1.263   260 H    0.998
   223   6 C    3.887 --   225 C    1.335   222 C    1.263   224 N    1.224
   224   7 N    3.250 --   220 C    1.252   223 C    1.224   261 H    0.961
   225   6 C    3.835 --   234 C    1.371   223 C    1.335   226 C    1.056
   226   6 C    3.898 --   233 C    1.415   227 C    1.411   225 C    1.056
   227   6 C    3.868 --   228 C    1.472   226 C    1.411   262 H    0.988
   228   6 C    3.892 --   227 C    1.472   229 C    1.390   263 H    0.987
   229   6 C    3.938 --   228 C    1.390   232 C    1.385   230 C    1.080
   230   6 C    4.001 --   231 O    1.945   229 C    1.080   264 H    0.953
   231   8 O    2.068 --   230 C    1.945
   232   6 C    3.889 --   233 C    1.467   229 C    1.385   265 H    0.982
   233   6 C    3.858 --   232 C    1.467   226 C    1.415   266 H    0.987
   234   6 C    3.925 --   225 C    1.371   237 N    1.353   235 C    1.161
   235   6 C    3.839 --   236 C    1.693   234 C    1.161   267 H    0.998
   236   6 C    3.849 --   235 C    1.693   238 C    1.166   268 H    0.999
   237   7 N    2.552 --   238 C    1.417   234 C    1.353
   238   6 C    3.944 --   237 N    1.417   239 C    1.285   236 C    1.166
   239   6 C    3.832 --   238 C    1.285   240 C    1.282   132 C    1.227
   240   6 C    3.905 --   239 C    1.282   241 C    1.271   244 N    1.252
   241   6 C    3.829 --   242 C    1.579   240 C    1.271   269 H    0.998
   242   6 C    3.818 --   241 C    1.579   243 C    1.263   270 H    0.998
   243   6 C    3.887 --   245 C    1.335   242 C    1.263   244 N    1.224
   244   7 N    3.251 --   240 C    1.252   243 C    1.224   271 H    0.961
   245   6 C    3.835 --   254 C    1.372   243 C    1.335   246 C    1.056
   246   6 C    3.898 --   247 C    1.415   253 C    1.410   245 C    1.056
   247   6 C    3.862 --   248 C    1.467   246 C    1.415   272 H    0.988
   248   6 C    3.889 --   247 C    1.467   249 C    1.385   273 H    0.982
   249   6 C    3.938 --   252 C    1.390   248 C    1.385   250 C    1.080
   250   6 C    4.001 --   251 O    1.945   249 C    1.080   274 H    0.953
   251   8 O    2.067 --   250 C    1.945
   252   6 C    3.892 --   253 C    1.472   249 C    1.390   275 H    0.987
   253   6 C    3.864 --   252 C    1.472   246 C    1.410   276 H    0.988
   254   6 C    3.924 --   245 C    1.372   258 N    1.353   255 C    1.161
   255   6 C    3.839 --   256 C    1.693   254 C    1.161   277 H    0.998
   256   6 C    3.849 --   255 C    1.693   257 C    1.166   278 H    0.999
   257   6 C    3.944 --   258 N    1.416   219 C    1.285   256 C    1.166
   258   7 N    2.551 --   257 C    1.416   254 C    1.353
   259   1 H    1.025 --   221 C    0.998
   260   1 H    1.030 --   222 C    0.998
   261   1 H    1.082 --   224 N    0.961
   262   1 H    1.047 --   227 C    0.988
   263   1 H    1.041 --   228 C    0.987
   264   1 H    1.010 --   230 C    0.953
   265   1 H    1.021 --   232 C    0.982
   266   1 H    1.047 --   233 C    0.987
   267   1 H    1.034 --   235 C    0.998
   268   1 H    1.029 --   236 C    0.999
   269   1 H    1.025 --   241 C    0.998
   270   1 H    1.030 --   242 C    0.998
   271   1 H    1.082 --   244 N    0.961
   272   1 H    1.050 --   247 C    0.988
   273   1 H    1.021 --   248 C    0.982
   274   1 H    1.010 --   250 C    0.953
   275   1 H    1.041 --   252 C    0.987
   276   1 H    1.044 --   253 C    0.988
   277   1 H    1.034 --   255 C    0.998
   278   1 H    1.029 --   256 C    0.999
   279   6 C    3.833 --   317 C    1.285   280 C    1.282   134 C    1.227
   280   6 C    3.905 --   279 C    1.282   281 C    1.271   284 N    1.252
   281   6 C    3.829 --   282 C    1.579   280 C    1.271   319 H    0.998
   282   6 C    3.818 --   281 C    1.579   283 C    1.263   320 H    0.998
   283   6 C    3.888 --   285 C    1.335   282 C    1.263   284 N    1.224
   284   7 N    3.251 --   280 C    1.252   283 C    1.224   321 H    0.961
   285   6 C    3.835 --   294 C    1.371   283 C    1.335   286 C    1.056
   286   6 C    3.898 --   293 C    1.415   287 C    1.411   285 C    1.056
   287   6 C    3.868 --   288 C    1.472   286 C    1.411   322 H    0.988
   288   6 C    3.892 --   287 C    1.472   289 C    1.390   323 H    0.987
   289   6 C    3.938 --   288 C    1.390   292 C    1.385   290 C    1.080
   290   6 C    4.001 --   291 O    1.945   289 C    1.080   324 H    0.953
   291   8 O    2.068 --   290 C    1.945
   292   6 C    3.889 --   293 C    1.467   289 C    1.385   325 H    0.982
   293   6 C    3.858 --   292 C    1.467   286 C    1.415   326 H    0.987
   294   6 C    3.925 --   285 C    1.371   297 N    1.354   295 C    1.161
   295   6 C    3.839 --   296 C    1.694   294 C    1.161   327 H    0.998
   296   6 C    3.850 --   295 C    1.694   298 C    1.166   328 H    0.999
   297   7 N    2.552 --   298 C    1.416   294 C    1.354
   298   6 C    3.944 --   297 N    1.416   299 C    1.286   296 C    1.166
   299   6 C    3.833 --   298 C    1.286   300 C    1.283   136 C    1.226
   300   6 C    3.905 --   299 C    1.283   301 C    1.270   304 N    1.252
   301   6 C    3.830 --   302 C    1.580   300 C    1.270   329 H    0.998
   302   6 C    3.819 --   301 C    1.580   303 C    1.263   330 H    0.998
   303   6 C    3.888 --   305 C    1.336   302 C    1.263   304 N    1.224
   304   7 N    3.250 --   300 C    1.252   303 C    1.224   331 H    0.961
   305   6 C    3.835 --   314 C    1.371   303 C    1.336   306 C    1.056
   306   6 C    3.898 --   307 C    1.415   313 C    1.410   305 C    1.056
   307   6 C    3.862 --   308 C    1.467   306 C    1.415   332 H    0.987
   308   6 C    3.889 --   307 C    1.467   309 C    1.385   333 H    0.982
   309   6 C    3.938 --   312 C    1.390   308 C    1.385   310 C    1.080
   310   6 C    4.001 --   311 O    1.945   309 C    1.080   334 H    0.953
   311   8 O    2.067 --   310 C    1.945
   312   6 C    3.892 --   313 C    1.472   309 C    1.390   335 H    0.987
   313   6 C    3.864 --   312 C    1.472   306 C    1.410   336 H    0.988
   314   6 C    3.925 --   305 C    1.371   318 N    1.354   315 C    1.161
   315   6 C    3.839 --   316 C    1.693   314 C    1.161   337 H    0.998
   316   6 C    3.849 --   315 C    1.693   317 C    1.166   338 H    0.999
   317   6 C    3.944 --   318 N    1.416   279 C    1.285   316 C    1.166
   318   7 N    2.552 --   317 C    1.416   314 C    1.354
   319   1 H    1.024 --   281 C    0.998
   320   1 H    1.030 --   282 C    0.998
   321   1 H    1.082 --   284 N    0.961
   322   1 H    1.047 --   287 C    0.988
   323   1 H    1.041 --   288 C    0.987
   324   1 H    1.010 --   290 C    0.953
   325   1 H    1.020 --   292 C    0.982
   326   1 H    1.046 --   293 C    0.987
   327   1 H    1.034 --   295 C    0.998
   328   1 H    1.029 --   296 C    0.999
   329   1 H    1.024 --   301 C    0.998
   330   1 H    1.030 --   302 C    0.998
   331   1 H    1.082 --   304 N    0.961
   332   1 H    1.050 --   307 C    0.987
   333   1 H    1.021 --   308 C    0.982
   334   1 H    1.010 --   310 C    0.953
   335   1 H    1.041 --   312 C    0.987
   336   1 H    1.044 --   313 C    0.988
   337   1 H    1.034 --   315 C    0.998
   338   1 H    1.029 --   316 C    0.999
   339   6 C    3.834 --   377 C    1.286   340 C    1.283   138 C    1.226
   340   6 C    3.905 --   339 C    1.283   341 C    1.270   344 N    1.252
   341   6 C    3.830 --   342 C    1.580   340 C    1.270   379 H    0.998
   342   6 C    3.819 --   341 C    1.580   343 C    1.263   380 H    0.998
   343   6 C    3.888 --   345 C    1.336   342 C    1.263   344 N    1.224
   344   7 N    3.251 --   340 C    1.252   343 C    1.224   381 H    0.961
   345   6 C    3.835 --   354 C    1.371   343 C    1.336   346 C    1.056
   346   6 C    3.898 --   353 C    1.415   347 C    1.411   345 C    1.056
   347   6 C    3.868 --   348 C    1.472   346 C    1.411   382 H    0.988
   348   6 C    3.892 --   347 C    1.472   349 C    1.390   383 H    0.987
   349   6 C    3.938 --   348 C    1.390   352 C    1.385   350 C    1.080
   350   6 C    4.001 --   351 O    1.945   349 C    1.080   384 H    0.953
   351   8 O    2.068 --   350 C    1.945
   352   6 C    3.889 --   353 C    1.467   349 C    1.385   385 H    0.982
   353   6 C    3.858 --   352 C    1.467   346 C    1.415   386 H    0.987
   354   6 C    3.925 --   345 C    1.371   357 N    1.354   355 C    1.161
   355   6 C    3.839 --   356 C    1.694   354 C    1.161   387 H    0.998
   356   6 C    3.850 --   355 C    1.694   358 C    1.166   388 H    0.999
   357   7 N    2.553 --   358 C    1.416   354 C    1.354
   358   6 C    3.944 --   357 N    1.416   359 C    1.286   356 C    1.166
   359   6 C    3.835 --   358 C    1.286   360 C    1.283   140 C    1.226
   360   6 C    3.905 --   359 C    1.283   361 C    1.270   364 N    1.252
   361   6 C    3.830 --   362 C    1.580   360 C    1.270   389 H    0.998
   362   6 C    3.819 --   361 C    1.580   363 C    1.262   390 H    0.998
   363   6 C    3.888 --   365 C    1.336   362 C    1.262   364 N    1.224
   364   7 N    3.251 --   360 C    1.252   363 C    1.224   391 H    0.961
   365   6 C    3.835 --   374 C    1.371   363 C    1.336   366 C    1.056
   366   6 C    3.898 --   367 C    1.415   373 C    1.410   365 C    1.056
   367   6 C    3.862 --   368 C    1.467   366 C    1.415   392 H    0.987
   368   6 C    3.889 --   367 C    1.467   369 C    1.385   393 H    0.982
   369   6 C    3.938 --   372 C    1.390   368 C    1.385   370 C    1.080
   370   6 C    4.001 --   371 O    1.945   369 C    1.080   394 H    0.953
   371   8 O    2.067 --   370 C    1.945
   372   6 C    3.892 --   373 C    1.472   369 C    1.390   395 H    0.987
   373   6 C    3.863 --   372 C    1.472   366 C    1.410   396 H    0.988
   374   6 C    3.925 --   365 C    1.371   378 N    1.354   375 C    1.161
   375   6 C    3.839 --   376 C    1.693   374 C    1.161   397 H    0.998
   376   6 C    3.850 --   375 C    1.693   377 C    1.166   398 H    0.999
   377   6 C    3.944 --   378 N    1.416   339 C    1.286   376 C    1.166
   378   7 N    2.553 --   377 C    1.416   374 C    1.354
   379   1 H    1.024 --   341 C    0.998
   380   1 H    1.030 --   342 C    0.998
   381   1 H    1.082 --   344 N    0.961
   382   1 H    1.047 --   347 C    0.988
   383   1 H    1.041 --   348 C    0.987
   384   1 H    1.010 --   350 C    0.953
   385   1 H    1.020 --   352 C    0.982
   386   1 H    1.046 --   353 C    0.987
   387   1 H    1.034 --   355 C    0.998
   388   1 H    1.029 --   356 C    0.999
   389   1 H    1.024 --   361 C    0.998
   390   1 H    1.030 --   362 C    0.998
   391   1 H    1.082 --   364 N    0.961
   392   1 H    1.050 --   367 C    0.987
   393   1 H    1.021 --   368 C    0.982
   394   1 H    1.010 --   370 C    0.953
   395   1 H    1.041 --   372 C    0.987
   396   1 H    1.044 --   373 C    0.988
   397   1 H    1.034 --   375 C    0.998
   398   1 H    1.029 --   376 C    0.999
   399   6 C    3.834 --   437 C    1.286   400 C    1.283   142 C    1.226
   400   6 C    3.905 --   399 C    1.283   401 C    1.270   404 N    1.252
   401   6 C    3.830 --   402 C    1.580   400 C    1.270   439 H    0.998
   402   6 C    3.819 --   401 C    1.580   403 C    1.263   440 H    0.998
   403   6 C    3.888 --   405 C    1.336   402 C    1.263   404 N    1.224
   404   7 N    3.251 --   400 C    1.252   403 C    1.224   441 H    0.961
   405   6 C    3.835 --   414 C    1.371   403 C    1.336   406 C    1.056
   406   6 C    3.898 --   413 C    1.415   407 C    1.411   405 C    1.056
   407   6 C    3.868 --   408 C    1.472   406 C    1.411   442 H    0.988
   408   6 C    3.892 --   407 C    1.472   409 C    1.390   443 H    0.987
   409   6 C    3.938 --   408 C    1.390   412 C    1.385   410 C    1.080
   410   6 C    4.001 --   411 O    1.945   409 C    1.080   444 H    0.953
   411   8 O    2.068 --   410 C    1.945
   412   6 C    3.889 --   413 C    1.467   409 C    1.385   445 H    0.982
   413   6 C    3.858 --   412 C    1.467   406 C    1.415   446 H    0.987
   414   6 C    3.925 --   405 C    1.371   417 N    1.354   415 C    1.161
   415   6 C    3.839 --   416 C    1.694   414 C    1.161   447 H    0.998
   416   6 C    3.850 --   415 C    1.694   418 C    1.166   448 H    0.999
   417   7 N    2.553 --   418 C    1.416   414 C    1.354
   418   6 C    3.944 --   417 N    1.416   419 C    1.286   416 C    1.166
   419   6 C    3.834 --   418 C    1.286   420 C    1.283   144 C    1.226
   420   6 C    3.905 --   419 C    1.283   421 C    1.270   424 N    1.252
   421   6 C    3.830 --   422 C    1.580   420 C    1.270   449 H    0.998
   422   6 C    3.819 --   421 C    1.580   423 C    1.263   450 H    0.998
   423   6 C    3.888 --   425 C    1.335   422 C    1.263   424 N    1.224
   424   7 N    3.251 --   420 C    1.252   423 C    1.224   451 H    0.961
   425   6 C    3.835 --   434 C    1.371   423 C    1.335   426 C    1.056
   426   6 C    3.898 --   427 C    1.415   433 C    1.410   425 C    1.056
   427   6 C    3.862 --   428 C    1.467   426 C    1.415   452 H    0.987
   428   6 C    3.889 --   427 C    1.467   429 C    1.385   453 H    0.982
   429   6 C    3.938 --   432 C    1.390   428 C    1.385   430 C    1.080
   430   6 C    4.001 --   431 O    1.945   429 C    1.080   454 H    0.953
   431   8 O    2.067 --   430 C    1.945
   432   6 C    3.892 --   433 C    1.472   429 C    1.390   455 H    0.987
   433   6 C    3.863 --   432 C    1.472   426 C    1.410   456 H    0.988
   434   6 C    3.925 --   425 C    1.371   438 N    1.354   435 C    1.161
   435   6 C    3.839 --   436 C    1.693   434 C    1.161   457 H    0.998
   436   6 C    3.850 --   435 C    1.693   437 C    1.166   458 H    0.999
   437   6 C    3.944 --   438 N    1.416   399 C    1.286   436 C    1.166
   438   7 N    2.553 --   437 C    1.416   434 C    1.354
   439   1 H    1.024 --   401 C    0.998
   440   1 H    1.030 --   402 C    0.998
   441   1 H    1.082 --   404 N    0.961
   442   1 H    1.047 --   407 C    0.988
   443   1 H    1.041 --   408 C    0.987
   444   1 H    1.010 --   410 C    0.953
   445   1 H    1.020 --   412 C    0.982
   446   1 H    1.046 --   413 C    0.987
   447   1 H    1.034 --   415 C    0.998
   448   1 H    1.029 --   416 C    0.999
   449   1 H    1.024 --   421 C    0.998
   450   1 H    1.030 --   422 C    0.998
   451   1 H    1.082 --   424 N    0.961
   452   1 H    1.050 --   427 C    0.987
   453   1 H    1.021 --   428 C    0.982
   454   1 H    1.010 --   430 C    0.953
   455   1 H    1.041 --   432 C    0.987
   456   1 H    1.044 --   433 C    0.988
   457   1 H    1.034 --   435 C    0.998
   458   1 H    1.029 --   436 C    0.999
   459   6 C    3.833 --   497 C    1.285   460 C    1.282   146 C    1.226
   460   6 C    3.905 --   459 C    1.282   461 C    1.270   464 N    1.252
   461   6 C    3.829 --   462 C    1.579   460 C    1.270   499 H    0.998
   462   6 C    3.819 --   461 C    1.579   463 C    1.263   500 H    0.998
   463   6 C    3.888 --   465 C    1.336   462 C    1.263   464 N    1.224
   464   7 N    3.250 --   460 C    1.252   463 C    1.224   501 H    0.961
   465   6 C    3.835 --   474 C    1.371   463 C    1.336   466 C    1.056
   466   6 C    3.898 --   473 C    1.415   467 C    1.411   465 C    1.056
   467   6 C    3.868 --   468 C    1.472   466 C    1.411   502 H    0.988
   468   6 C    3.892 --   467 C    1.472   469 C    1.390   503 H    0.987
   469   6 C    3.938 --   468 C    1.390   472 C    1.385   470 C    1.080
   470   6 C    4.001 --   471 O    1.945   469 C    1.080   504 H    0.953
   471   8 O    2.068 --   470 C    1.945
   472   6 C    3.889 --   473 C    1.467   469 C    1.385   505 H    0.982
   473   6 C    3.858 --   472 C    1.467   466 C    1.415   506 H    0.987
   474   6 C    3.925 --   465 C    1.371   477 N    1.354   475 C    1.161
   475   6 C    3.839 --   476 C    1.693   474 C    1.161   507 H    0.998
   476   6 C    3.850 --   475 C    1.693   478 C    1.166   508 H    0.999
   477   7 N    2.552 --   478 C    1.416   474 C    1.354
   478   6 C    3.944 --   477 N    1.416   479 C    1.285   476 C    1.166
   479   6 C    3.833 --   478 C    1.285   480 C    1.282   148 C    1.226
   480   6 C    3.905 --   479 C    1.282   481 C    1.270   484 N    1.252
   481   6 C    3.829 --   482 C    1.579   480 C    1.270   509 H    0.998
   482   6 C    3.818 --   481 C    1.579   483 C    1.263   510 H    0.998
   483   6 C    3.888 --   485 C    1.335   482 C    1.263   484 N    1.224
   484   7 N    3.251 --   480 C    1.252   483 C    1.224   511 H    0.961
   485   6 C    3.835 --   494 C    1.371   483 C    1.335   486 C    1.056
   486   6 C    3.898 --   487 C    1.415   493 C    1.410   485 C    1.056
   487   6 C    3.862 --   488 C    1.467   486 C    1.415   512 H    0.987
   488   6 C    3.889 --   487 C    1.467   489 C    1.385   513 H    0.982
   489   6 C    3.938 --   492 C    1.390   488 C    1.385   490 C    1.080
   490   6 C    4.001 --   491 O    1.945   489 C    1.080   514 H    0.953
   491   8 O    2.067 --   490 C    1.945
   492   6 C    3.892 --   493 C    1.472   489 C    1.390   515 H    0.987
   493   6 C    3.863 --   492 C    1.472   486 C    1.410   516 H    0.988
   494   6 C    3.925 --   485 C    1.371   498 N    1.354   495 C    1.161
   495   6 C    3.839 --   496 C    1.693   494 C    1.161   517 H    0.998
   496   6 C    3.850 --   495 C    1.693   497 C    1.166   518 H    0.999
   497   6 C    3.944 --   498 N    1.416   459 C    1.285   496 C    1.166
   498   7 N    2.552 --   497 C    1.416   494 C    1.354
   499   1 H    1.024 --   461 C    0.998
   500   1 H    1.030 --   462 C    0.998
   501   1 H    1.082 --   464 N    0.961
   502   1 H    1.047 --   467 C    0.988
   503   1 H    1.041 --   468 C    0.987
   504   1 H    1.010 --   470 C    0.953
   505   1 H    1.020 --   472 C    0.982
   506   1 H    1.046 --   473 C    0.987
   507   1 H    1.034 --   475 C    0.998
   508   1 H    1.029 --   476 C    0.999
   509   1 H    1.025 --   481 C    0.998
   510   1 H    1.030 --   482 C    0.998
   511   1 H    1.082 --   484 N    0.961
   512   1 H    1.050 --   487 C    0.987
   513   1 H    1.021 --   488 C    0.982
   514   1 H    1.010 --   490 C    0.953
   515   1 H    1.041 --   492 C    0.987
   516   1 H    1.044 --   493 C    0.988
   517   1 H    1.034 --   495 C    0.998
   518   1 H    1.029 --   496 C    0.999
   519   6 C    3.832 --   557 C    1.285   520 C    1.282   150 C    1.227
   520   6 C    3.905 --   519 C    1.282   521 C    1.271   524 N    1.252
   521   6 C    3.829 --   522 C    1.579   520 C    1.271   559 H    0.998
   522   6 C    3.818 --   521 C    1.579   523 C    1.263   560 H    0.998
   523   6 C    3.887 --   525 C    1.335   522 C    1.263   524 N    1.224
   524   7 N    3.251 --   520 C    1.252   523 C    1.224   561 H    0.961
   525   6 C    3.835 --   534 C    1.372   523 C    1.335   526 C    1.056
   526   6 C    3.898 --   533 C    1.415   527 C    1.410   525 C    1.056
   527   6 C    3.868 --   528 C    1.472   526 C    1.410   562 H    0.988
   528   6 C    3.892 --   527 C    1.472   529 C    1.390   563 H    0.987
   529   6 C    3.938 --   528 C    1.390   532 C    1.385   530 C    1.080
   530   6 C    4.001 --   531 O    1.945   529 C    1.080   564 H    0.953
   531   8 O    2.067 --   530 C    1.945
   532   6 C    3.889 --   533 C    1.467   529 C    1.385   565 H    0.982
   533   6 C    3.858 --   532 C    1.467   526 C    1.415   566 H    0.987
   534   6 C    3.925 --   525 C    1.372   537 N    1.353   535 C    1.161
   535   6 C    3.839 --   536 C    1.693   534 C    1.161   567 H    0.998
   536   6 C    3.849 --   535 C    1.693   538 C    1.166   568 H    0.999
   537   7 N    2.551 --   538 C    1.416   534 C    1.353
   538   6 C    3.944 --   537 N    1.416   539 C    1.285   536 C    1.166
   539   6 C    3.832 --   538 C    1.285   540 C    1.282   152 C    1.226
   540   6 C    3.905 --   539 C    1.282   541 C    1.270   544 N    1.252
   541   6 C    3.829 --   542 C    1.579   540 C    1.270   569 H    0.998
   542   6 C    3.818 --   541 C    1.579   543 C    1.263   570 H    0.998
   543   6 C    3.887 --   545 C    1.335   542 C    1.263   544 N    1.224
   544   7 N    3.250 --   540 C    1.252   543 C    1.224   571 H    0.961
   545   6 C    3.835 --   554 C    1.371   543 C    1.335   546 C    1.056
   546   6 C    3.898 --   547 C    1.416   553 C    1.411   545 C    1.056
   547   6 C    3.862 --   548 C    1.467   546 C    1.416   572 H    0.987
   548   6 C    3.889 --   547 C    1.467   549 C    1.385   573 H    0.982
   549   6 C    3.938 --   552 C    1.390   548 C    1.385   550 C    1.080
   550   6 C    4.001 --   551 O    1.945   549 C    1.080   574 H    0.953
   551   8 O    2.067 --   550 C    1.945
   552   6 C    3.892 --   553 C    1.472   549 C    1.390   575 H    0.987
   553   6 C    3.864 --   552 C    1.472   546 C    1.411   576 H    0.988
   554   6 C    3.924 --   545 C    1.371   558 N    1.353   555 C    1.161
   555   6 C    3.839 --   556 C    1.693   554 C    1.161   577 H    0.998
   556   6 C    3.849 --   555 C    1.693   557 C    1.166   578 H    0.999
   557   6 C    3.944 --   558 N    1.417   519 C    1.285   556 C    1.166
   558   7 N    2.552 --   557 C    1.417   554 C    1.353
   559   1 H    1.024 --   521 C    0.998
   560   1 H    1.030 --   522 C    0.998
   561   1 H    1.082 --   524 N    0.961
   562   1 H    1.048 --   527 C    0.988
   563   1 H    1.041 --   528 C    0.987
   564   1 H    1.010 --   530 C    0.953
   565   1 H    1.020 --   532 C    0.982
   566   1 H    1.046 --   533 C    0.987
   567   1 H    1.034 --   535 C    0.998
   568   1 H    1.029 --   536 C    0.999
   569   1 H    1.025 --   541 C    0.998
   570   1 H    1.030 --   542 C    0.998
   571   1 H    1.082 --   544 N    0.961
   572   1 H    1.050 --   547 C    0.987
   573   1 H    1.021 --   548 C    0.982
   574   1 H    1.010 --   550 C    0.953
   575   1 H    1.041 --   552 C    0.987
   576   1 H    1.044 --   553 C    0.988
   577   1 H    1.034 --   555 C    0.998
   578   1 H    1.029 --   556 C    0.999
   579   6 C    3.837 --   617 C    1.286   580 C    1.284   154 C    1.225
   580   6 C    3.905 --   579 C    1.284   581 C    1.270   584 N    1.251
   581   6 C    3.831 --   582 C    1.580   580 C    1.270   619 H    0.998
   582   6 C    3.818 --   581 C    1.580   583 C    1.262   620 H    0.998
   583   6 C    3.888 --   585 C    1.336   582 C    1.262   584 N    1.225
   584   7 N    3.252 --   580 C    1.251   583 C    1.225   621 H    0.961
   585   6 C    3.834 --   594 C    1.369   583 C    1.336   586 C    1.056
   586   6 C    3.898 --   593 C    1.416   587 C    1.410   585 C    1.056
   587   6 C    3.868 --   588 C    1.472   586 C    1.410   622 H    0.988
   588   6 C    3.892 --   587 C    1.472   589 C    1.390   623 H    0.987
   589   6 C    3.938 --   588 C    1.390   592 C    1.385   590 C    1.080
   590   6 C    4.001 --   591 O    1.945   589 C    1.080   624 H    0.953
   591   8 O    2.068 --   590 C    1.945
   592   6 C    3.889 --   593 C    1.467   589 C    1.385   625 H    0.982
   593   6 C    3.858 --   592 C    1.467   586 C    1.416   626 H    0.987
   594   6 C    3.927 --   585 C    1.369   597 N    1.358   595 C    1.159
   595   6 C    3.841 --   596 C    1.697   594 C    1.159   627 H    0.998
   596   6 C    3.851 --   595 C    1.697   598 C    1.164   628 H    0.999
   597   7 N    2.552 --   598 C    1.409   594 C    1.358
   598   6 C    3.947 --   597 N    1.409   599 C    1.295   596 C    1.164
   599   6 C    3.836 --   598 C    1.295   600 C    1.291   156 C    1.206
   600   6 C    3.908 --   599 C    1.291   601 C    1.267   604 N    1.249
   601   6 C    3.830 --   602 C    1.584   600 C    1.267   629 H    0.998
   602   6 C    3.821 --   601 C    1.584   603 C    1.260   630 H    0.998
   603   6 C    3.889 --   605 C    1.338   602 C    1.260   604 N    1.224
   604   7 N    3.250 --   600 C    1.249   603 C    1.224   631 H    0.961
   605   6 C    3.838 --   614 C    1.369   603 C    1.338   606 C    1.057
   606   6 C    3.898 --   607 C    1.415   613 C    1.410   605 C    1.057
   607   6 C    3.862 --   608 C    1.467   606 C    1.415   632 H    0.987
   608   6 C    3.889 --   607 C    1.467   609 C    1.385   633 H    0.982
   609   6 C    3.939 --   612 C    1.390   608 C    1.385   610 C    1.080
   610   6 C    4.001 --   611 O    1.945   609 C    1.080   634 H    0.953
   611   8 O    2.067 --   610 C    1.945
   612   6 C    3.892 --   613 C    1.472   609 C    1.390   635 H    0.987
   613   6 C    3.863 --   612 C    1.472   606 C    1.410   636 H    0.988
   614   6 C    3.924 --   605 C    1.369   618 N    1.355   615 C    1.161
   615   6 C    3.839 --   616 C    1.693   614 C    1.161   637 H    0.998
   616   6 C    3.850 --   615 C    1.693   617 C    1.166   638 H    0.999
   617   6 C    3.944 --   618 N    1.415   579 C    1.286   616 C    1.166
   618   7 N    2.556 --   617 C    1.415   614 C    1.355
   619   1 H    1.024 --   581 C    0.998
   620   1 H    1.030 --   582 C    0.998
   621   1 H    1.082 --   584 N    0.961
   622   1 H    1.047 --   587 C    0.988
   623   1 H    1.041 --   588 C    0.987
   624   1 H    1.010 --   590 C    0.953
   625   1 H    1.020 --   592 C    0.982
   626   1 H    1.046 --   593 C    0.987
   627   1 H    1.034 --   595 C    0.998
   628   1 H    1.029 --   596 C    0.999
   629   1 H    1.025 --   601 C    0.998
   630   1 H    1.031 --   602 C    0.998
   631   1 H    1.081 --   604 N    0.961
   632   1 H    1.050 --   607 C    0.987
   633   1 H    1.021 --   608 C    0.982
   634   1 H    1.010 --   610 C    0.953
   635   1 H    1.041 --   612 C    0.987
   636   1 H    1.044 --   613 C    0.988
   637   1 H    1.033 --   615 C    0.998
   638   1 H    1.029 --   616 C    0.999
 ---------------------------------------------------------------------------

Topologies differ in total number of bonds
Writing topology from bond orders to xtbtopo.mol

 dipole moment from electron density (au)
     X       Y       Z   
-394.9295   0.5967   0.6606  total (Debye): 1003.813


           -------------------------------------------------
          | TOTAL ENERGY            -1266.120329383125 Eh   |
          | GRADIENT NORM               0.134963601480 Eh/α |
          | HOMO-LUMO GAP               0.043104596239 eV   |
           -------------------------------------------------
########################################################################
[WARNING] Runtime exception occurred
-1- restart_readRestart: Dimension missmatch in restart file.
########################################################################

------------------------------------------------------------------------
 * finished run on 2022/07/30 at 10:15:12.842     
------------------------------------------------------------------------
 total:
 * wall-time:     0 d,  0 h,  3 min, 27.716 sec
 *  cpu-time:     0 d,  0 h,  3 min, 26.972 sec
 * ratio c/w:     0.996 speedup
 SCF:
 * wall-time:     0 d,  0 h,  3 min, 25.962 sec
 *  cpu-time:     0 d,  0 h,  3 min, 25.249 sec
 * ratio c/w:     0.997 speedup

