638
 energy: -1123.741412168838 gnorm: 0.000646738244 xtb: 6.5.1 (b24c23e)
C          142.81047808017908       -0.09503447095590        0.04334034821573
C          143.42383621059193       -1.31210184028574       -0.22361960987800
C          142.77596631049903       -2.54798161788853       -0.50419988110420
C          143.74126772969467       -3.49527509786325       -0.69744474953774
C          145.01048966036745       -2.87103844585925       -0.52810669010097
N          144.76808727740431       -1.55489027926329       -0.25622143420351
C          146.27700598914694       -3.45781348131620       -0.63128913137032
C          146.31834788843020       -4.91105980945950       -0.91564262997278
C          146.94858759059647       -5.38536208638230       -2.07057696387077
C          146.98342568298190       -6.73947108400631       -2.34099221571213
C          146.39383119767783       -7.65255322229919       -1.46028982561632
C          146.44689620358366       -9.09297860422883       -1.76984481145736
O          146.97285805478947       -9.54696440640102       -2.75361765818922
C          145.76681599788131       -7.18070003806878       -0.30459832007754
C          145.72712327598435       -5.82375308138266       -0.03740230896827
C          147.48980698865009       -2.77787372211740       -0.48743661771184
C          148.79006755839447       -3.42411960004457       -0.51785981281816
C          149.70546064439833       -2.44856589898362       -0.34561643753477
N          147.63649424690530       -1.44153066910163       -0.27918383392802
C          148.96351423217607       -1.21027224782653       -0.20433711958668
C          149.59296528190239        0.03951957291992       -0.04426830366628
C          148.95248863070992        1.28012316599916        0.12854249346204
C          149.59057974904712        2.54227748759428        0.25922706671230
C          148.62080649706871        3.48846717680920        0.44204251606233
C          147.35955898179887        2.82999865980723        0.43884319180448
N          147.61120797355031        1.49989039161139        0.23275795963537
C          146.09527075239748        3.41036535247647        0.59112651106500
C          146.05653033218999        4.86837798910381        0.84601315321412
C          146.69117494750046        5.40864943044407        1.96927089517275
C          146.65163603723968        6.76878248511572        2.20711853408283
C          145.98128098814715        7.62257651211961        1.32476111075202
C          145.95751697554425        9.07085809129271        1.59864343394147
O          146.49366303826469        9.58081012575353        2.54904027856177
C          145.34851422221271        7.08489849892593        0.20126195380944
C          145.38422263349852        5.72211318809383       -0.03362594784006
C          144.88233871913653        2.71531235890799        0.52389622094101
C          143.57771732752292        3.31971153969054        0.74732193331015
C          142.66951906580866        2.33586938798734        0.59173865025507
C          143.41835491715349        1.12951667836579        0.28555460602114
N          144.74812968800686        1.39363115779565        0.26481382323519
H          141.72544020995534       -0.11225129003463        0.06168638138074
H          141.70705689423451       -2.67990680624466       -0.55597008235230
H          143.59296892262552       -4.53397826317446       -0.94431026721574
H          145.49141054850529       -0.85984732130829       -0.10460692386143
H          147.39522904990937       -4.67925170382921       -2.76138253160464
H          147.46499837238090       -7.11440693639488       -3.23772562594390
H          145.95547718247502       -9.74045098462614       -1.01258740882798
H          145.31127191999852       -7.88236011135140        0.38662983071065
H          145.25290547821672       -5.46282639140716        0.86840499545605
H          148.95731928682625       -4.48214901703468       -0.63798923589869
H          150.77966288156784       -2.53297857097134       -0.30797729359403
H          150.65647216733549        2.69688621284449        0.21276100514971
H          148.76318124015452        4.55031732838565        0.55907174723983
H          146.89244018717420        0.78662254036635        0.16701733395674
H          147.19830209621824        4.74866867189684        2.66409596870416
H          147.13582646931098        7.19406118616892        3.07967637148276
H          145.39771677272867        9.66793884149277        0.84752164739904
H          144.82959218670970        7.74035380229510       -0.49061212046815
H          144.90482181873878        5.31000280379821       -0.91438050586191
H          143.40585874917164        4.35294390084325        1.00254268343505
H          141.59559431928062        2.38799582177616        0.67818478515241
C          270.62783297420577        0.04853359414909        0.01199579909124
C          270.01357758457806        1.23228048264449        0.39940527359474
C          270.66051229558889        2.44660402822476        0.76383660106740
C          269.69487945727650        3.35993145977927        1.07981847451102
C          268.42650423121967        2.72928620663605        0.92879216735156
N          268.66955104636514        1.45272704541760        0.50902421279404
C          267.16032457239919        3.28942333067859        1.13307172862497
C          267.12145945894110        4.69226522285386        1.60838092001782
C          266.50024073568557        5.68286714940085        0.84139000005307
C          266.46620185294785        6.99052483565121        1.28543218050773
C          267.04757024375647        7.33793090857356        2.50947023157823
C          266.99416372024763        8.73934332803983        2.96390646410482
O          266.47635153832056        9.62730548283727        2.33626212548646
C          267.66700557375009        6.34910478422163        3.27755695078835
C          267.70613759970900        5.04083206471121        2.82926968270842
C          265.94703908160528        2.62675248452942        0.92725288184392
C          264.64661062500568        3.21057421253609        1.20553254633594
C          263.73138170084218        2.26996576280983        0.89471136344270
N          265.80046620915289        1.35188641137426        0.47566888979649
C          264.47357310909990        1.11070134107921        0.43716679322602
C          263.84436363271760       -0.07983006902964        0.02518877060056
C          264.48308157403687       -1.25955974919399       -0.39726337713428
C          263.84180550006448       -2.44341150344163       -0.85015862105870
C          264.81131765723455       -3.34983750770987       -1.17744318593602
C          266.07633691200863       -2.75019986091992       -0.92281240291443
N          265.82595318043309       -1.48594136022141       -0.46004860833289
C          267.34180674389017       -3.31030392100107       -1.12962852713126
C          267.38284835069391       -4.70297877969780       -1.63125276898440
C          266.80456704406186       -5.74231155484262       -0.89556759264200
C          266.84664761378571       -7.03972593237299       -1.36821540059596
C          267.46293774096745       -7.32853694535828       -2.59036213980645
C          267.49092395572927       -8.72039408583956       -3.07502318520375
O          267.00450578863399       -9.64675715605572       -2.47833572686840
C          268.03958177983532       -6.29117823353490       -3.32734291214477
C          268.00168101143510       -4.99309542647918       -2.85096791393940
C          268.55583197572685       -2.65305090909468       -0.89915564002889
C          269.86376748695676       -3.27174155232856       -1.05359702985947
C          270.77223005058244       -2.32948552931654       -0.73145150075827
C          270.02077697289667       -1.13962815819232       -0.37182708957470
N          268.68937381988633       -1.37460920686349       -0.47550256839668
H          271.71306745144830        0.06325193660097        0.01154141930102
H          271.72898776823115        2.59137394690590        0.77207082802146
H          269.84193595370965        4.38413001366535        1.38194137591478
H          267.94673110371241        0.77112366801356        0.30347382765237
H          266.05962363507456        5.41910570431368       -0.11335404474337
H          265.99106336131598        7.76560742768075        0.69373845287935
H          267.47722670755576        8.91790285822781        3.94830840632936
H          268.11679204966839        6.60891554892855        4.23036821580709
H          268.17474803746995        4.27335740933126        3.43512137887923
H          264.47882695999436        4.19979496578996        1.59930946375248
H          262.65716754424187        2.32666238438509        0.96738105139438
H          262.77381601986110       -2.57197283582845       -0.92111985452695
H          264.66594026974980       -4.34251081056968       -1.57104937220853
H          266.54666854546730       -0.81556804870086       -0.21330577154659
H          266.33980197586141       -5.52532798564121        0.05963263346731
H          266.40608871772088       -7.85202361896614       -0.80012119078293
H          268.00409054385528       -8.85287433590586       -4.05137418985511
H          268.51643154429831       -6.50554698156641       -4.27827235138736
H          268.43740946974776       -4.18821617091884       -3.43211068022509
H          270.03780566762987       -4.29298868269611       -1.35197577687366
H          271.84824553978234       -2.40423626887409       -0.72047788732101
C          152.22236678126964        0.07817664261621       -0.06930507499613
C          151.00099293066748        0.06312868254558       -0.05675280809132
C          153.57322131061250        0.08466980322666       -0.07719699684646
C          154.79484475539331        0.08270248462573       -0.07766620946576
C          165.68221832314418        0.00824278060467       -0.04533208865272
C          164.45964451660168        0.01724903433574       -0.05337042526007
C          167.03060227082611        0.00337899897921       -0.03960241638873
C          168.25323388480567       -0.00322199767909       -0.03191527707344
C          179.13696342620250       -0.01835920975985        0.00197129617745
C          177.91425757186875       -0.01531924601592       -0.00221359514416
C          180.48517165347354       -0.01941152608838        0.00108812249783
C          181.70790394316859       -0.02110715198634        0.00329263852986
C          192.59036725003944       -0.00718033391543        0.00032803752116
C          191.36764896562372       -0.00675882069744       -0.00378559330754
C          193.93855290229834       -0.00584246942346       -0.00049362592270
C          195.16126171833665       -0.00922335598168       -0.00179656869115
C          206.04331005809252       -0.00229570733768        0.00063634118653
C          204.82059593984215        0.00072229702888       -0.00086292500824
C          207.39149323386411       -0.00051729333684        0.00077063310633
C          208.61422308594953       -0.00620316637876        0.00214483685598
C          219.49672311370455       -0.00632907430461       -0.00733584964816
C          218.27400871440068       -0.00189275734139       -0.00726239653997
C          220.84492278585014       -0.00719860269535       -0.01033180022705
C          222.06765600545569       -0.01027088903769       -0.00919777716658
C          232.95115879954128       -0.00577156862324       -0.01487279362160
C          231.72842916014250       -0.00381938352889       -0.01831505184292
C          234.29938631618819       -0.00550866443916       -0.01285007186931
C          235.52209905474928       -0.00776581533404       -0.00707000384668
C          246.40669088605401       -0.03724886025198        0.01084621263523
C          245.18405166540927       -0.02725466814494        0.00928471819365
C          247.75505364725092       -0.04632492453129        0.01080796660037
C          248.97765013535559       -0.05732066131487        0.01476485512907
C          259.86287568863048       -0.12648657710005        0.03083069550701
C          258.64149773516658       -0.12447141373974        0.02999380906731
C          261.21427483380120       -0.11917278385123        0.02992767313957
C          262.43549611841144       -0.10322403324305        0.02900917342098
C          156.20226347881282        0.07363736098600       -0.07836779359705
C          156.83399167691525        1.04171180805140       -0.88096090977955
C          156.18968298254637        1.99322836435790       -1.71356125356670
C          157.15806873417901        2.74037344164496       -2.32625269048851
C          158.42279933341277        2.27290774010721       -1.87559701475293
N          158.17632171357459        1.24115955629988       -1.01067922550905
C          159.68658197616347        2.74508576613939       -2.25224612872193
C          159.71028061507599        3.88814134695969       -3.19572924656918
C          160.31185731438245        3.75363054258661       -4.45090026063497
C          160.33060194837341        4.81634125145664       -5.33324871822739
C          159.75331707572377        6.04036847923053       -4.97934442400715
C          159.78892653388269        7.16029165691218       -5.93787156642864
O          160.29083848857897        7.08974798618214       -7.03026859532942
C          159.15488882478857        6.17711417342200       -3.72459097712357
C          159.13116693252886        5.11047142693132       -2.84360602642783
C          160.90842371427652        2.22974750925209       -1.81580536802135
C          162.19857512733944        2.79121300025993       -2.17540094946849
C          163.12972702126839        2.03303093660721       -1.56087581728104
N          161.07695138884594        1.16469582502141       -0.98465121911271
C          162.40697373534391        1.01623908634062       -0.82210502677481
C          163.05508956016971        0.02406598444227       -0.05913572364009
C          162.42211834170826       -0.97440484731332        0.70623592665716
C          163.06588836847581       -1.99684916918017        1.45028282306330
C          162.09736137305950       -2.75220067191524        2.05256769171770
C          160.83319796875134       -2.20508258617850        1.70073238243702
N          161.08041435337802       -1.13865749257700        0.87848953063378
C          159.56994147199345       -2.66881530571130        2.08774694314076
C          159.54732771981057       -3.82894286728545        3.01001904458670
C          158.93860460313192       -5.02616986641044        2.62300354013934
C          158.91846053288899       -6.11161198328955        3.48055916608899
C          159.50322237233553       -6.01981799672759        4.74586417584869
C          159.49397628552626       -7.16101010256148        5.67962828459230
O          159.98888117305685       -7.13080490496046        6.77710743968006
C          160.11005731027765       -4.82103467748072        5.13472598674363
C          160.13451899151485       -3.73918459567650        4.27589295048616
C          158.34767445260425       -2.12883472232554        1.68140842645594
C          157.05766655971328       -2.59842839343171        2.15535878453590
C          156.12647479957607       -1.83425148424409        1.54860331406913
C          156.84887381726452       -0.89396936321019        0.71433565237709
N          158.17979246344021       -1.08829235846829        0.82105787333885
H          155.12162215773000        2.08203832390406       -1.82949210367592
H          157.01075202561088        3.53789539601743       -3.03596695162985
H          158.89546723285054        0.69816227997051       -0.54451976552446
H          160.74921328603293        2.80248103720967       -4.73248483551176
H          160.78997584296988        4.71817068149486       -6.31097165240019
H          159.30842131810226        8.09151967472716       -5.56910375369896
H          158.70873916736426        7.12452970772317       -3.44007119695986
H          158.67826461275126        5.22458949743337       -1.86510632075926
H          162.34927763056754        3.65678146835201       -2.79978205895975
H          164.20287991812683        2.13497941897957       -1.58314385074952
H          164.13364433577908       -2.13375120399745        1.50685780256455
H          162.24403155316205       -3.61799377976646        2.67728400558370
H          160.36179629584481       -0.56105405954989        0.45511154703670
H          158.49537479388769       -5.10428015990943        1.63670248585901
H          158.44867725027498       -7.03900058901282        3.16945975127829
H          158.98692281824174       -8.06781973399614        5.28648692050619
H          160.55753848173060       -4.75722144759655        6.12078870968002
H          160.59307457692708       -2.80704787745326        4.58626973273982
H          156.90689846556481       -3.39352241643332        2.86730174678818
H          155.05354221276659       -1.87614032238099        1.64596721707901
C          169.65767703975982       -0.00488328663524       -0.02782787708277
C          170.28563934438830        0.92048485470661       -0.88430517885601
C          169.63696588371465        1.82089325684988       -1.76814086778833
C          170.60140264831759        2.55260079746729       -2.40580241591335
C          171.86728078322326        2.12586013926677       -1.92038188088137
N          171.62600643837678        1.13078306321093       -1.01167856611047
C          173.12813301639747        2.60389198153408       -2.29990630086469
C          173.14529358609960        3.71484151407443       -3.28080171437732
C          173.77099154222509        3.55226639350086       -4.52077280236379
C          173.78533204082672        4.58681824621330       -5.43608808821144
C          173.17874409272227        5.80990504463413       -5.13152251502494
C          173.21207008055478        6.90006700385970       -6.12410391042654
O          173.74068879736396        6.80651021810447       -7.20198502734915
C          172.55492351532121        5.97435198321962       -3.89259945077281
C          172.53627553703075        4.93602682823197       -2.97832451210673
C          174.35223272750071        2.12198600754310       -1.83276647511730
C          175.63858623502716        2.68845829328469       -2.19757157745307
C          176.57351287039975        1.95762942439012       -1.55608370868777
N          174.52622931966073        1.08375583317088       -0.96918218488544
C          175.85659002674853        0.95364021608091       -0.79467736996461
C          176.50998631670581       -0.01414866193662       -0.00513041252001
C          175.88224254594121       -0.99266468643176        0.79015242290419
C          176.53121918125206       -1.99215793522399        1.55995202293077
C          175.56687354721461       -2.72761739216487        2.19325833622399
C          174.30060362384586       -2.18994119644569        1.83554556225812
N          174.54180173820481       -1.15090035503542        0.97734051968473
C          173.03972538687384       -2.63508065844964        2.25293172247374
C          173.02412664749255       -3.76038195859728        3.21725388094366
C          172.40114741838931       -4.96627646900390        2.88328293618780
C          172.39030008172284       -6.02130664513386        3.77815217825514
C          172.99928227046905       -5.88992062999189        5.02839652665960
C          173.00343433738382       -6.99914080210848        6.00020320555153
O          173.52377683211748       -6.93564517209033        7.08433216084631
C          173.61932644134041       -4.68208376237357        5.36474591399863
C          173.63394171358456       -3.63049415154486        4.46890578629215
C          171.81535900028436       -2.10777658608587        1.83793806337564
C          170.52881030598823       -2.54955218662009        2.34605952034044
C          169.59375836426139       -1.81481314696493        1.70909079206629
C          170.31080134875901       -0.92059649514958        0.82156905879112
N          171.64140831045930       -1.10947927514748        0.92868671992419
H          168.56909714973551        1.88935042286687       -1.89851460651933
H          170.45038614611076        3.31342040733708       -3.15396669818322
H          172.34766901805162        0.62141810571061       -0.51263066478685
H          174.23086221938041        2.60129886227788       -4.76454493017080
H          174.26397289215600        4.46683695737000       -6.40206326157135
H          172.70366734491492        7.83153091758701       -5.79566409332528
H          172.08549043415573        6.92122541488375       -3.64633292673508
H          172.06409939131208        5.07226728550331       -2.01182869115190
H          175.78445138133753        3.53854326585533       -2.84397145366810
H          177.64559286108835        2.07108654163210       -1.57341531907411
H          177.59927522129701       -2.12834808378624        1.61222686312000
H          175.71825364911439       -3.57397518798194        2.84295323889430
H          173.82010086180651       -0.58668609564580        0.54136370242448
H          171.93993464637603       -5.07574280771973        1.90826318869399
H          171.90963720789307       -6.95586904548618        3.50780960780918
H          172.48163078762195       -7.91486907317329        5.64937800282530
H          174.08532844238104       -4.58725718692687        6.33966350830476
H          174.10294845701483       -2.69101069977073        4.73884972259165
H          170.38285797317113       -3.30690323826504        3.09900229713214
H          168.52153237718608       -1.84917691586428        1.81726336336219
C          183.11216946311848       -0.01783408201240        0.00263275216019
C          183.73418390775637        0.90743137722973       -0.85836684036842
C          183.07946568296990        1.80379748019284       -1.74184964902359
C          184.03923238361367        2.53777392846766       -2.38395814711011
C          185.30816711677170        2.11654738182523       -1.90173489727030
N          185.07333189685932        1.12216822912463       -0.99051821714833
C          186.56612016880214        2.59881271496064       -2.28544897962841
C          186.57674267044342        3.70896508736416       -3.26728176739584
C          187.20120614837896        3.54810040281491       -4.50811399780024
C          187.21025580450166        4.58218457132124       -5.42401859781692
C          186.59933512212876        5.80307189654428       -5.11929675622564
C          186.62741849373293        6.89291488757488       -6.11242366340129
O          187.15587369184331        6.80109586926846       -7.19052465882697
C          185.97645697556476        5.96572125963047       -3.87967048606016
C          185.96322516576828        4.92788704762221       -2.96473333960577
C          187.79326647066620        2.12163071611151       -1.82128567777676
C          189.07665478801658        2.69235032034830       -2.18984126200720
C          190.01588851710974        1.96455035896929       -1.55117223997321
N          187.97320205840492        1.08424732504661       -0.95792730818962
C          189.30452496825433        0.95828666834864       -0.78761557948786
C          189.96341367519690       -0.00768444202439       -0.00048170110725
C          189.34146871524254       -0.98801276270246        0.79720978751383
C          189.99637518417111       -1.98590246771211        1.56404486379417
C          189.03670819831021       -2.72381436728655        2.20162700058033
C          187.76757416270993       -2.18931161271207        1.84953409565498
N          188.00228777659808       -1.14970358127522        0.99025197657774
C          186.50958960090423       -2.63732405509879        2.27269336288209
C          186.50087642767772       -3.76265565384263        3.23703305848929
C          185.87882150569379       -4.96977996557613        2.90577927634116
C          185.87476915720012       -6.02514172333755        3.80031746037003
C          186.48976199595009       -5.89285484787155        5.04751987419592
C          186.50145904360389       -7.00250522844001        6.01880835926575
O          187.02730831478348       -6.93829685335732        7.10021971283973
C          187.10872380959532       -4.68373972579246        5.38123692328988
C          187.11654508138145       -3.63180495983128        4.48571242413627
C          185.28237856806871       -2.11282707874321        1.86287955632305
C          183.99898931947519       -2.55675418897865        2.37701545599380
C          183.05967046323707       -1.82469584361717        1.74324735301281
C          183.77102441672437       -0.93006747509636        0.85151610097120
N          185.10238595836321       -1.11576882878230        0.95331256046896
H          182.01094122473205        1.86816004527243       -1.86891285590612
H          183.88311062045352        3.29660666829006       -3.13308982333841
H          185.79850423726526        0.61629628814188       -0.49300892206700
H          187.66442302852317        2.59879748104535       -4.75203736055246
H          187.68808720271704        4.46355197195863       -6.39056122578977
H          186.11544743608795        7.82243170536909       -5.78403578456141
H          185.50363318473666        6.91087991621063       -3.63329298958444
H          185.49196398369310        5.06291358432840       -1.99761864586800
H          189.21784283712250        3.54298071909320       -2.83655816331340
H          191.08753909100707        2.08149337180715       -1.57163840819973
H          191.06498949232721       -2.11940033508610        1.61164482717029
H          189.19312336869299       -3.56975949395164        2.85065846975434
H          187.27713044433014       -0.58743744206743        0.55748864074596
H          185.41300717653777       -5.07992337310306        1.93302182652625
H          185.39484395397116       -6.96067448217298        3.53203788391428
H          185.97995093181075       -7.91926684077204        5.67025721599616
H          187.57937795413039       -4.58823139827249        6.35384998778932
H          187.58479100671849       -2.69137549008182        4.75366176745742
H          183.85791743914095       -3.31355534180216        3.13144653982672
H          181.98800041867173       -1.86124462787611        1.85608716138346
C          196.56549454069483       -0.00673183880031       -0.00148491511815
C          197.18858260087478        0.91752217041767       -0.86273026989706
C          196.53493256015565        1.81369382105196       -1.74721793834036
C          197.49553264019812        2.54677429389579       -2.38908775947806
C          198.76390368733337        2.12512006226924       -1.90573599385255
N          198.52791350562018        1.13138811826887       -0.99409771629108
C          200.02238080988764        2.60648698021655       -2.28868216700453
C          200.03447203199977        3.71663535850117       -3.27048979012429
C          200.65988859909780        3.55563911912470       -4.51081829394019
C          200.67077456900779        4.59008408647421       -5.42629979728145
C          200.06078588676473        5.81145016044342       -5.12163491228210
C          200.09124294132678        6.90183522067887       -6.11409186682112
O          200.62064269499837        6.80996880522352       -7.19171689258138
C          199.43671971347288        5.97413118555920       -3.88261254850402
C          199.42162919253801        4.93593919249423       -2.96811800581650
C          201.24886772192602        2.12870069478671       -1.82333665698931
C          202.53288776410864        2.69844782423219       -2.19116434598298
C          203.47114057084343        1.97050794067268       -1.55121637456488
N          201.42742949806927        1.09167773955112       -0.95927701387468
C          202.75855014265656        0.96511359372903       -0.78766772927255
C          203.41635222719006       -0.00063583863527        0.00062516901054
C          202.79337557984675       -0.98015263183374        0.79851913065103
C          203.44719245914979       -1.97785015071816        1.56649763181748
C          202.48666107282966       -2.71493299610147        2.20375603444173
C          201.21807833639411       -2.17999113730074        1.85041777677695
N          201.45396141555844       -1.14107290177990        0.99065203994644
C          199.95948212957668       -2.62694517862108        2.27299884872746
C          199.94944538544607       -3.75179578127025        3.23788052301969
C          199.32664454250977       -4.95860887400992        2.90685598370235
C          199.32171144650482       -6.01371139536890        3.80169123029859
C          199.93657689673353       -5.88149414445852        5.04896620154998
C          199.94764149478510       -6.99098114582111        6.02045015241605
O          200.47354540983872       -6.92689257180163        7.10183891269481
C          200.55614764143419       -4.67264379894683        5.38251854264239
C          200.56479854759357       -3.62094585236560        4.48671964453029
C          198.73294321146258       -2.10187310685984        1.86197143362015
C          197.44887211238134       -2.54445032934522        2.37555345027796
C          196.51053194518039       -1.81216280416589        1.74060308983983
C          197.22315532693511       -0.91876215139612        0.84861979663551
N          198.55427193049815       -1.10531182637212        0.95155191904801
H          195.46652446799604        1.87854402481718       -1.87501331627196
H          197.34037587318599        3.30524290868602       -3.13879362882562
H          199.25249414386229        0.62545902972360       -0.49578274071432
H          201.12246722073033        2.60600571404257       -4.75466967687887
H          201.14946949252626        4.47141611437675       -6.39240770292296