244
 energy: -439.647222459689 gnorm: 1.395059386313 xtb: 6.5.1 (b24c23e)
Fe          51.84133099999999       -0.02962800000000        0.00460000000000
C           48.47957900000000        0.10547900000000       -0.11442300000000
C           49.14563800000000        1.25917200000000       -0.01399100000000
C           48.49581199999999        2.56077000000000        0.07994000000000
C           49.43591700000000        3.47498900000000        0.22516400000000
C           50.74125200000000        2.79992300000000        0.22612400000000
N           50.56388100000000        1.39135600000000        0.07129100000000
C           51.93066600000000        3.41226000000000        0.39917700000000
C           51.96699799999999        4.87920200000000        0.59171600000000
C           52.22185999999999        5.41691700000000        1.86136400000000
C           52.26060300000000        6.80211000000000        2.04451000000000
C           52.04025900000000        7.66759800000000        0.95886600000000
C           52.07358400000000        9.13112300000000        1.13272800000000
O           52.30793300000000        9.64742500000000        2.25797900000000
C           51.78417200000000        7.12569300000000       -0.31033400000000
C           51.75015700000000        5.74045300000000       -0.49386600000000
C           53.22640900000000        2.68134300000000        0.41586400000000
C           54.52119100000000        3.32318200000000        0.67456600000000
C           55.45534600000000        2.39988100000000        0.58173000000000
N           53.36510500000000        1.41493400000000        0.16471500000000
C           54.76704200000000        1.15782400000000        0.25300600000000
C           55.36315400000000       -0.02087100000000        0.00568300000000
C           54.60826700000000       -1.24432500000000       -0.35276200000000
C           55.16188799999999       -2.33276800000000       -0.87275800000000
C           54.11792200000000       -3.32771700000000       -1.00647900000000
C           52.99321699999999       -2.78404700000000       -0.55750100000000
N           53.21173700000000       -1.43959500000000       -0.12333700000000
C           51.69651600000000       -3.50423200000000       -0.47122700000000
C           51.70600500000000       -4.98425900000000       -0.54672700000000
C           51.14367300000000       -5.64345900000000       -1.65119300000000
C           51.17317100000000       -7.03872300000000       -1.72828900000000
C           51.77003800000000       -7.79332200000000       -0.70598100000000
C           51.79776300000000       -9.26390400000000       -0.80734200000000
O           52.37380699999999       -9.96526700000000        0.06519600000000
C           52.33773799999999       -7.13080100000000        0.39698700000000
C           52.30835500000000       -5.73543000000000        0.47303800000000
C           50.52827400000000       -2.85088000000000       -0.32754900000000
C           49.20657200000000       -3.46453700000000       -0.21038100000000
C           48.34612599999999       -2.46894300000000       -0.12492200000000
C           49.10904200000000       -1.22294100000000       -0.17487200000000
N           50.38250400000000       -1.43271000000000       -0.29302700000000
H           47.39630800000000        0.13829400000000       -0.13126200000000
H           47.43197400000000        2.75853700000000        0.05266700000000
H           49.24740100000000        4.53493200000000        0.33544400000000
H           52.39129799999999        4.76224400000000        2.70760300000000
H           52.46122000000000        7.19470000000000        3.03348700000000
H           51.89609400000000        9.78101600000000        0.28547600000000
H           51.61124999999999        7.77503000000000       -1.15997400000000
H           51.55313300000000        5.33761800000000       -1.48007400000000
H           54.70374300000000        4.36654700000000        0.89358400000000
H           56.51630800000000        2.56727600000000        0.71171800000000
H           56.20200199999999       -2.46966900000000       -1.13594500000000
H           54.24188200000000       -4.33281300000000       -1.38770000000000
H           50.68730000000000       -5.07556400000000       -2.45353600000000
H           50.73530200000000       -7.52931400000000       -2.58987100000000
H           51.32622200000000       -9.75677200000000       -1.64755800000000
H           52.80398400000000       -7.68987700000000        1.19932900000000
H           52.75150300000000       -5.23966300000000        1.32845400000000
H           48.95546200000000       -4.51706500000000       -0.19137600000000
H           47.27311800000000       -2.57101500000000       -0.02678600000000
Fe          84.59954500000001       -0.01205000000000        0.00585800000000
C           87.96129800000000       -0.12883000000000       -0.13119200000000
C           87.29523800000000       -1.28506700000000       -0.19607700000000
C           87.94506399999999       -2.58677600000000       -0.28846000000000
C           87.00496000000000       -3.51235900000000       -0.27490800000000
C           85.69962400000000       -2.84430900000000       -0.17782300000000
N           85.87699600000001       -1.42804900000000       -0.13048900000000
C           84.51021000000000       -3.47504900000000       -0.09373500000000
C           84.47387900000000       -4.95445900000000       -0.11206200000000
C           84.21901599999998       -5.66750100000000        1.06807200000000
C           84.18027299999999       -7.06465700000000        1.05209000000000
C           84.40061700000000       -7.76672200000000       -0.14574000000000
C           84.36729200000001       -9.24009000000000       -0.18206700000000
O           84.13294399999999       -9.91137300000000        0.85819000000000
C           84.65670400000000       -7.04959600000000       -1.32483400000000
C           84.69072000000000       -5.65233800000000       -1.30922800000000
C           83.21446800000000       -2.75395800000000        0.02686900000000
C           81.91968499999999       -3.42609700000000        0.19153200000000
C           80.98553000000000       -2.49898500000000        0.23112700000000
N           83.07577200000000       -1.46469100000000       -0.04137500000000
C           81.67383400000000       -1.22277400000000        0.08263100000000
C           81.07772199999999       -0.02087100000000        0.00568300000000
C           81.83260900000001        1.24115800000000       -0.17488000000000
C           81.27898800000000        2.39255900000000       -0.53457500000000
C           82.32295400000000        3.39641000000000       -0.52524500000000
C           83.44765899999999        2.79434400000000       -0.15826600000000
N           83.22913900000000        1.40176600000000        0.08001400000000
C           84.74436000000000        3.49490300000000        0.02968800000000
C           84.73487200000000        4.97059800000000        0.16572400000000
C           85.29720300000000        5.78036300000000       -0.83361000000000
C           85.26770499999999        7.17238600000000       -0.71122500000000
C           84.67083800000000        7.77371000000000        0.40812400000000
C           84.64311300000000        9.24373800000000        0.51721700000000
O           84.06706900000000        9.81369700000000        1.48074100000000
C           84.10313800000000        6.96087100000000        1.40550300000000
C           84.13252100000000        5.56889100000000        1.28206800000000
C           85.91260200000001        2.82774900000000        0.07886100000000
C           87.23430399999999        3.41846600000000        0.28222300000000
C           88.09474999999999        2.42084900000000        0.22503200000000
C           87.33183499999998        1.19465900000000       -0.00184800000000
N           86.05837300000000        1.41911700000000       -0.08892700000000
H           89.04456799999998       -0.15891200000000       -0.15253200000000
H           89.00890299999999       -2.77864400000000       -0.34361900000000
H           87.19347499999999       -4.57720300000000       -0.31669500000000
H           84.04957800000000       -5.14001000000000        1.99891600000000
H           83.97965600000001       -7.59408300000000        1.97508000000000
H           84.54478200000000       -9.76270400000000       -1.11323400000000
H           84.82962700000000       -7.57132000000000       -2.25828500000000
H           84.88774400000000       -5.11316600000000       -2.22801800000000
H           81.73713300000000       -4.49001800000000        0.25973500000000
H           79.92456799999999       -2.68318600000000        0.33595200000000
H           80.23887400000000        2.56554400000000       -0.77558300000000
H           82.19899400000000        4.44555100000000       -0.75944800000000
H           85.75357700000001        5.33251400000000       -1.70864900000000
H           85.70557400000000        7.78067200000000       -1.49416300000000
H           85.11465399999999        9.85123600000000       -0.24424800000000
H           83.63689200000000        7.39998900000000        2.27928400000000
H           83.68937400000000        4.95636000000000        2.05816500000000
H           87.48541400000001        4.45756100000000        0.45092200000000
H           89.16775800000001        2.50790600000000        0.33670300000000
C           57.20505300000000       -0.02087100000000        0.00568300000000
C           58.42697099999999       -0.02087100000000        0.00568300000000
C           67.60947899999999       -0.02087100000000        0.00568300000000
C           68.83139699999998       -0.02087100000000        0.00568300000000
C           78.01390600000001       -0.02087100000000        0.00568300000000
C           79.23582299999998       -0.02087100000000        0.00568300000000
Fe          63.00242000000000       -0.02141600000000        0.01544000000000
C           59.56018600000000        0.02228600000000       -0.00606800000000
C           60.21643799999999        1.15731500000000        0.30334700000000
C           59.57548800000000        2.44825700000000        0.56593400000000
C           60.51569300000000        3.32342300000000        0.86830800000000
C           61.81366799999999        2.64386800000000        0.82288400000000
N           61.63379299999999        1.27248100000000        0.45788800000000
C           62.99868699999999        3.22511200000000        1.10478000000000
C           63.03326599999999        4.64265700000000        1.52758700000000
C           63.53458000000000        5.62296200000000        0.65851900000000
C           63.57882500000000        6.96111400000000        1.05791100000000
C           63.12371000000000        7.33536900000000        2.33459900000000
C           63.14785799999999        8.74080500000000        2.77607400000000
O           63.61292700000000        9.64211500000000        2.03240800000000
C           62.63151300000000        6.35142700000000        3.20259400000000
C           62.58790199999999        5.01328300000000        2.80185000000000
C           64.29484600000001        2.50961500000000        1.01435600000000
C           65.56288200000000        3.05237200000000        1.51671700000000
C           66.51480200000000        2.19096000000000        1.22177400000000
N           64.46247600000000        1.36021700000000        0.43730200000000
C           65.86045900000001        1.08822700000000        0.52945800000000
C           66.47610800000000        0.02228600000000       -0.00606800000000
C           65.72751500000000       -1.06161000000000       -0.67477000000000
C           66.26056300000000       -1.93328900000000       -1.52040600000000
C           65.22889200000000       -2.89848500000000       -1.84950300000000
C           64.13685700000001       -2.54897700000000       -1.18189100000000
N           64.36194999999999       -1.37151000000000       -0.40896100000000
C           62.88170400000000       -3.33585900000000       -1.15661100000000
C           62.94329900000000       -4.77293500000000       -1.51213300000000
C           63.71040699999999       -5.65390600000000       -0.73548700000000
C           63.78270100000000       -7.00883700000000       -1.07053400000000
C           63.09418800000000       -7.50030500000000       -2.19087200000000
C           63.17824500000000       -8.93344200000000       -2.52169300000000
O           62.55823800000000       -9.41149400000000       -3.51050900000000
C           62.33539900000000       -6.61484000000000       -2.97683400000000
C           62.26332800000000       -5.25930900000000       -2.64082000000000
C           61.70851399999999       -2.77960500000000       -0.79751400000000
C           60.43158999999999       -3.47541900000000       -0.67496100000000
C           59.54057000000000       -2.55573500000000       -0.36096700000000
C           60.23806199999999       -1.26745900000000       -0.27471900000000
N           61.50558699999999       -1.39257600000000       -0.52565400000000
H           58.51873700000000        2.67973500000000        0.52302300000000
H           60.33148299999999        4.36406900000000        1.10271500000000
H           63.88820900000000        5.34931800000000       -0.32807500000000
H           63.96635000000000        7.70186700000000        0.36931100000000
H           62.75449600000000        9.01323900000000        3.75550700000000
H           62.28043400000000        6.61820200000000        4.19038100000000
H           62.20822800000000        4.26548000000000        3.48349600000000
H           65.71245600000000        3.98983300000000        2.03607600000000
H           67.56465100000000        2.30849900000000        1.45787700000000
H           67.28096600000001       -1.94755200000000       -1.87716900000000
H           65.34321100000000       -3.76392500000000       -2.48837600000000
H           64.24694200000000       -5.29152100000000        0.13335200000000
H           64.37553600000000       -7.67469700000000       -0.45392300000000
H           63.77809100000000       -9.59565600000000       -1.90865400000000
H           61.80251100000000       -6.96841600000000       -3.85110400000000
H           61.68064600000000       -4.58766500000000       -3.26063300000000
H           60.22943999999999       -4.53135400000000       -0.80192600000000
H           58.48810799999999       -2.74531700000000       -0.19370900000000
Fe          73.40684600000000       -0.02141600000000        0.01544000000000
C           69.96461300000000        0.02228600000000       -0.00606800000000
C           70.62086400000000        1.15731500000000        0.30334700000000
C           69.97991399999999        2.44825700000000        0.56593400000000
C           70.92012000000000        3.32342300000000        0.86830800000000
C           72.21809399999998        2.64386800000000        0.82288400000000
N           72.03822000000000        1.27248100000000        0.45788800000000
C           73.40311400000000        3.22511200000000        1.10478000000000
C           73.43769300000000        4.64265700000000        1.52758700000000
C           73.93900600000001        5.62296200000000        0.65851900000000
C           73.98325100000000        6.96111400000000        1.05791100000000
C           73.52813600000000        7.33536900000000        2.33459900000000
C           73.55228400000000        8.74080500000000        2.77607400000000
O           74.01735400000000        9.64211500000000        2.03240800000000
C           73.03593900000000        6.35142700000000        3.20259400000000
C           72.99232800000000        5.01328300000000        2.80185000000000
C           74.69927199999999        2.50961500000000        1.01435600000000
C           75.96730900000000        3.05237200000000        1.51671700000000
C           76.91922800000000        2.19096000000000        1.22177400000000
N           74.86690299999999        1.36021700000000        0.43730200000000
C           76.26488499999999        1.08822700000000        0.52945800000000
C           76.88053499999999        0.02228600000000       -0.00606800000000
C           76.13194100000000       -1.06161000000000       -0.67477000000000
C           76.66499000000000       -1.93328900000000       -1.52040600000000
C           75.63331800000000       -2.89848500000000       -1.84950300000000
C           74.54128300000001       -2.54897700000000       -1.18189100000000
N           74.76637700000001       -1.37151000000000       -0.40896100000000
C           73.28613000000000       -3.33585900000000       -1.15661100000000
C           73.34772599999998       -4.77293500000000       -1.51213300000000
C           74.11483300000000       -5.65390600000000       -0.73548700000000
C           74.18712699999999       -7.00883700000000       -1.07053400000000
C           73.49861500000000       -7.50030500000000       -2.19087200000000
C           73.58267199999999       -8.93344200000000       -2.52169300000000
O           72.96266400000000       -9.41149400000000       -3.51050900000000
C           72.73982599999999       -6.61484000000000       -2.97683400000000
C           72.66775399999999       -5.25930900000000       -2.64082000000000
C           72.11293999999998       -2.77960500000000       -0.79751400000000
C           70.83601599999999       -3.47541900000000       -0.67496100000000
C           69.94499600000000       -2.55573500000000       -0.36096700000000
C           70.64248800000000       -1.26745900000000       -0.27471900000000
N           71.91001300000001       -1.39257600000000       -0.52565400000000
H           68.92316300000000        2.67973500000000        0.52302300000000
H           70.73590900000001        4.36406900000000        1.10271500000000
H           74.29263500000000        5.34931800000000       -0.32807500000000
H           74.37077600000001        7.70186700000000        0.36931100000000
H           73.15892200000000        9.01323900000000        3.75550700000000
H           72.68486000000000        6.61820200000000        4.19038100000000
H           72.61265499999999        4.26548000000000        3.48349600000000
H           76.11688200000000        3.98983300000000        2.03607600000000
H           77.96907700000000        2.30849900000000        1.45787700000000
H           77.68539199999999       -1.94755200000000       -1.87716900000000
H           75.74763699999998       -3.76392500000000       -2.48837600000000
H           74.65136799999999       -5.29152100000000        0.13335200000000
H           74.77996200000000       -7.67469700000000       -0.45392300000000
H           74.18251700000000       -9.59565600000000       -1.90865400000000
H           72.20693700000000       -6.96841600000000       -3.85110400000000
H           72.08507200000000       -4.58766500000000       -3.26063300000000
H           70.63386600000000       -4.53135400000000       -0.80192600000000
H           68.89253400000000       -2.74531700000000       -0.19370900000000
244
 energy: -440.089691659329 gnorm: 0.509851303745 xtb: 6.5.1 (b24c23e)
Fe          51.84626978483979       -0.02675883859265        0.00082620434784
C           48.48063049808945        0.09200695855092       -0.11496708000032
C           49.15208695201054        1.25944570104661       -0.01355083597968
C           48.49552534391181        2.55462658699814        0.07901553002623
C           49.44444872777318        3.47624312444876        0.22560366512542
C           50.74068930744196        2.79268667714266        0.22474066859289
N           50.55571146322764        1.39782460423266        0.07304834038195
C           51.94333128257036        3.40838089827246        0.39945033361234
C           51.96975134501748        4.88066726406764        0.59188998246219
C           52.22253435557203        5.42085035332007        1.85930592368534
C           52.25995585335949        6.80022902314014        2.04186244608683
C           52.04016894724750        7.66813281744560        0.95852281723822
C           52.07709313772881        9.13201216194664        1.14892203611696
O           52.30522560570820        9.64051897857822        2.24516342328934
C           51.78427493706836        7.12278736622605       -0.30880958213606
C           51.74995922235450        5.74270917448168       -0.49109697223824
C           53.21996671220166        2.69246695211016        0.41737660576760
C           54.51057742346917        3.33114838528778        0.67442549617953
C           55.45477861882049        2.39438561328017        0.58031061412857
N           53.37210103720515        1.40716256420570        0.16821724176411
C           54.77391405973885        1.15531739529016        0.25272047981838
C           55.38448538465887       -0.03167134931996        0.00097103825394
C           54.60778714188956       -1.23227043249297       -0.34322527476638
C           55.16375120079422       -2.34839352463264       -0.87721488866990
C           54.13321118568123       -3.32893003919305       -1.00837775672303
C           52.98285145173909       -2.77426995683124       -0.54864399436897
N           53.21284704671273       -1.43552426306740       -0.13087701004723
C           51.70667141975198       -3.49762262538958       -0.47071862884983
C           51.71062337282763       -4.98344872251741       -0.54861239631681
C           51.14427872212789       -5.64547802910392       -1.64870915850538
C           51.17384801578890       -7.03584078676420       -1.72614339141097
C           51.76968195191776       -7.79357058774374       -0.70620767360444
C           51.80685985169647       -9.26749240142332       -0.79409410095009
O           52.36702343798169       -9.95637141893275        0.05585072021496
C           52.33621049708832       -7.12818861663796        0.39491820541274
C           52.30804668055129       -5.73831723487973        0.47021008350305
C           50.52795165299117       -2.84807081304912       -0.32720573884986
C           49.21304361706959       -3.46438868380399       -0.21106653282458
C           48.33954748398568       -2.45961255598966       -0.12501170512768
C           49.09614505116190       -1.21465695474692       -0.17431496191212
N           50.38680002665800       -1.43672989634316       -0.28825581965223
H           47.39690255666540        0.13504832341375       -0.13128691801012
H           47.43237132018786        2.75332118593088        0.05191542715257
H           49.25387853978525        4.53510590941119        0.33560290746921
H           52.39098311392373        4.76294368273306        2.70619911590987
H           52.46077738718527        7.19617978043900        3.03197120290760
H           51.89571370261487        9.77904136314040        0.28366412699594
H           51.61151771964580        7.77482868160862       -1.15908933666979
H           51.55357014837389        5.33752273525435       -1.47867826573005
H           54.69841455454387        4.36938570797829        0.89377149568904
H           56.51493846589928        2.56172436156750        0.71082759778375
H           56.20243509404422       -2.47264022296325       -1.13736638147224
H           54.24464284932139       -4.33258685491414       -1.38860981096785
H           50.68809420107566       -5.07564442817811       -2.45221015629901
H           50.73586173412762       -7.52907087458479       -2.58877692265414
H           51.32520425987020       -9.75455319384196       -1.64883398535847
H           52.80304727377525       -7.69085971462058        1.19747881729094
H           52.75082488895891       -5.23999432219946        1.32702342058962
H           48.96139351153627       -4.51641867335623       -0.19194589329085
H           47.27118899190289       -2.56654324834797       -0.02670084535619
Fe          84.59462123348055       -0.01430908912045        0.00169239421342
C           87.96024125748929       -0.11535980819497       -0.12980773044078
C           87.28875270192792       -1.28541530759751       -0.19568906236794
C           87.94535531057032       -2.58057332958640       -0.28849708482681
C           86.99643708610625       -3.51367835732282       -0.27464524843600
C           85.70022274204919       -2.83686398659847       -0.17818703593172
N           85.88536214746240       -1.43493523921471       -0.12965979827165
C           84.49741112314415       -3.47120709771161       -0.09291520743302
C           84.47109364952914       -4.95593331977843       -0.11209806131442
C           84.21834097539643       -5.67110747974688        1.06547592008728
C           84.18091801126666       -7.06241999441156        1.04974629794003
C           84.40070672137372       -7.76721182229894       -0.14615484496000
C           84.36380888810378       -9.24324884958407       -0.16616280797614
O           84.13561318154026       -9.90273842692778        0.84648379211782
C           84.65660718530032       -7.04693661263084       -1.32291771129709
C           84.69091658273979       -5.65497222132845       -1.30680602312715
C           83.22104817886351       -2.76510246272189        0.02682536329088
C           81.93004125658982       -3.43383703318933        0.19028197344162
C           80.98554002278875       -2.49351169795182        0.23046711059736
N           83.06900239538852       -1.45742564895958       -0.03673732687839
C           81.66695567269760       -1.22012378894898        0.08242232595889
C           81.05771066077386       -0.00916747433641        0.00277219863805
C           81.83320182724196        1.22799049771999       -0.16695121088621
C           81.27699209972768        2.40894275136479       -0.53676996156706
C           82.30746664829744        3.39784237000096       -0.52697907571549
C           83.45802245307472        2.78334082945395       -0.15090133670433
N           83.22796317141120        1.39886749989899        0.07205425600308
C           84.73412945031176        3.48824659574421        0.02924506107127
C           84.73023579115461        4.97005992863958        0.16373440818702
C           85.29659595034882        5.78200339993574       -0.83086133515103
C           85.26702749372717        7.16922731081717       -0.70950348777691
C           84.67119299708789        7.77397848010878        0.40793835651957
C           84.63400387198642        9.24542334063004        0.53085424069480
O           84.07388894889563        9.80620574606539        1.47020907938162
C           84.10466670903595        6.95858447650716        1.40308462608375
C           84.13283323937802        5.57215136484380        1.27967737061065
C           85.91291234792257        2.82485326587395        0.07881774256616
C           87.22783303155252        3.41840263421050        0.28151737974187
C           88.10132811772473        2.41161884367670        0.22361164056874
C           87.34475973993251        1.18631939407283       -0.00248779359134
N           86.05400501749600        1.42242153124024       -0.08359423204782
H           89.04397274044226       -0.15568647106051       -0.15208413639380
H           89.00850927667351       -2.77337901998285       -0.34362015268704
H           87.18699697034066       -4.57740744452963       -0.31656049399573
H           84.04989289758859       -5.14050556758266        1.99742639598024
H           83.98010008521186       -7.59533300977496        1.97337375857345
H           84.54516556953691       -9.76048687522948       -1.11474729852082
H           84.82936164437760       -7.57124996229708       -2.25738314678323
H           84.88730871206225       -5.11327212321499       -2.22662051098053
H           81.74243145744776       -4.49280779157485        0.25951045009033
H           79.92526031257533       -2.67749110118116        0.33575488025100
H           80.23833974524241        2.56869953048725       -0.77650788948641
H           82.19619653729679        4.44543512131947       -0.76037697739619
H           85.75278306187487        5.33240328173097       -1.70732395587690
H           85.70501446073979        7.78027534177975       -1.49311178377183
H           85.11567254325873        9.84922207331375       -0.24582582191661
H           83.63782644541574        7.40122910731618        2.27759203915527
H           83.69005187683067        4.95689153975105        2.05679733215812
H           87.47947850847596        4.45699708789997        0.45026689984563
H           89.16968680158215        2.50346960872255        0.33615202859895
C           57.11887514278094       -0.02069001518342        0.00516719286558
C           58.32804970616948       -0.02808899988547        0.00415940041690
C           67.63945097073105       -0.03294944272340        0.00338604562596
C           68.79764850496986       -0.03142742760355        0.00452263600189
C           78.10968234140248       -0.03096916830288        0.00302064190029
C           79.31939752733800       -0.02218357545391        0.00519424216153
Fe          62.99937263378134       -0.02169137697292        0.01353483126717
C           59.61902889682603        0.01144933839830       -0.00599142109989
C           60.24618879661622        1.17006450102839        0.30616326972462
C           59.57728106610430        2.44006814046584        0.56369023110820
C           60.52460271206271        3.32532158673617        0.86959857257572
C           61.81285945980497        2.63945161110017        0.82183849045815
N           61.63361022818804        1.28466869894332        0.45689860720941
C           63.01044926672719        3.22332708271074        1.10642319088011
C           63.03615835055427        4.64435684895611        1.52865854739289
C           63.53465315241952        5.62575629056683        0.66187222696417
C           63.57768810073590        6.95855681399552        1.05944100425543
C           63.12331742499385        7.33570451911542        2.33521744199839