      -----------------------------------------------------------      
     |                   =====================                   |     
     |                           x T B                           |     
     |                   =====================                   |     
     |                         S. Grimme                         |     
     |          Mulliken Center for Theoretical Chemistry        |     
     |                    University of Bonn                     |     
      -----------------------------------------------------------      

   * xtb version 6.5.1 (b24c23e) compiled by 'conda@728c89f4b128' on 2022-07-12

   xtb is free software: you can redistribute it and/or modify it under
   the terms of the GNU Lesser General Public License as published by
   the Free Software Foundation, either version 3 of the License, or
   (at your option) any later version.
   
   xtb is distributed in the hope that it will be useful,
   but WITHOUT ANY WARRANTY; without even the implied warranty of
   MERCHANTABILITY or FITNESS FOR A PARTICULAR PURPOSE.  See the
   GNU Lesser General Public License for more details.
   
   Cite this work as:
   * C. Bannwarth, E. Caldeweyher, S. Ehlert, A. Hansen, P. Pracht,
     J. Seibert, S. Spicher, S. Grimme, WIREs Comput. Mol. Sci., 2020, 11,
     e01493. DOI: 10.1002/wcms.1493
   
   for GFN2-xTB:
   * C. Bannwarth, S. Ehlert and S. Grimme., J. Chem. Theory Comput., 2019,
     15, 1652-1671. DOI: 10.1021/acs.jctc.8b01176
   for GFN1-xTB:
   * S. Grimme, C. Bannwarth, P. Shushkov, J. Chem. Theory Comput., 2017,
     13, 1989-2009. DOI: 10.1021/acs.jctc.7b00118
   for GFN0-xTB:
   * P. Pracht, E. Caldeweyher, S. Ehlert, S. Grimme, ChemRxiv, 2019, preprint.
     DOI: 10.26434/chemrxiv.8326202.v1
   for GFN-FF:
   * S. Spicher and S. Grimme, Angew. Chem. Int. Ed., 2020, 59, 15665-15673.
     DOI: 10.1002/anie.202004239
   
   for ALPB and GBSA implicit solvation:
   * S. Ehlert, M. Stahn, S. Spicher, S. Grimme, J. Chem. Theory Comput.,
     2021, 17, 4250-4261. DOI: 10.1021/acs.jctc.1c00471
   
   for DFT-D4:
   * E. Caldeweyher, C. Bannwarth and S. Grimme, J. Chem. Phys., 2017,
     147, 034112. DOI: 10.1063/1.4993215
   * E. Caldeweyher, S. Ehlert, A. Hansen, H. Neugebauer, S. Spicher,
     C. Bannwarth and S. Grimme, J. Chem. Phys., 2019, 150, 154122.
     DOI: 10.1063/1.5090222
   * E. Caldeweyher, J.-M. Mewes, S. Ehlert and S. Grimme, Phys. Chem. Chem. Phys.
     2020, 22, 8499-8512. DOI: 10.1039/D0CP00502A
   
   for sTDA-xTB:
   * S. Grimme and C. Bannwarth, J. Chem. Phys., 2016, 145, 054103.
     DOI: 10.1063/1.4959605
   
   in the mass-spec context:
   * V. Asgeirsson, C. Bauer and S. Grimme, Chem. Sci., 2017, 8, 4879.
     DOI: 10.1039/c7sc00601b
   * J. Koopman and S. Grimme, ACS Omega 2019, 4, 12, 15120-15133.
     DOI: 10.1021/acsomega.9b02011
   
   for metadynamics refer to:
   * S. Grimme, J. Chem. Theory Comput., 2019, 155, 2847-2862
     DOI: 10.1021/acs.jctc.9b00143
   
   for SPH calculations refer to:
   * S. Spicher and S. Grimme, J. Chem. Theory Comput., 2021, 17, 1701-1714
     DOI: 10.1021/acs.jctc.0c01306
   
   with help from (in alphabetical order)
   P. Atkinson, C. Bannwarth, F. Bohle, G. Brandenburg, E. Caldeweyher
   M. Checinski, S. Dohm, S. Ehlert, S. Ehrlich, I. Gerasimov, C. Hölzer
   A. Katbashev, J. Koopman, C. Lavigne, S. Lehtola, F. März, M. Müller,
   F. Musil, H. Neugebauer, J. Pisarek, C. Plett, P. Pracht, F. Pultar,
   J. Seibert, P. Shushkov, S. Spicher, M. Stahn, M. Steiner, T. Strunk,
   J. Stückrath, T. Rose, and J. Unsleber
   
 * started run on 2022/07/30 at 14:41:29.716     

           -------------------------------------------------
          |                Calculation Setup                |
           -------------------------------------------------

          program call               : xtb xtbopt.xyz --gfn 1 --vipea
          hostname                   : cx3-15-13.cx3.hpc.ic.ac.uk
          coordinate file            : xtbopt.xyz
          omp threads                :                     1

   ID    Z sym.   atoms
    1   29 Cu     1, 59, 133
    2    6 C      2-6, 8-13, 15-19, 21-26, 28-33, 35-40, 60-64, 66-71, 73-77,
                  79-84, 86-91, 93-98, 117-132, 134-138, 140-145, 147-151,
                  153-158, 160-165, 167-172
    3    7 N      7, 14, 20, 27, 34, 41, 65, 72, 78, 85, 92, 99, 139, 146,
                  152, 159, 166, 173
    4    1 H      42-58, 100-116, 174-189

           -------------------------------------------------
          |                 I P E A - x T B                 |
           -------------------------------------------------

        Reference                      10.1039/c7sc00601b
      * Hamiltonian:
        H0-scaling (s, p, d)           2.150000    2.300000    2.000000
        zeta-weighting                 0.000000
      * Dispersion:
        s8                             2.400000
        a1                             0.630000
        a2                             5.000000
        s9                             0.000000
      * Repulsion:
        kExp                           1.500000
        rExp                           1.000000
      * Coulomb:
        alpha                          1.000000
        third order                    atomic
        anisotropic                    false
      * Halogen bond correction:
        rad-scale                      1.300000
        damping                        0.440000


          ...................................................
          :                      SETUP                      :
          :.................................................:
          :  # basis functions                 810          :
          :  # atomic orbitals                 807          :
          :  # shells                          517          :
          :  # electrons                       645          :
          :  # halogen bonds                     0          :
          :  max. iterations                   250          :
          :  Hamiltonian                  GFN1-xTB          :
          :  restarted?                      false          :
          :  GBSA solvation                  false          :
          :  PC potential                    false          :
          :  electronic temp.          300.0000000     K    :
          :  accuracy                    1.0000000          :
          :  -> integral cutoff          0.2500000E+02      :
          :  -> integral neglect         0.1000000E-07      :
          :  -> SCF convergence          0.1000000E-05 Eh   :
          :  -> wf. convergence          0.2000000E-04 e    :
          :  Broyden damping             0.4000000          :
          ...................................................

 iter      E             dE          RMSdq      gap      omega  full diag
   1   -401.1875945 -0.401188E+03  0.106E+01    0.00       0.0  T
   2   -400.8685084  0.319086E+00  0.664E+00    0.10       1.0  T
   3   -389.7135744  0.111549E+02  0.612E+00    0.45       1.0  T
   4   -399.8807299 -0.101672E+02  0.175E+00    0.27       1.0  T
   5   -401.0413635 -0.116063E+01  0.129E+00    0.01       1.0  T
   6   -402.5022027 -0.146084E+01  0.550E-01    0.02       1.0  T
   7   -402.5634654 -0.612626E-01  0.270E-01    0.01       1.0  T
   8   -402.3192552  0.244210E+00  0.780E-01    0.14       1.0  T
   9   -402.3836432 -0.643880E-01  0.682E-01    0.07       1.0  T
  10   -402.2930189  0.906243E-01  0.731E-01    0.22       1.0  T
  11   -402.4361682 -0.143149E+00  0.617E-01    0.02       1.0  T
  12   -402.5210224 -0.848542E-01  0.383E-01    0.04       1.0  T
  13   -402.4757057  0.453168E-01  0.490E-01    0.01       1.0  T
  14   -402.5666311 -0.909255E-01  0.271E-01    0.01       1.0  T
  15   -402.5455579  0.210732E-01  0.339E-01    0.02       1.0  T
  16   -402.5480198 -0.246189E-02  0.293E-01    0.01       1.0  T
  17   -402.5841752 -0.361554E-01  0.132E-01    0.01       1.0  T
  18   -402.5886247 -0.444944E-02  0.727E-02    0.01       1.0  T
  19   -402.5876413  0.983359E-03  0.931E-02    0.02       1.0  T
  20   -402.5908081 -0.316681E-02  0.301E-02    0.00       1.0  T
  21   -402.5911800 -0.371884E-03  0.889E-03    0.01       1.0  T
  22   -402.5911812 -0.122343E-05  0.875E-03    0.00       1.0  T
  23   -402.5912131 -0.318734E-04  0.150E-03    0.00       4.8  T
  24   -402.5912140 -0.883216E-06  0.552E-04    0.00      13.2  T
  25   -402.5912140  0.120815E-07  0.550E-04    0.00      13.2  T
  26   -402.5912140 -0.817028E-07  0.315E-04    0.00      23.1  T
  27   -402.5912141 -0.418779E-07  0.895E-05    0.00      81.3  T
  28   -402.5912141 -0.212208E-08  0.601E-05    0.00     121.0  T

   *** convergence criteria satisfied after 28 iterations ***

         #    Occupation            Energy/Eh            Energy/eV
      -------------------------------------------------------------
         1        2.0000           -1.0265813             -27.9347
       ...           ...                  ...                  ...
       317        2.0000           -0.3994616             -10.8699
       318        2.0000           -0.3962889             -10.7836
       319        2.0000           -0.3913763             -10.6499
       320        2.0000           -0.3857984             -10.4981
       321        2.0000           -0.3754357             -10.2161
       322        0.9565           -0.3272766              -8.9056
       323        0.8198           -0.3269916              -8.8979 (HOMO)
       324        0.7477           -0.3268364              -8.8937 (LUMO)
       325        0.4754           -0.3261778              -8.8757
       326        0.0006           -0.3194685              -8.6932
       327        0.0000           -0.3161670              -8.6033
       328        0.0000           -0.3155649              -8.5870
       ...           ...                  ...                  ...
       807                        510.0193652           13878.3333
      -------------------------------------------------------------
                  HL-Gap            0.0001552 Eh            0.0042 eV
             Fermi-level           -0.3273662 Eh           -8.9081 eV

 SCC (total)                   0 d,  0 h,  0 min,  7.045 sec
 SCC setup                      ...        0 min,  0.005 sec (  0.065%)
 Dispersion                     ...        0 min,  0.006 sec (  0.085%)
 classical contributions        ...        0 min,  0.002 sec (  0.027%)
 integral evaluation            ...        0 min,  0.444 sec (  6.302%)
 iterations                     ...        0 min,  5.643 sec ( 80.096%)
 molecular gradient             ...        0 min,  0.896 sec ( 12.715%)
 printout                       ...        0 min,  0.050 sec (  0.710%)

         :::::::::::::::::::::::::::::::::::::::::::::::::::::
         ::                     SUMMARY                     ::
         :::::::::::::::::::::::::::::::::::::::::::::::::::::
         :: total energy            -394.194016508992 Eh    ::
         :: gradient norm              0.092064413320 Eh/a0 ::
         :: HOMO-LUMO gap              0.004223526560 eV    ::
         ::.................................................::
         :: SCC energy              -402.591214077405 Eh    ::
         :: -> electrostatic           0.273619875167 Eh    ::
         :: repulsion energy           8.568704107564 Eh    ::
         :: dispersion energy         -0.171506539150 Eh    ::
         :: halogen bond corr.         0.000000000000 Eh    ::
         :: add. restraining           0.000000000000 Eh    ::
         :: total charge               0.000000000023 e     ::
         :::::::::::::::::::::::::::::::::::::::::::::::::::::

           ------------------------------------------------- 
          |        vertical delta SCC IP calculation        |
           ------------------------------------------------- 
   1   -402.2303642 -0.402230E+03  0.192E-01    0.01       0.0  T
   2   -402.1480109  0.823533E-01  0.481E-01    0.09       1.0  T
   3   -402.1675757 -0.195648E-01  0.374E-01    0.00       1.0  T
   4   -402.1826769 -0.151012E-01  0.354E-01    0.05       1.0  T
   5   -402.1871541 -0.447716E-02  0.328E-01    0.05       1.0  T
   6   -402.2056080 -0.184539E-01  0.261E-01    0.03       1.0  T
   7   -402.2379627 -0.323547E-01  0.383E-02    0.00       1.0  T
   8   -402.2265832  0.113795E-01  0.161E-01    0.03       1.0  T
   9   -402.2384008 -0.118176E-01  0.102E-02    0.00       1.0  T
  10   -402.2376498  0.751025E-03  0.425E-02    0.00       1.0  T
  11   -402.2383980 -0.748191E-03  0.110E-02    0.00       1.0  T
  12   -402.2384358 -0.378789E-04  0.629E-03    0.00       1.2  T
  13   -402.2384530 -0.171506E-04  0.916E-04    0.00       7.9  T
  14   -402.2384507  0.227850E-05  0.249E-03    0.00       2.9  T
  15   -402.2384532 -0.252783E-05  0.621E-04    0.00      11.7  T
  16   -402.2384534 -0.164809E-06  0.102E-04    0.00      71.1  T
  17   -402.2384534 -0.274537E-08  0.681E-05    0.00     106.8  T
     SCC iter.                  ...        0 min,  3.285 sec
     gradient                   ...        0 min,  0.898 sec
------------------------------------------------------------------------
empirical IP shift (eV):    4.8455
delta SCC IP (eV):    4.7536
------------------------------------------------------------------------
           ------------------------------------------------- 
          |        vertical delta SCC EA calculation        |
           ------------------------------------------------- 
   1   -402.8555625 -0.402856E+03  0.434E-01    0.00       0.0  T
   2   -402.6757262  0.179836E+00  0.765E-01    0.12       1.0  T
   3   -402.7677830 -0.920568E-01  0.581E-01    0.07       1.0  T
   4   -402.7752154 -0.743245E-02  0.577E-01    0.02       1.0  T
   5   -402.7230978  0.521176E-01  0.688E-01    0.07       1.0  T
   6   -402.8488232 -0.125725E+00  0.399E-01    0.04       1.0  T
   7   -402.7327259  0.116097E+00  0.618E-01    0.05       1.0  T
   8   -402.8789756 -0.146250E+00  0.180E-01    0.01       1.0  T
   9   -402.7584277  0.120548E+00  0.491E-01    0.02       1.0  T
  10   -402.8841867 -0.125759E+00  0.141E-01    0.01       1.0  T
  11   -402.8916323 -0.744558E-02  0.705E-02    0.01       1.0  T
  12   -402.8870666  0.456570E-02  0.119E-01    0.01       1.0  T
  13   -402.8933661 -0.629954E-02  0.145E-02    0.01       1.0  T
  14   -402.8931152  0.250871E-03  0.260E-02    0.01       1.0  T
  15   -402.8934346 -0.319352E-03  0.424E-03    0.01       1.7  T
  16   -402.8934338  0.800483E-06  0.618E-03    0.01       1.2  T
  17   -402.8934479 -0.141198E-04  0.155E-03    0.01       4.7  T
  18   -402.8934416  0.627190E-05  0.388E-03    0.01       1.9  T
  19   -402.8934482 -0.660914E-05  0.146E-03    0.01       5.0  T
  20   -402.8934494 -0.110439E-05  0.183E-04    0.01      39.8  T
  21   -402.8934494 -0.430020E-08  0.143E-04    0.01      50.8  T
  22   -402.8934494  0.240459E-08  0.153E-04    0.01      47.4  T
     SCC iter.                  ...        0 min,  4.402 sec
     gradient                   ...        0 min,  0.899 sec
------------------------------------------------------------------------
empirical EA shift (eV):    4.8455
delta SCC EA (eV):    3.3787
------------------------------------------------------------------------
           -------------------------------------------------
          |                Property Printout                |
           -------------------------------------------------

    * Orbital Energies and Occupations

         #    Occupation            Energy/Eh            Energy/eV
      -------------------------------------------------------------
         1        2.0000           -0.9779855             -26.6123
       ...           ...                  ...                  ...
       311        2.0000           -0.3763462             -10.2409
       312        2.0000           -0.3719814             -10.1221
       313        2.0000           -0.3626964              -9.8695
       314        2.0000           -0.3541324              -9.6364
       315        2.0000           -0.3526286              -9.5955
       316        2.0000           -0.3517943              -9.5728
       317        2.0000           -0.3499779              -9.5234
       318        2.0000           -0.3464761              -9.4281
       319        2.0000           -0.3428401              -9.3292
       320        2.0000           -0.3374370              -9.1821
       321        2.0000           -0.3260784              -8.8730
       322        1.3594           -0.2774178              -7.5489
       323        0.9783           -0.2766618              -7.5284 (HOMO)
       324        0.8422           -0.2764007              -7.5212 (LUMO)
       325        0.8122           -0.2763420              -7.5196
       326        0.0050           -0.2710049              -7.3744
       327        0.0020           -0.2701176              -7.3503
       328        0.0009           -0.2693960              -7.3306
       329        0.0000           -0.2643021              -7.1920
       330        0.0000           -0.2631478              -7.1606
       331                         -0.2390442              -6.5047
       332                         -0.2371713              -6.4538
       333                         -0.2345980              -6.3837
       334                         -0.2292002              -6.2369
       ...                                ...                  ...
       807                        510.0675513           13879.6445
      -------------------------------------------------------------
                  HL-Gap            0.0002612 Eh            0.0071 eV
             Fermi-level           -0.2767030 Eh           -7.5295 eV

  Mulliken/CM5 charges         n(s)   n(p)   n(d)
     1Cu    0.29258  0.64766   0.535  0.890  9.283
     2C    -0.02625 -0.06752   1.083  2.943  0.000
     3C     0.05896  0.12039   1.117  2.824  0.000
     4C    -0.03898 -0.08515   1.087  2.952  0.000
     5C    -0.03630 -0.08205   1.081  2.955  0.000
     6C     0.05803  0.12319   1.108  2.834  0.000
     7N    -0.21334 -0.46375   1.327  3.887  0.000
     8C     0.00880  0.01408   1.088  2.903  0.000
     9C     0.01600  0.00722   1.092  2.892  0.000
    10C    -0.01706 -0.07036   1.076  2.941  0.000
    11C    -0.01232 -0.06440   1.092  2.921  0.000
    12C     0.01500  0.01125   1.076  2.909  0.000
    13C     0.11183  0.22935   1.210  2.678  0.000
    14N    -0.26967 -0.39425   1.544  3.726  0.000
    15C    -0.01184 -0.06391   1.092  2.920  0.000
    16C    -0.01641 -0.06967   1.077  2.940  0.000
    17C     0.05690  0.12122   1.105  2.838  0.000
    18C    -0.03702 -0.08276   1.079  2.958  0.000
    19C    -0.03694 -0.08219   1.085  2.952  0.000
    20N    -0.21003 -0.45983   1.329  3.882  0.000
    21C     0.06353  0.12965   1.121  2.815  0.000
    22C     0.01435  0.02116   1.081  2.905  0.000
    23C     0.06349  0.12962   1.121  2.815  0.000
    24C    -0.03699 -0.08223   1.085  2.952  0.000
    25C    -0.03705 -0.08279   1.079  2.959  0.000
    26C     0.05689  0.12120   1.105  2.838  0.000
    27N    -0.21014 -0.45978   1.329  3.882  0.000
    28C     0.00878  0.01406   1.088  2.903  0.000
    29C     0.01599  0.00721   1.092  2.892  0.000
    30C    -0.01708 -0.07039   1.076  2.941  0.000
    31C    -0.01235 -0.06444   1.092  2.921  0.000
    32C     0.01498  0.01123   1.076  2.909  0.000
    33C     0.11181  0.22931   1.210  2.678  0.000
    34N    -0.26973 -0.39429   1.544  3.726  0.000
    35C    -0.01184 -0.06391   1.092  2.920  0.000
    36C    -0.01639 -0.06966   1.076  2.940  0.000
    37C     0.05802  0.12317   1.108  2.834  0.000
    38C    -0.03629 -0.08205   1.081  2.956  0.000
    39C    -0.03900 -0.08516   1.087  2.952  0.000
    40C     0.05895  0.12037   1.117  2.824  0.000
    41N    -0.21327 -0.46381   1.327  3.887  0.000
    42H     0.02412  0.08305   0.976  0.000  0.000
    43H     0.03052  0.08706   0.969  0.000  0.000
    44H     0.02331  0.08214   0.977  0.000  0.000
    45H     0.02933  0.08722   0.971  0.000  0.000
    46H     0.04013  0.09739   0.960  0.000  0.000
    47H     0.04108  0.09833   0.959  0.000  0.000
    48H     0.03042  0.08831   0.970  0.000  0.000
    49H     0.02383  0.08265   0.976  0.000  0.000
    50H     0.02774  0.08580   0.972  0.000  0.000
    51H     0.02765  0.08568   0.972  0.000  0.000
    52H     0.02379  0.08261   0.976  0.000  0.000
    53H     0.02926  0.08716   0.971  0.000  0.000
    54H     0.04009  0.09734   0.960  0.000  0.000
    55H     0.04108  0.09835   0.959  0.000  0.000
    56H     0.03046  0.08834   0.970  0.000  0.000
    57H     0.02330  0.08215   0.977  0.000  0.000
    58H     0.03051  0.08706   0.969  0.000  0.000
    59Cu    0.28700  0.64208   0.533  0.887  9.293
    60C    -0.02525 -0.06652   1.084  2.941  0.000
    61C     0.05912  0.12055   1.117  2.824  0.000
    62C    -0.03865 -0.08481   1.087  2.951  0.000
    63C    -0.03617 -0.08192   1.081  2.955  0.000
    64C     0.05852  0.12368   1.108  2.833  0.000
    65N    -0.21348 -0.46391   1.327  3.887  0.000
    66C     0.00903  0.01431   1.088  2.902  0.000
    67C     0.01598  0.00719   1.092  2.892  0.000
    68C    -0.01705 -0.07035   1.076  2.941  0.000
    69C    -0.01229 -0.06437   1.092  2.921  0.000
    70C     0.01505  0.01131   1.076  2.909  0.000
    71C     0.11186  0.22937   1.210  2.678  0.000
    72N    -0.26953 -0.39410   1.544  3.725  0.000
    73C    -0.01180 -0.06387   1.092  2.920  0.000
    74C    -0.01641 -0.06967   1.076  2.940  0.000
    75C     0.05749  0.12182   1.106  2.837  0.000
    76C    -0.03669 -0.08242   1.079  2.958  0.000
    77C    -0.03650 -0.08175   1.086  2.951  0.000
    78N    -0.21040 -0.46016   1.328  3.882  0.000
    79C     0.06385  0.12995   1.122  2.815  0.000
    80C     0.01519  0.02200   1.081  2.903  0.000
    81C     0.06379  0.12991   1.122  2.815  0.000
    82C    -0.03654 -0.08179   1.086  2.951  0.000
    83C    -0.03672 -0.08246   1.079  2.958  0.000
    84C     0.05748  0.12179   1.106  2.837  0.000
    85N    -0.21049 -0.46013   1.328  3.882  0.000
    86C     0.00901  0.01429   1.088  2.903  0.000
    87C     0.01596  0.00718   1.092  2.892  0.000
    88C    -0.01708 -0.07038   1.076  2.941  0.000
    89C    -0.01233 -0.06441   1.092  2.921  0.000
    90C     0.01502  0.01128   1.076  2.909  0.000
    91C     0.11186  0.22943   1.210  2.678  0.000
    92N    -0.26955 -0.39418   1.544  3.726  0.000
    93C    -0.01181 -0.06388   1.092  2.920  0.000
    94C    -0.01639 -0.06967   1.076  2.940  0.000
    95C     0.05852  0.12368   1.108  2.833  0.000
    96C    -0.03616 -0.08191   1.081  2.955  0.000
    97C    -0.03866 -0.08482   1.087  2.951  0.000
    98C     0.05911  0.12053   1.117  2.824  0.000
    99N    -0.21342 -0.46396   1.327  3.887  0.000
   100H     0.02456  0.08349   0.975  0.000  0.000
   101H     0.03079  0.08734   0.969  0.000  0.000
   102H     0.02350  0.08234   0.977  0.000  0.000
   103H     0.02942  0.08731   0.971  0.000  0.000
   104H     0.04022  0.09748   0.960  0.000  0.000
   105H     0.04124  0.09850   0.959  0.000  0.000
   106H     0.03057  0.08845   0.969  0.000  0.000
   107H     0.02411  0.08293   0.976  0.000  0.000
   108H     0.02803  0.08609   0.972  0.000  0.000
   109H     0.02796  0.08599   0.972  0.000  0.000
   110H     0.02406  0.08288   0.976  0.000  0.000
   111H     0.02937  0.08727   0.971  0.000  0.000
   112H     0.04017  0.09743   0.960  0.000  0.000
   113H     0.04124  0.09849   0.959  0.000  0.000
   114H     0.03057  0.08846   0.969  0.000  0.000
   115H     0.02350  0.08235   0.976  0.000  0.000
   116H     0.03078  0.08733   0.969  0.000  0.000
   117C    -0.02342 -0.02504   1.090  2.933  0.000
   118C    -0.02399 -0.02473   1.063  2.961  0.000
   119C    -0.02163 -0.02172   1.075  2.947  0.000
   120C    -0.02005 -0.02006   1.077  2.943  0.000
   121C    -0.02276 -0.02277   1.075  2.948  0.000
   122C    -0.01906 -0.01916   1.077  2.942  0.000
   123C    -0.02701 -0.02774   1.060  2.967  0.000
   124C    -0.02130 -0.02290   1.093  2.928  0.000
   125C    -0.02042 -0.02203   1.094  2.927  0.000
   126C    -0.02688 -0.02761   1.060  2.967  0.000
   127C    -0.01810 -0.01819   1.078  2.940  0.000
   128C    -0.02239 -0.02239   1.075  2.948  0.000
   129C    -0.01913 -0.01914   1.077  2.942  0.000
   130C    -0.02108 -0.02117   1.075  2.946  0.000
   131C    -0.02318 -0.02392   1.063  2.960  0.000
   132C    -0.02278 -0.02440   1.090  2.933  0.000
   133Cu    0.31970  0.67111   0.541  0.899  9.241
   134C     0.00905  0.01590   1.076  2.915  0.000
   135C     0.06318  0.12947   1.121  2.815  0.000
   136C    -0.03898 -0.08422   1.084  2.955  0.000
   137C    -0.03713 -0.08287   1.079  2.958  0.000
   138C     0.05432  0.11869   1.102  2.844  0.000
   139N    -0.20887 -0.45808   1.327  3.881  0.000
   140C     0.01038  0.01559   1.089  2.900  0.000
   141C     0.01652  0.00771   1.092  2.891  0.000
   142C    -0.01633 -0.06962   1.077  2.940  0.000
   143C    -0.01196 -0.06404   1.092  2.920  0.000
   144C     0.01501  0.01126   1.076  2.909  0.000
   145C     0.11185  0.22940   1.210  2.678  0.000
   146N    -0.27029 -0.39489   1.544  3.726  0.000
   147C    -0.01195 -0.06403   1.092  2.920  0.000
   148C    -0.01635 -0.06964   1.076  2.940  0.000
   149C     0.05438  0.11876   1.102  2.843  0.000
   150C    -0.03699 -0.08272   1.079  2.958  0.000
   151C    -0.03897 -0.08421   1.084  2.955  0.000
   152N    -0.20903 -0.45822   1.327  3.882  0.000
   153C     0.06327  0.12953   1.122  2.815  0.000
   154C     0.00879  0.01564   1.075  2.916  0.000
   155C     0.06327  0.12953   1.122  2.815  0.000
   156C    -0.03898 -0.08422   1.084  2.955  0.000
   157C    -0.03700 -0.08273   1.079  2.958  0.000
   158C     0.05437  0.11874   1.102  2.843  0.000
   159N    -0.20906 -0.45821   1.327  3.882  0.000
   160C     0.01039  0.01560   1.089  2.900  0.000
   161C     0.01652  0.00771   1.092  2.891  0.000
   162C    -0.01633 -0.06962   1.077  2.940  0.000
   163C    -0.01195 -0.06403   1.092  2.920  0.000
   164C     0.01501  0.01126   1.076  2.909  0.000
   165C     0.11186  0.22941   1.210  2.678  0.000
   166N    -0.27028 -0.39489   1.544  3.726  0.000
   167C    -0.01196 -0.06404   1.092  2.920  0.000
   168C    -0.01635 -0.06964   1.076  2.940  0.000
   169C     0.05431  0.11867   1.102  2.844  0.000
   170C    -0.03712 -0.08286   1.079  2.958  0.000
   171C    -0.03898 -0.08422   1.084  2.955  0.000
   172C     0.06317  0.12946   1.121  2.815  0.000
   173N    -0.20886 -0.45809   1.327  3.881  0.000
   174H     0.02591  0.08395   0.974  0.000  0.000
   175H     0.02274  0.08161   0.977  0.000  0.000
   176H     0.02988  0.08778   0.970  0.000  0.000
   177H     0.04034  0.09759   0.960  0.000  0.000
   178H     0.04040  0.09766   0.960  0.000  0.000
   179H     0.02992  0.08780   0.970  0.000  0.000
   180H     0.02279  0.08165   0.977  0.000  0.000
   181H     0.02589  0.08393   0.974  0.000  0.000
   182H     0.02586  0.08389   0.974  0.000  0.000
   183H     0.02278  0.08164   0.977  0.000  0.000
   184H     0.02989  0.08778   0.970  0.000  0.000
   185H     0.04035  0.09760   0.960  0.000  0.000
   186H     0.04039  0.09764   0.960  0.000  0.000
   187H     0.02992  0.08780   0.970  0.000  0.000
   188H     0.02275  0.08162   0.977  0.000  0.000
   189H     0.02593  0.08396   0.974  0.000  0.000

Wiberg/Mayer (AO) data.
largest (>0.10) Wiberg bond orders for each atom

 ---------------------------------------------------------------------------
     #   Z sym  total        # sym  WBO       # sym  WBO       # sym  WBO
 ---------------------------------------------------------------------------
     1  29 Cu   2.648 --    41 N    0.603     7 N    0.602    20 N    0.598
                            27 N    0.598
     2   6 C    3.794 --     3 C    1.385    40 C    1.385    42 H    0.997
     3   6 C    3.947 --     2 C    1.385     7 N    1.274     4 C    1.197
     4   6 C    3.837 --     5 C    1.643     3 C    1.197    43 H    0.993
     5   6 C    3.824 --     4 C    1.643     6 C    1.204    44 H    0.999
     6   6 C    3.915 --     8 C    1.365     7 N    1.266     5 C    1.204
     7   7 N    2.952 --     3 C    1.274     6 C    1.266     1 Cu   0.602
     8   6 C    3.831 --     6 C    1.365    17 C    1.359     9 C    1.051
     9   6 C    3.870 --    16 C    1.417    10 C    1.417     8 C    1.051
    10   6 C    3.864 --    11 C    1.463     9 C    1.417    45 H    0.987
    11   6 C    3.906 --    10 C    1.463    12 C    1.382    46 H    0.986
    12   6 C    3.905 --    11 C    1.382    15 C    1.382    13 C    1.125
    13   6 C    4.102 --    14 N    2.961    12 C    1.125
    14   7 N    2.986 --    13 C    2.961
    15   6 C    3.906 --    16 C    1.463    12 C    1.382    47 H    0.985
    16   6 C    3.865 --    15 C    1.463     9 C    1.417    48 H    0.987
    17   6 C    3.900 --     8 C    1.359    20 N    1.256    18 C    1.217
    18   6 C    3.813 --    19 C    1.619    17 C    1.217    49 H    0.998
    19   6 C    3.826 --    18 C    1.619    21 C    1.227    50 H    0.999
    20   7 N    2.966 --    21 C    1.301    17 C    1.256     1 Cu   0.598
    21   6 C    3.917 --    20 N    1.301    22 C    1.283    19 C    1.227
    22   6 C    3.811 --    23 C    1.283    21 C    1.283   117 C    1.235
    23   6 C    3.918 --    27 N    1.301    22 C    1.283    24 C    1.227
    24   6 C    3.826 --    25 C    1.619    23 C    1.227    51 H    0.999
    25   6 C    3.813 --    24 C    1.619    26 C    1.217    52 H    0.998
    26   6 C    3.900 --    28 C    1.359    27 N    1.255    25 C    1.217
    27   7 N    2.966 --    23 C    1.301    26 C    1.255     1 Cu   0.598
    28   6 C    3.831 --    37 C    1.364    26 C    1.359    29 C    1.052
    29   6 C    3.870 --    36 C    1.417    30 C    1.416    28 C    1.052
    30   6 C    3.865 --    31 C    1.463    29 C    1.416    53 H    0.987
    31   6 C    3.906 --    30 C    1.463    32 C    1.382    54 H    0.985
    32   6 C    3.905 --    31 C    1.382    35 C    1.382    33 C    1.125
    33   6 C    4.102 --    34 N    2.961    32 C    1.125
    34   7 N    2.985 --    33 C    2.961
    35   6 C    3.906 --    36 C    1.463    32 C    1.382    55 H    0.985
    36   6 C    3.865 --    35 C    1.463    29 C    1.417    56 H    0.987
    37   6 C    3.915 --    28 C    1.364    41 N    1.266    38 C    1.204
    38   6 C    3.824 --    39 C    1.643    37 C    1.204    57 H    0.999
    39   6 C    3.837 --    38 C    1.643    40 C    1.197    58 H    0.993
    40   6 C    3.947 --     2 C    1.385    41 N    1.274    39 C    1.197
    41   7 N    2.952 --    40 C    1.274    37 C    1.266     1 Cu   0.603
    42   1 H    1.034 --     2 C    0.997
    43   1 H    1.023 --     4 C    0.993
    44   1 H    1.037 --     5 C    0.999
    45   1 H    1.053 --    10 C    0.987
    46   1 H    1.038 --    11 C    0.986
    47   1 H    1.038 --    15 C    0.985
    48   1 H    1.053 --    16 C    0.987
    49   1 H    1.036 --    18 C    0.998
    50   1 H    1.035 --    19 C    0.999
    51   1 H    1.035 --    24 C    0.999
    52   1 H    1.036 --    25 C    0.998
    53   1 H    1.053 --    30 C    0.987
    54   1 H    1.038 --    31 C    0.985
    55   1 H    1.038 --    35 C    0.985
    56   1 H    1.053 --    36 C    0.987
    57   1 H    1.037 --    38 C    0.999
    58   1 H    1.023 --    39 C    0.993
    59  29 Cu   2.629 --    99 N    0.598    65 N    0.598    78 N    0.595
                            85 N    0.594
    60   6 C    3.797 --    98 C    1.385    61 C    1.385   100 H    0.997
    61   6 C    3.947 --    60 C    1.385    65 N    1.274    62 C    1.197
    62   6 C    3.838 --    63 C    1.644    61 C    1.197   101 H    0.993
    63   6 C    3.825 --    62 C    1.644    64 C    1.204   102 H    0.999
    64   6 C    3.915 --    66 C    1.364    65 N    1.268    63 C    1.204
    65   7 N    2.951 --    61 C    1.274    64 C    1.268    59 Cu   0.598
    66   6 C    3.832 --    64 C    1.364    75 C    1.360    67 C    1.051
    67   6 C    3.870 --    74 C    1.417    68 C    1.416    66 C    1.051
    68   6 C    3.864 --    69 C    1.463    67 C    1.416   103 H    0.987
    69   6 C    3.906 --    68 C    1.463    70 C    1.382   104 H    0.985
    70   6 C    3.905 --    73 C    1.382    69 C    1.382    71 C    1.125
    71   6 C    4.102 --    72 N    2.961    70 C    1.125
    72   7 N    2.986 --    71 C    2.961
    73   6 C    3.906 --    74 C    1.463    70 C    1.382   105 H    0.985
    74   6 C    3.865 --    73 C    1.463    67 C    1.417   106 H    0.987
    75   6 C    3.902 --    66 C    1.360    78 N    1.257    76 C    1.215
    76   6 C    3.814 --    77 C    1.622    75 C    1.215   107 H    0.998
    77   6 C    3.827 --    76 C    1.622    79 C    1.225   108 H    0.999
    78   7 N    2.965 --    79 C    1.301    75 C    1.257    59 Cu   0.595
    79   6 C    3.919 --    78 N    1.301    80 C    1.286    77 C    1.225
    80   6 C    3.816 --    81 C    1.286    79 C    1.286   132 C    1.229
    81   6 C    3.919 --    85 N    1.301    80 C    1.286    82 C    1.225
    82   6 C    3.827 --    83 C    1.622    81 C    1.225   109 H    0.999
    83   6 C    3.814 --    82 C    1.622    84 C    1.216   110 H    0.998
    84   6 C    3.902 --    86 C    1.360    85 N    1.257    83 C    1.216
    85   7 N    2.964 --    81 C    1.301    84 C    1.257    59 Cu   0.594
    86   6 C    3.832 --    95 C    1.364    84 C    1.360    87 C    1.052
    87   6 C    3.870 --    94 C    1.417    88 C    1.416    86 C    1.052
    88   6 C    3.865 --    89 C    1.463    87 C    1.416   111 H    0.987
    89   6 C    3.906 --    88 C    1.463    90 C    1.382   112 H    0.986
    90   6 C    3.905 --    93 C    1.383    89 C    1.382    91 C    1.125
    91   6 C    4.102 --    92 N    2.961    90 C    1.125
    92   7 N    2.986 --    91 C    2.961
    93   6 C    3.906 --    94 C    1.463    90 C    1.383   113 H    0.985
    94   6 C    3.865 --    93 C    1.463    87 C    1.417   114 H    0.987
    95   6 C    3.915 --    86 C    1.364    99 N    1.268    96 C    1.204
    96   6 C    3.824 --    97 C    1.644    95 C    1.204   115 H    0.999
    97   6 C    3.838 --    96 C    1.644    98 C    1.197   116 H    0.993
    98   6 C    3.947 --    60 C    1.385    99 N    1.274    97 C    1.197
    99   7 N    2.951 --    98 C    1.274    95 C    1.268    59 Cu   0.598
   100   1 H    1.034 --    60 C    0.997
   101   1 H    1.023 --    62 C    0.993
   102   1 H    1.037 --    63 C    0.999
   103   1 H    1.053 --    68 C    0.987
   104   1 H    1.038 --    69 C    0.985
   105   1 H    1.038 --    73 C    0.985
   106   1 H    1.053 --    74 C    0.987
   107   1 H    1.036 --    76 C    0.998
   108   1 H    1.035 --    77 C    0.999
   109   1 H    1.035 --    82 C    0.999
   110   1 H    1.036 --    83 C    0.998
   111   1 H    1.053 --    88 C    0.987
   112   1 H    1.038 --    89 C    0.986
   113   1 H    1.037 --    93 C    0.985
   114   1 H    1.053 --    94 C    0.987
   115   1 H    1.037 --    96 C    0.999
   116   1 H    1.023 --    97 C    0.993
   117   6 C    3.751 --   118 C    2.446    22 C    1.235   120 C    0.161
   118   6 C    3.806 --   117 C    2.446   119 C    1.375
   119   6 C    3.799 --   120 C    2.325   118 C    1.375   122 C    0.156
   120   6 C    3.831 --   119 C    2.325   121 C    1.405   117 C    0.161
   121   6 C    3.830 --   122 C    2.324   120 C    1.405   124 C    0.161
   122   6 C    3.800 --   121 C    2.324   123 C    1.378   119 C    0.156
   123   6 C    3.803 --   124 C    2.441   122 C    1.378
   124   6 C    3.752 --   123 C    2.441   134 C    1.239   121 C    0.161
   125   6 C    3.752 --   126 C    2.447   154 C    1.234   128 C    0.162
   126   6 C    3.804 --   125 C    2.447   127 C    1.373
   127   6 C    3.801 --   128 C    2.330   126 C    1.373   130 C    0.157
   128   6 C    3.831 --   127 C    2.330   129 C    1.400   125 C    0.162
   129   6 C    3.833 --   130 C    2.332   128 C    1.400   132 C    0.163
   130   6 C    3.799 --   129 C    2.332   131 C    1.370   127 C    0.157
   131   6 C    3.808 --   132 C    2.452   130 C    1.370
   132   6 C    3.751 --   131 C    2.452    80 C    1.229   129 C    0.163
   133  29 Cu   2.704 --   152 N    0.615   159 N    0.615   173 N    0.615
                           139 N    0.615
   134   6 C    3.794 --   172 C    1.277   135 C    1.277   124 C    1.239
   135   6 C    3.918 --   139 N    1.301   134 C    1.277   136 C    1.230
   136   6 C    3.821 --   137 C    1.615   135 C    1.230   174 H    0.999
   137   6 C    3.814 --   136 C    1.615   138 C    1.220   175 H    0.999
   138   6 C    3.898 --   140 C    1.362   139 N    1.246   137 C    1.220
   139   7 N    2.963 --   135 C    1.301   138 C    1.246   133 Cu   0.615
   140   6 C    3.827 --   149 C    1.363   138 C    1.362   141 C    1.051
   141   6 C    3.871 --   148 C    1.417   142 C    1.417   140 C    1.051
   142   6 C    3.865 --   143 C    1.463   141 C    1.417   176 H    0.987
   143   6 C    3.906 --   142 C    1.463   144 C    1.382   177 H    0.985
   144   6 C    3.905 --   147 C    1.382   143 C    1.382   145 C    1.125
   145   6 C    4.102 --   146 N    2.961   144 C    1.125
   146   7 N    2.985 --   145 C    2.961
   147   6 C    3.906 --   148 C    1.463   144 C    1.382   178 H    0.985
   148   6 C    3.865 --   147 C    1.463   141 C    1.417   179 H    0.987
   149   6 C    3.898 --   140 C    1.363   152 N    1.246   150 C    1.220
   150   6 C    3.815 --   151 C    1.616   149 C    1.220   180 H    0.999
   151   6 C    3.821 --   150 C    1.616   153 C    1.229   181 H    0.999
   152   7 N    2.963 --   153 C    1.300   149 C    1.246   133 Cu   0.615
   153   6 C    3.918 --   152 N    1.300   154 C    1.280   151 C    1.229
   154   6 C    3.796 --   153 C    1.280   155 C    1.280   125 C    1.234
   155   6 C    3.918 --   159 N    1.300   154 C    1.280   156 C    1.229
   156   6 C    3.821 --   157 C    1.616   155 C    1.229   182 H    0.999
   157   6 C    3.815 --   156 C    1.616   158 C    1.220   183 H    0.999
   158   6 C    3.898 --   160 C    1.363   159 N    1.246   157 C    1.220
   159   7 N    2.963 --   155 C    1.300   158 C    1.246   133 Cu   0.615
   160   6 C    3.827 --   158 C    1.363   169 C    1.362   161 C    1.051
   161   6 C    3.871 --   168 C    1.417   162 C    1.417   160 C    1.051
   162   6 C    3.865 --   163 C    1.463   161 C    1.417   184 H    0.987
   163   6 C    3.906 --   162 C    1.463   164 C    1.382   185 H    0.985
   164   6 C    3.905 --   167 C    1.383   163 C    1.382   165 C    1.125
   165   6 C    4.102 --   166 N    2.961   164 C    1.125
   166   7 N    2.985 --   165 C    2.961
   167   6 C    3.906 --   168 C    1.463   164 C    1.383   186 H    0.985
   168   6 C    3.865 --   167 C    1.463   161 C    1.417   187 H    0.987
   169   6 C    3.898 --   160 C    1.362   173 N    1.246   170 C    1.220
   170   6 C    3.814 --   171 C    1.615   169 C    1.220   188 H    0.999
   171   6 C    3.821 --   170 C    1.615   172 C    1.230   189 H    0.999
   172   6 C    3.918 --   173 N    1.301   134 C    1.277   171 C    1.230
   173   7 N    2.964 --   172 C    1.301   169 C    1.246   133 Cu   0.615
   174   1 H    1.036 --   136 C    0.999
   175   1 H    1.037 --   137 C    0.999
   176   1 H    1.053 --   142 C    0.987
   177   1 H    1.038 --   143 C    0.985
   178   1 H    1.038 --   147 C    0.985
   179   1 H    1.053 --   148 C    0.987
   180   1 H    1.037 --   150 C    0.999
   181   1 H    1.035 --   151 C    0.999
   182   1 H    1.035 --   156 C    0.999
   183   1 H    1.037 --   157 C    0.999
   184   1 H    1.053 --   162 C    0.987
   185   1 H    1.038 --   163 C    0.985
   186   1 H    1.038 --   167 C    0.985
   187   1 H    1.053 --   168 C    0.987
   188   1 H    1.037 --   170 C    0.999
   189   1 H    1.035 --   171 C    0.999
 ---------------------------------------------------------------------------

Topologies differ in total number of bonds
Writing topology from bond orders to xtbtopo.mol

 dipole moment from electron density (au)
     X       Y       Z   
 -88.9771  -0.0261   0.0709  total (Debye):  226.157


           -------------------------------------------------
          | TOTAL ENERGY             -394.496251783890 Eh   |
          | GRADIENT NORM               0.108063304492 Eh/α |
          | HOMO-LUMO GAP               0.007107238502 eV   |
           -------------------------------------------------
########################################################################
[WARNING] Runtime exception occurred
-1- restart_readRestart: Dimension missmatch in restart file.
########################################################################

------------------------------------------------------------------------
 * finished run on 2022/07/30 at 14:41:47.645     
------------------------------------------------------------------------
 total:
 * wall-time:     0 d,  0 h,  0 min, 17.929 sec
 *  cpu-time:     0 d,  0 h,  0 min, 17.822 sec
 * ratio c/w:     0.994 speedup
 SCF:
 * wall-time:     0 d,  0 h,  0 min, 17.508 sec
 *  cpu-time:     0 d,  0 h,  0 min, 17.408 sec
 * ratio c/w:     0.994 speedup

