118
 energy: -210.315545995205 gnorm: 0.000610372668 xtb: 6.5.1 (b24c23e)
Fe          16.86919784280693       -0.05526227676215       -0.02320312878171
C           13.48801507416051       -0.10370948388255       -0.21906830444928
C           14.15354755457078       -1.31067129083298       -0.28019295170410
C           13.49156259402068       -2.57640572175851       -0.37754563119477
C           14.44797841292921       -3.52530129154611       -0.24327501210097
C           15.69648295401099       -2.83770734337907       -0.08082089362248
N           15.50574227505776       -1.48340639146660       -0.13493989830714
C           16.90295427606909       -3.47061447753420        0.20185352321012
C           16.91596466571329       -4.94750063303832        0.33752834106431
C           16.62219244338135       -5.76160109562136       -0.75625534989114
C           16.64031816046732       -7.14256439786864       -0.63522494014715
C           16.94739255496026       -7.72483519579515        0.59237002385622
O           16.97296092822589       -9.07248166423069        0.75587401804834
C           17.23906958983246       -6.92194087696134        1.69363473023676
C           17.22616136821030       -5.54472673529949        1.56141819758042
C           18.09781917215831       -2.78040281905916        0.35442926551919
C           19.35830399632444       -3.41108998288192        0.61037897923104
C           20.30224262086672       -2.44210774421794        0.53590897793426
N           18.27511442627145       -1.43287214198292        0.14579868905356
C           19.62011605267501       -1.22558691946471        0.22622859880373
C           20.28015238126972       -0.01830431274402       -0.03871822168259
C           19.59560615287499        1.17989706312652       -0.27699054664048
C           20.24878943564115        2.41833838334004       -0.56115010504193
C           19.28547036903660        3.37128726530969       -0.58382086386642
C           18.04406253619311        2.70898650002480       -0.31653603063348
N           18.24590207862423        1.35614648677220       -0.18475394293775
C           16.82838407493905        3.36628846927813       -0.17460968559730
C           16.82143498106875        4.84692104561742       -0.18966049939454
C           17.54895280409449        5.56377881197889        0.76441474807701
C           17.54609659723856        6.94686252607496        0.76597119299609
C           16.81842203985659        7.63736137417577       -0.20191425037651
O           16.84085719641582        8.99439003950545       -0.17460901927490
C           16.09443617330242        6.93647852999130       -1.16381577548748
C           16.09488114514984        5.55033703920291       -1.15107488843628
C           15.62161595062867        2.68911968254572       -0.02832980089989
C           14.34917649185124        3.33264677576811        0.12705918994312
C           13.40951973442736        2.35799736884546        0.08444731179031
C           14.11025079962043        1.11957598057195       -0.07063392712280
N           15.46294513073177        1.33164168804526       -0.10490619413838
H           12.40479078334227       -0.11942565376374       -0.26445997111105
H           12.42846393845889       -2.70274209293725       -0.50844682229419
H           14.32802481171350       -4.59649218182129       -0.23631280874848
H           16.39571662908500       -5.30938168169085       -1.71537744984534
H           16.41853454378469       -7.77151275887079       -1.49069995667360
H           16.75652038114925       -9.53160959220139       -0.06666797768005
H           17.47253562213201       -7.38868416103323        2.64258466792621
H           17.44228573302440       -4.91959289400307        2.42048020417793
H           19.49695096969434       -4.46188536671843        0.80540706750177
H           21.36723274919596       -2.53179176752487        0.67297932240830
H           21.30802846908367        2.53191388057664       -0.72315451509465
H           19.39553236980542        4.42637497867712       -0.77434222423516
H           18.10647243103298        5.02607540395680        1.52312992723256
H           18.10120582687139        7.50474773556080        1.50990480448746
H           16.30440157440327        9.37079638178109       -0.88512602497063
H           15.53534797474623        7.47826703248125       -1.91914344163732
H           15.54252250016327        5.00668708443437       -1.90937559127965
H           14.20491672682045        4.39342893110313        0.25322015002560
H           12.33750616748116        2.44980765608723        0.15860854576485
Fe          27.71851867254031        0.05135385804405       -0.03095607716575
C           31.09970395921925        0.07119805071716       -0.23168136534839
C           30.43417727110819        1.25690659815472       -0.46533901711496
C           31.09616987251961        2.49558154832282       -0.74324809193476
C           30.13975547599622        3.45392565932291       -0.74651407592661
C           28.89124442088366        2.79675130190932       -0.48712562931902
N           29.08198029829610        1.44869468499971       -0.34639543739036
C           27.68477506684557        3.46366790380135       -0.29817471992622
C           27.67177116259053        4.94474132951053       -0.37577337824221
C           27.96554678292950        5.59350361538439       -1.57503451893285
C           27.94742238695721        6.97754515003310       -1.65337235518163
C           27.64034633328000        7.72990663666950       -0.52201044281676
O           27.61477668019749        9.08706939523609       -0.55353523020534
C           27.34866927771268        7.09330793429116        0.68304785780747
C           27.36157621700301        5.71137175590710        0.74977744305501
C           26.48990766577086        2.80248733491670       -0.04816120066378
C           25.22942723205717        3.46337368874854        0.11467910256926
C           24.28548535607082        2.49373439456497        0.17999558128995
N           26.31260737764939        1.43896612762886       -0.06132219750310
C           24.96760594709389        1.24536748136889        0.04802710484993
C           24.30756389528874        0.01256627809366       -0.04098147487013
C           24.99210343511570       -1.20742731941864       -0.10492984479906
C           24.33891310920484       -2.47381906746753       -0.20850882483785
C           25.30222776621739       -3.42017204882028       -0.09426405404492
C           26.54364560373426       -2.72638529063991        0.07519084892231
N           26.34181107692923       -1.36863019985777        0.01158968106572
C           27.75931112048919       -3.35653659288956        0.30995329192403
C           27.76621106972784       -4.82400674172135        0.50753489321227
C           27.03867679228368       -5.39647119872740        1.55463030952115
C           27.04174123353391       -6.76498939061981        1.75486111539460
C           27.76950382295274       -7.58727645008654        0.89620206081001
O           27.74711081230257       -8.92632348990313        1.11807261949677
C           28.49333975702885       -7.03175385217724       -0.15646299705758
C           28.49281031817270       -5.65814767120810       -0.34290727679137
C           28.96608461435297       -2.66539177200642        0.35760889123229
C           30.23851648418269       -3.27997287284739        0.60374513082588
C           31.17817741495623       -2.32151237647250        0.42181580086978
C           30.47745826952150       -1.11814269337162        0.09067479111949
N           29.12476568085710       -1.33293351891065        0.08712248641750
H           32.18292986115370        0.08024178476231       -0.27881205336829
H           32.15927189077517        2.60182954059180       -0.89089548349492
H           30.25971346367767        4.51503509104020       -0.89329157658563
H           28.19202454313601        5.00836360062460       -2.45935788714444
H           28.16920737583266        7.47725867280638       -2.59022841095978
H           27.83121598950986        9.42344365565526       -1.43343675696757
H           27.11520329572279        7.69136216687235        1.55522132806977
H           27.14545186031367        5.21594796689582        1.68963658880747
H           25.09078557550873        4.53127908312895        0.15694969380189
H           23.22049672043433        2.60215894561663        0.30279365943073
H           23.27966820554522       -2.60945072562858       -0.35251294078289
H           25.19216119911406       -4.49167828448868       -0.13146777773018
H           26.48140374047011       -4.75538968691880        2.22846424456720
H           26.48659417664616       -7.21029595266882        2.57115431136866
H           28.28352008247116       -9.40083374320641        0.46891657676772
H           29.05246416844932       -7.67636909988198       -0.82615555235700
H           29.04513847584643       -5.22900042957526       -1.17142401734537
H           30.38277071474997       -4.31169291641835        0.88074468540027
H           32.25018593848426       -2.40173419450233        0.50842626637959
C           21.68439880590816       -0.00664871100773       -0.04526614307184
C           22.90331694500719        0.00009588789216       -0.04576338665624
