262
 energy: -476.831869236827 gnorm: 5.794180386027 xtb: 6.5.1 (b24c23e)
Co          40.45808300000000       -0.02554100000000        0.00218000000000
C           37.09633000000000        0.10956600000000       -0.11684300000000
C           37.76239000000000        1.26325800000000       -0.01641100000000
C           37.11256400000000        2.56485700000000        0.07752000000000
C           38.05266800000000        3.47907600000000        0.22274300000000
C           39.35800300000000        2.80401000000000        0.22370400000000
N           39.18063200000000        1.39544300000000        0.06887000000000
C           40.54741700000000        3.41634700000000        0.39675700000000
C           40.58374899999999        4.88328900000000        0.58929500000000
C           40.83861099999999        5.42100400000000        1.85894400000000
C           40.87735399999999        6.80619700000000        2.04208900000000
C           40.65701000000000        7.67168500000000        0.95644600000000
C           40.69033500000000        9.13521000000000        1.13030700000000
O           40.92468400000000        9.65151200000000        2.25555800000000
C           40.40092400000000        7.12978000000000       -0.31275400000000
C           40.36690800000000        5.74453900000000       -0.49628700000000
C           41.84316000000000        2.68543000000000        0.41344300000000
C           43.13794300000000        3.32726900000000        0.67214500000000
C           44.07209700000000        2.40396800000000        0.57930900000000
N           41.98185600000000        1.41902100000000        0.16229400000000
C           43.38379300000000        1.16191100000000        0.25058500000000
C           43.97990600000000       -0.01678500000000        0.00326200000000
C           43.22501800000000       -1.24023800000000       -0.35518200000000
C           43.77864000000000       -2.32868100000000       -0.87517900000000
C           42.73467300000000       -3.32363000000000       -1.00889900000000
C           41.60996800000000       -2.77996000000000       -0.55992200000000
N           41.82848900000000       -1.43550800000000       -0.12575800000000
C           40.31326700000000       -3.50014500000000       -0.47364800000000
C           40.32275600000000       -4.98017200000000       -0.54914800000000
C           39.76042400000000       -5.63937200000000       -1.65361300000000
C           39.78992200000000       -7.03463700000000       -1.73070900000000
C           40.38679000000000       -7.78923500000000       -0.70840100000000
C           40.41451400000000       -9.25981700000000       -0.80976200000000
O           40.99055799999999       -9.96118000000000        0.06277600000000
C           40.95448900000000       -7.12671500000000        0.39456700000000
C           40.92510599999999       -5.73134300000000        0.47061800000000
C           39.14502499999999       -2.84679300000000       -0.32996900000000
C           37.82332300000000       -3.46045000000000       -0.21280100000000
C           36.96287700000000       -2.46485600000000       -0.12734300000000
C           37.72579300000000       -1.21885400000000       -0.17729200000000
N           38.99925500000000       -1.42862300000000       -0.29544800000000
H           36.01305900000000        0.14238000000000       -0.13368200000000
H           36.04872500000000        2.76262400000000        0.05024700000000
H           37.86415200000000        4.53901900000000        0.33302400000000
H           41.00804899999999        4.76633100000000        2.70518300000000
H           41.07797100000000        7.19878600000000        3.03106600000000
H           40.51284500000000        9.78510300000000        0.28305500000000
H           40.22800100000000        7.77911600000000       -1.16239500000000
H           40.16988400000000        5.34170500000000       -1.48249400000000
H           43.32049400000000        4.37063400000000        0.89116300000000
H           45.13305900000000        2.57136300000000        0.70929700000000
H           44.81875299999999       -2.46558200000000       -1.13836500000000
H           42.85863300000000       -4.32872600000000       -1.39012000000000
H           39.30405100000000       -5.07147700000000       -2.45595700000000
H           39.35205300000000       -7.52522700000000       -2.59229100000000
H           39.94297300000000       -9.75268500000000       -1.64997800000000
H           41.42073500000000       -7.68579000000000        1.19690900000000
H           41.36825400000000       -5.23557600000000        1.32603400000000
H           37.57221300000000       -4.51297900000000       -0.19379600000000
H           35.88986900000000       -2.56692800000000       -0.02920700000000
Co          95.99413600000000       -0.00796300000000        0.00343800000000
C           99.35588900000000       -0.12474300000000       -0.13361200000000
C           98.68982900000000       -1.28098000000000       -0.19849800000000
C           99.33965499999998       -2.58268900000000       -0.29088100000000
C           98.39955100000000       -3.50827200000000       -0.27732900000000
C           97.09421500000001       -2.84022200000000       -0.18024400000000
N           97.27158700000000       -1.42396200000000       -0.13290900000000
C           95.90480200000000       -3.47096200000000       -0.09615600000000
C           95.86847000000000       -4.95037200000000       -0.11448200000000
C           95.61360799999999       -5.66341400000000        1.06565200000000
C           95.57486399999999       -7.06057100000000        1.04967000000000
C           95.79520900000000       -7.76263500000000       -0.14816100000000
C           95.76188399999999       -9.23600300000000       -0.18448800000000
O           95.52753500000000       -9.90728600000000        0.85577000000000
C           96.05129500000000       -7.04551000000000       -1.32725400000000
C           96.08531100000000       -5.64825100000000       -1.31164800000000
C           94.60905900000000       -2.74987100000000        0.02444900000000
C           93.31427600000001       -3.42201000000000        0.18911200000000
C           92.38012200000000       -2.49489800000000        0.22870600000000
N           94.47036300000001       -1.46060400000000       -0.04379500000000
C           93.06842500000000       -1.21868800000000        0.08021000000000
C           92.47231300000000       -0.01678500000000        0.00326200000000
C           93.22720000000000        1.24524500000000       -0.17730000000000
C           92.67357900000000        2.39664500000000       -0.53699500000000
C           93.71754600000000        3.40049700000000       -0.52766600000000
C           94.84224999999999        2.79843100000000       -0.16068600000000
N           94.62372999999999        1.40585300000000        0.07759300000000
C           96.13895200000000        3.49899000000000        0.02726800000000
C           96.12946300000000        4.97468400000000        0.16330400000000
C           96.69179400000000        5.78444900000000       -0.83603100000000
C           96.66229699999998        7.17647200000000       -0.71364600000000
C           96.06542899999999        7.77779700000000        0.40570300000000
C           96.03770400000001        9.24782500000000        0.51479600000000
O           95.46166100000001        9.81778400000000        1.47832100000000
C           95.49772899999999        6.96495800000000        1.40308200000000
C           95.52711299999999        5.57297800000000        1.27964800000000
C           97.30719299999998        2.83183600000000        0.07644000000000
C           98.62889500000000        3.42255300000000        0.27980300000000
C           99.48934199999998        2.42493600000000        0.22261100000000
C           98.72642599999999        1.19874600000000       -0.00426900000000
N           97.45296399999999        1.42320300000000       -0.09134800000000
H          100.43915999999999       -0.15482600000000       -0.15495300000000
H          100.40349399999999       -2.77455700000000       -0.34603900000000
H           98.58806699999998       -4.57311600000000       -0.31911600000000
H           95.44416999999999       -5.13592400000000        1.99649600000000
H           95.37424799999999       -7.58999600000000        1.97266000000000
H           95.93937400000000       -9.75861800000000       -1.11565400000000
H           96.22421799999998       -7.56723400000000       -2.26070500000000
H           96.28233500000000       -5.10907900000000       -2.23043800000000
H           93.13172500000000       -4.48593100000000        0.25731500000000
H           91.31916000000000       -2.67909900000000        0.33353100000000
H           91.63346599999998        2.56963100000000       -0.77800400000000
H           93.59358600000000        4.44963800000000       -0.76186800000000
H           97.14816800000000        5.33660100000000       -1.71106900000000
H           97.10016500000000        7.78475800000000       -1.49658300000000
H           96.50924599999999        9.85532300000000       -0.24666800000000
H           95.03148299999999        7.40407600000000        2.27686400000000
H           95.08396500000001        4.96044600000000        2.05574500000000
H           98.88000599999999        4.46164700000000        0.44850200000000
H          100.56235000000000        2.51199200000000        0.33428300000000
C           46.10968100000000       -0.00209400000000        0.01353800000000
C           47.56790700000000       -0.02393100000000       -0.00433500000000
C           48.70183500000000       -0.04468500000000       -0.00582600000000
C           50.06321699999999       -0.05727400000000       -0.00801700000000
C           51.33743599999999       -0.04696800000000       -0.01278200000000
C           52.52589799999999       -0.02817000000000       -0.01893800000000
C           53.87825899999999       -0.00338500000000       -0.00307000000000
C           54.97852600000000       -0.00209400000000        0.01353800000000
C           63.72966800000000       -0.00209400000000        0.01353800000000
C           65.18789500000000       -0.02393100000000       -0.00433500000000
C           66.32182299999999       -0.04468500000000       -0.00582600000000
C           67.68320400000000       -0.05727400000000       -0.00801700000000
C           68.95742300000001       -0.04696800000000       -0.01278200000000
C           70.14588600000000       -0.02817000000000       -0.01893800000000
C           71.49824599999999       -0.00338500000000       -0.00307000000000
C           72.59851399999999       -0.00209400000000        0.01353800000000
C           81.34965599999998       -0.00209400000000        0.01353800000000
C           82.80788200000001       -0.02393100000000       -0.00433500000000
C           83.94181000000000       -0.04468500000000       -0.00582600000000
C           85.30319200000000       -0.05727400000000       -0.00801700000000
C           86.57741100000000       -0.04696800000000       -0.01278200000000
C           87.76587300000000       -0.02817000000000       -0.01893800000000
C           89.11823400000000       -0.00338500000000       -0.00307000000000
C           90.21850100000000       -0.00209400000000        0.01353800000000
Co          59.40032600000000       -0.02620700000000        0.01543700000000
C           55.95809300000000        0.01749500000000       -0.00607100000000
C           56.61434500000000        1.15252300000000        0.30334400000000
C           55.97339500000000        2.44346500000000        0.56593100000000
C           56.91360000000000        3.31863200000000        0.86830500000000
C           58.21157500000000        2.63907700000000        0.82288100000000
N           58.03170000000000        1.26769000000000        0.45788500000000
C           59.39659400000000        3.22032100000000        1.10477700000000
C           59.43117300000000        4.63786600000000        1.52758400000000
C           59.93248699999999        5.61817000000000        0.65851600000000
C           59.97673200000000        6.95632300000000        1.05790800000000
C           59.52161700000000        7.33057800000000        2.33459600000000
C           59.54576500000000        8.73601400000000        2.77607100000000
O           60.01083400000000        9.63732400000000        2.03240400000000
C           59.02941999999999        6.34663600000000        3.20259100000000
C           58.98580900000000        5.00849100000000        2.80184700000000
C           60.69275199999999        2.50482300000000        1.01435300000000
C           61.96078900000000        3.04758100000000        1.51671400000000
C           62.91270900000000        2.18616900000000        1.22177100000000
N           60.86038299999999        1.35542500000000        0.43729800000000
C           62.25836600000000        1.08343500000000        0.52945500000000
C           62.87401500000000        0.01749500000000       -0.00607100000000
C           62.12542199999999       -1.06640100000000       -0.67477300000000
C           62.65846999999999       -1.93808100000000       -1.52040900000000
C           61.62679900000000       -2.90327700000000       -1.84950600000000
C           60.53476400000000       -2.55376900000000       -1.18189400000000
N           60.75985700000000       -1.37630100000000       -0.40896400000000
C           59.27961100000000       -3.34065000000000       -1.15661400000000
C           59.34120599999999       -4.77772600000000       -1.51213600000000
C           60.10831300000000       -5.65869700000000       -0.73549000000000
C           60.18060699999999       -7.01362800000000       -1.07053700000000
C           59.49209500000000       -7.50509600000000       -2.19087500000000
C           59.57615199999999       -8.93823300000000       -2.52169600000000
O           58.95614400000000       -9.41628500000000       -3.51051200000000
C           58.73330600000000       -6.61963100000000       -2.97683700000000
C           58.66123499999999       -5.26410000000000       -2.64082300000000
C           58.10642099999999       -2.78439600000000       -0.79751700000000
C           56.82949599999999       -3.48021100000000       -0.67496400000000
C           55.93847699999999       -2.56052600000000       -0.36097000000000
C           56.63596800000000       -1.27225100000000       -0.27472200000000
N           57.90349400000000       -1.39736700000000       -0.52565700000000
H           54.91664400000000        2.67494400000000        0.52302000000000
H           56.72939000000000        4.35927700000000        1.10271200000000
H           60.28611500000000        5.34452700000000       -0.32807800000000
H           60.36425700000000        7.69707500000000        0.36930800000000
H           59.15240200000000        9.00844700000000        3.75550400000000
H           58.67834100000000        6.61341100000000        4.19037800000000
H           58.60613499999999        4.26068900000000        3.48349300000000
H           62.11036300000000        3.98504200000000        2.03607200000000
H           63.96255699999999        2.30370800000000        1.45787400000000
H           63.67887300000000       -1.95234400000000       -1.87717200000000
H           61.74111799999999       -3.76871600000000       -2.48837900000000
H           60.64484800000000       -5.29631300000000        0.13334900000000
H           60.77344200000000       -7.67948800000000       -0.45392600000000
H           60.17599799999999       -9.60044800000000       -1.90865700000000
H           58.20041800000000       -6.97320800000000       -3.85110700000000
H           58.07855299999999       -4.59245600000000       -3.26063600000000
H           56.62734700000000       -4.53614500000000       -0.80192900000000
H           54.88601500000000       -2.75010800000000       -0.19371200000000
Co          77.02031400000000       -0.02620700000000        0.01543700000000
C           73.57808000000000        0.01749500000000       -0.00607100000000
C           74.23433199999999        1.15252300000000        0.30334400000000
C           73.59338200000001        2.44346500000000        0.56593100000000
C           74.53358699999998        3.31863200000000        0.86830500000000
C           75.83156199999999        2.63907700000000        0.82288100000000
N           75.65168699999998        1.26769000000000        0.45788500000000
C           77.01658199999999        3.22032100000000        1.10477700000000
C           77.05116099999999        4.63786600000000        1.52758400000000
C           77.55247400000000        5.61817000000000        0.65851600000000
C           77.59671899999998        6.95632300000000        1.05790800000000
C           77.14160400000000        7.33057800000000        2.33459600000000
C           77.16575200000000        8.73601400000000        2.77607100000000
O           77.63082199999999        9.63732400000000        2.03240400000000
C           76.64940700000000        6.34663600000000        3.20259100000000
C           76.60579600000000        5.00849100000000        2.80184700000000
C           78.31274000000001        2.50482300000000        1.01435300000000
C           79.58077599999999        3.04758100000000        1.51671400000000
C           80.53269600000000        2.18616900000000        1.22177100000000
N           78.48036999999999        1.35542500000000        0.43729800000000
C           79.87835300000000        1.08343500000000        0.52945500000000
C           80.49400199999999        0.01749500000000       -0.00607100000000
C           79.74540899999998       -1.06640100000000       -0.67477300000000
C           80.27845800000000       -1.93808100000000       -1.52040900000000
C           79.24678599999999       -2.90327700000000       -1.84950600000000
C           78.15475099999999       -2.55376900000000       -1.18189400000000
N           78.37984399999999       -1.37630100000000       -0.40896400000000
C           76.89959800000000       -3.34065000000000       -1.15661400000000
C           76.96119400000001       -4.77772600000000       -1.51213600000000
C           77.72830099999999       -5.65869700000000       -0.73549000000000
C           77.80059500000000       -7.01362800000000       -1.07053700000000
C           77.11208200000000       -7.50509600000000       -2.19087500000000
C           77.19614000000000       -8.93823300000000       -2.52169600000000
O           76.57613200000000       -9.41628500000000       -3.51051200000000
C           76.35329299999999       -6.61963100000000       -2.97683700000000
C           76.28122200000000       -5.26410000000000       -2.64082300000000
C           75.72640800000001       -2.78439600000000       -0.79751700000000
C           74.44948400000000       -3.48021100000000       -0.67496400000000
C           73.55846400000000       -2.56052600000000       -0.36097000000000
C           74.25595600000000       -1.27225100000000       -0.27472200000000
N           75.52348099999999       -1.39736700000000       -0.52565700000000
H           72.53663099999999        2.67494400000000        0.52302000000000
H           74.34937699999999        4.35927700000000        1.10271200000000
H           77.90610300000000        5.34452700000000       -0.32807800000000
H           77.98424400000000        7.69707500000000        0.36930800000000
H           76.77238999999999        9.00844700000000        3.75550400000000
H           76.29832799999998        6.61341100000000        4.19037800000000
H           76.22612300000000        4.26068900000000        3.48349300000000
H           79.73034999999999        3.98504200000000        2.03607200000000
H           81.58254500000000        2.30370800000000        1.45787400000000
H           81.29886000000000       -1.95234400000000       -1.87717200000000
H           79.36110499999999       -3.76871600000000       -2.48837900000000
H           78.26483600000000       -5.29631300000000        0.13334900000000
H           78.39343000000000       -7.67948800000000       -0.45392600000000
H           77.79598500000000       -9.60044800000000       -1.90865700000000
H           75.82040499999999       -6.97320800000000       -3.85110700000000
H           75.69853999999999       -4.59245600000000       -3.26063600000000
H           74.24733399999998       -4.53614500000000       -0.80192900000000
H           72.50600200000000       -2.75010800000000       -0.19371200000000
262
 energy: -478.876676796144 gnorm: 1.397525810086 xtb: 6.5.1 (b24c23e)
Co          40.45945163394495       -0.02536239495971        0.00160437581291
C           37.09663408256013        0.10418447219795       -0.11710935369101
C           37.76555403451219        1.26448731179298       -0.01620170242975
C           37.11173101046348        2.56290659277789        0.07722719533042
C           38.05521145426987        3.48006290877997        0.22296193587775
C           39.35663720893788        2.80077330949687        0.22311183119895
N           39.17734345988852        1.39840207260339        0.06927474953285
C           40.55243620367430        3.41507192678810        0.39701592233575
C           40.58419039567374        4.88388321913330        0.58939880473376
C           40.83869021839860        5.42233840894873        1.85841539765683
C           40.87718831437177        6.80529456781235        2.04135950190861
C           40.65692643318028        7.67191280685804        0.95606832720188
C           40.69180119454427        9.13637747291452        1.13722980441497
O           40.92357677211581        9.64902177417315        2.25028080849101
C           40.40096558653160        7.12858555158490       -0.31240864415981
C           40.36689855205903        5.74544223740484       -0.49551610487379
C           41.84022791633302        2.69062279752887        0.41416784421644
C           43.13447536995859        3.32995919508670        0.67218729771349
C           44.07294635221779        2.40154337781809        0.57893394771272
N           41.98302035149332        1.41515319959496        0.16225977298367
C           43.38554964005323        1.16209179238318        0.25076420323418
C           43.98334462703642       -0.02037097207155        0.00195016323430
C           43.22425447357178       -1.23383999786495       -0.35183659068796
C           43.77893166987005       -2.33577914250873       -0.87760545590790
C           42.74175465135746       -3.32396627926626       -1.01020245908941
C           41.60411778128734       -2.77651024592061       -0.55688697951230
N           41.82875295996251       -1.43573189159566       -0.12727068968328
C           40.31702906794073       -3.49835124048377       -0.47378190128906
C           40.32349887274864       -4.98031491892695       -0.54953058170530
C           39.76058253226254       -5.64030965050015       -1.65302199444068
C           39.79011373162842       -7.03351273616728       -1.73016105495795
C           40.38655317180484       -7.78935718963733       -0.70872282521039
C           40.41820929622182       -9.26212035620700       -0.80415138910820
O           40.98783730630567       -9.95787325878414        0.05880030768321
C           40.95412223868872       -7.12567766973017        0.39406347013272
C           40.92492110058384       -5.73247302069149        0.46990657581423
C           39.14406867952592       -2.84572161129603       -0.32978833530650
C           37.82592346084189       -3.46142145882327       -0.21303544896525
C           36.96067132920265       -2.46169717254030       -0.12725569444363
C           37.72055532913756       -1.21524229560987       -0.17697282030790
N           39.00237829237745       -1.43024797707555       -0.29472361413910
H           36.01311901077059        0.14196180202209       -0.13366027864189
H           36.04877156284521        2.76176589479347        0.05012580981052
H           37.86517845189121        4.53903931832792        0.33304716492216
H           41.00800205244528        4.76632190083544        2.70501699430969
H           41.07791997462411        7.19914186496607        3.03091405611226
H           40.51262878143389        9.78506422311452        0.28202565467432
H           40.22803514930739        7.77919278858677       -1.16231696923577
H           40.16993810737940        5.34161591639700       -1.48235357035888
H           43.31964163619089        4.37087995325805        0.89115606541790
H           45.13299470458735        2.57026352180710        0.70909457538879
H           44.81868894481717       -2.46579280981504       -1.13840754919745
H           42.85895453080501       -4.32856775900922       -1.39017615208783
H           39.30414959527217       -5.07141736909849       -2.45579678776856
H           39.35211332912946       -7.52528969338528       -2.59219023019035
H           39.94240486326643       -9.75247974648000       -1.65086996096094
H           41.42062735136894       -7.68608244063261        1.19666588139090
H           41.36817066848248       -5.23552835286005        1.32586693982590
H           37.57318059686345       -4.51290608532195       -0.19388875143844
H           35.88978023520878       -2.56617601643356       -0.02920693559722
Co          95.99272085309532       -0.00804088571415        0.00287423586530
C           99.35559644526127       -0.11936029662766       -0.13311026042139
C           98.68667202221826       -1.28222205290696       -0.19845803752700
C           99.34047786808920       -2.58069682730347       -0.29089186371824
C           98.39698662498833       -3.50927956864671       -0.27725483581310
C           97.09551994669111       -2.83704768510812       -0.18036355964828
N           97.27486598816583       -1.42686794667695       -0.13292985470375
C           95.89991603638813       -3.46975955740260       -0.09572970255358
C           95.86803151738533       -4.95097009589489       -0.11446635977235
C           95.61352702002979       -5.66466292685554        1.06493891081422
C           95.57502868992985       -7.05957034296354        1.04907897543297
C           95.79529239438114       -7.76281522458791       -0.14856849036248
C           95.76041940712352       -9.23812906252064       -0.17780609948978
O           95.52863984138703       -9.90407905938793        0.85090780531569
C           96.05125445088301       -7.04437462772324       -1.32674478486524
C           96.08532044067590       -5.64925955350343       -1.31101401067149
C           94.61192935880541       -2.75497828169563        0.02443526155890
C           93.31770838302346       -3.42465211545254        0.18877819578314
C           92.37925732888368       -2.49243342874812        0.22867481715341
N           94.46939681972796       -1.45696262661513       -0.04332458398982
C           93.06653364695522       -1.21852605655483        0.08035833248201
C           92.47005882743494       -0.01300709614514        0.00251414424576
C           93.22806768357349        1.23826644123612       -0.17488075163373
C           92.67328271896974        2.40390547976936       -0.53836093908672
C           93.71055387510847        3.40103897087409       -0.52890561487630
C           94.84808931376121        2.79466247567924       -0.15819409546585
N           94.62355111240784        1.40629114794281        0.07612214694341
C           96.13521363164902        3.49724923023552        0.02688516787752
C           96.12872238653533        4.97487982456211        0.16294673809672
C           96.69163553498903        5.78529532491615       -0.83531223198288
C           96.66210608744262        7.17528019183579       -0.71326468117846
C           96.06566591288180        7.77796772145111        0.40540188789814
C           96.03400881202040        9.24929944250614        0.52067615599840
O           95.46438159441104        9.81508069345977        1.47391710538410
C           95.49809456693481        6.96400168766271        1.40243678188502
C           95.52729773130991        5.57419983005210        1.27910501672584
C           97.30813072707505        2.83077067364142        0.07647114214400
C           98.62629290892552        3.42354454039489        0.27970608718776
C           99.49154291525124        2.42179517933762        0.22225052489099
C           98.73168086066683        1.19509865770191       -0.00446202702116
N           97.44983859597919        1.42471111963312       -0.09043442943724
H          100.43910015501348       -0.15441428225063       -0.15487194719328
H          100.40344677056926       -2.77368925281046       -0.34603776179246
H           98.58704045011422       -4.57313979121782       -0.31909646275612
H           95.44421677180961       -5.13589192583358        1.99633297040664
H           95.37429942607865       -7.59032666788595        1.97245921022586
H           95.93959046267447       -9.75843318900560       -1.11666829376744
H           96.22418392877680       -7.56732210466882       -2.26063936433398
H           96.28228107234858       -5.10901097200298       -2.23028598373376
H           93.13258294868662       -4.48617620613227        0.25727265216568
H           91.31925046297273       -2.67802253133330        0.33349060985470
H           91.63354799550521        2.56985505671327       -0.77801500001655
H           93.59326916657251        4.44949464130312       -0.76194307883391
H           97.14806960843734        5.33651912672249       -1.71091893321139
H           97.10010481238540        7.78480632544932       -1.49647473816306
H           96.50981441337997        9.85524695784145       -0.24758067542888
H           95.03159065914853        7.40440020199561        2.27666498358856
H           95.08404818035052        4.96042282546508        2.05557254255470
H           98.87903801622298        4.46158817351313        0.44840041939550
H          100.56243858891087        2.51124725962471        0.33417564967244