310
 energy: -553.212281220333 gnorm: 1.863518250899 xtb: 6.5.1 (b24c23e)
Ni          38.27807200000000       -0.01926800000000       -0.03966600000000
C           34.93402199999999        0.11034900000000        0.05270700000000
C           35.60189600000000        0.89483800000000        0.90318900000000
C           34.95700600000000        1.77416200000000        1.87145300000000
C           35.90290000000000        2.42461200000000        2.52293200000000
C           37.20482600000000        1.99343000000000        1.99731600000000
N           37.02156899999999        1.01801500000000        0.97131300000000
C           38.39842000000000        2.47173900000000        2.39999400000000
C           39.69194900000000        2.01893300000000        1.82795200000000
C           40.98351299999999        2.63623400000000        2.15032000000000
C           41.91788500000000        1.98083600000000        1.49259600000000
N           39.82962700000000        1.02218200000000        1.00798000000000
C           41.23038799999999        0.93369700000000        0.74618200000000
C           41.82352200000000        0.00076400000000       -0.01730300000000
C           41.06311900000000       -1.04710800000000       -0.73760900000000
C           41.60975500000000       -2.14110500000000       -1.25355600000000
C           40.56125099999999       -2.86323000000000       -1.94587000000000
C           39.44175100000000       -2.16235300000000       -1.80965500000000
C           38.14705200000000       -2.52829600000000       -2.43970800000000
C           38.15091600000000       -3.53748100000000       -3.52899000000000
C           38.67856000000000       -3.19877500000000       -4.79113700000000
O           39.17658900000000       -1.90003300000000       -4.99055100000000
C           39.73978800000000       -1.42873900000000       -6.20986500000000
C           38.68980700000000       -4.16374000000000       -5.81497300000000
C           38.18521200000000       -5.44316100000000       -5.58319400000000
C           37.66819900000000       -5.78037800000000       -4.33241300000000
C           37.65017700000000       -4.83392500000000       -3.29142900000000
O           37.15079800000000       -5.14457500000000       -2.01510200000000
C           36.60337000000000       -6.40607200000000       -1.64688300000000
C           36.98403700000000       -1.96813300000000       -2.05852200000000
C           35.66737900000000       -2.24998600000000       -2.62692500000000
C           34.80682900000000       -1.53116000000000       -1.93264300000000
C           35.56543700000000       -0.78432300000000       -0.93034700000000
N           36.83597999999999       -1.03170500000000       -0.99390100000000
N           39.66819599999999       -0.98034100000000       -1.03846800000000
C           38.44249099999999        3.51105700000000        3.45458500000000
C           38.57291100000000        3.13126900000000        4.80460100000000
O           38.65814499999999        1.76430400000000        5.11791800000000
C           38.77974999999999        1.24431100000000        6.43803500000000
C           38.61263000000000        4.12654300000000        5.79845300000000
C           38.52592900000000        5.47466200000000        5.44919100000000
C           38.40097299999999        5.84970600000000        4.11095000000000
C           38.35969700000000        4.87188900000000        3.09994800000000
O           38.23917200000000        5.21142800000000        1.74180600000000
C           38.16026400000000        6.54420600000000        1.24657100000000
H           33.85062900000000        0.13314900000000        0.07516400000000
H           33.89320200000000        1.88874200000000        2.03650000000000
H           35.72256300000000        3.15382000000000        3.30230500000000
H           41.16010000000000        3.47766400000000        2.80751000000000
H           42.97715700000000        2.19677100000000        1.52874100000000
H           42.64812400000000       -2.43801900000000       -1.19260700000000
H           40.68020300000000       -3.78960100000000       -2.49271800000000
H           38.98461399999999       -1.47653200000000       -7.02262200000000
H           40.05455599999999       -0.37302500000000       -6.07896000000000
H           40.63139300000000       -2.03404000000000       -6.47760200000000
H           39.08569200000000       -3.93470700000000       -6.79489500000000
H           38.19772500000000       -6.17901600000000       -6.37700900000000
H           37.28897100000000       -6.78201500000000       -4.18408100000000
H           36.28489700000000       -6.36652200000000       -0.58530400000000
H           35.71664900000000       -6.63493700000000       -2.27502200000000
H           37.36899100000000       -7.20288600000000       -1.75926000000000
H           35.42057200000000       -2.91332800000000       -3.44575900000000
H           33.73622000000000       -1.50761300000000       -2.08819800000000
H           38.82723700000000        0.13748800000000        6.38792800000000
H           37.89638900000000        1.53521600000000        7.04502000000000
H           39.71202100000000        1.61966900000000        6.91146400000000
H           38.70885200000000        3.86924000000000        6.84452600000000
H           38.55670900000000        6.23376300000000        6.22038100000000
H           38.33795500000000        6.90288700000000        3.87356100000000
H           39.07825500000000        7.10779900000000        1.51867700000000
H           38.07657900000000        6.51491600000000        0.14109000000000
H           37.26180600000000        7.05084200000000        1.65804800000000
Ni          95.60539400000000        0.02005400000000        0.00570200000000
C           98.94944500000000       -0.05296900000000       -0.13572200000000
C           98.28157099999999       -0.78339100000000       -1.03306800000000
C           98.92646000000001       -1.61692700000000       -2.04101700000000
C           97.98056599999998       -2.16940300000000       -2.77741400000000
C           96.67863999999999       -1.71036600000000       -2.27594100000000
N           96.86189800000000       -0.83332700000000       -1.16467200000000
C           95.48504600000000       -2.04101700000000       -2.80660000000000
C           94.19151799999999       -1.53909700000000       -2.27712700000000
C           92.89995300000000       -1.77050900000000       -2.93396000000000
C           91.96558099999999       -1.21255400000000       -2.19177800000000
N           94.05383900000000       -0.86902900000000       -1.17400600000000
C           92.65307900000001       -0.62245600000000       -1.04922900000000
C           92.05994400000000        0.00076400000000       -0.01730300000000
C           92.82034700000000        0.56491500000000        1.12226200000000
C           92.27371199999999        0.92022600000000        2.27845700000000
C           93.32221500000000        1.50294100000000        3.09160200000000
C           94.44171500000000        1.46766800000000        2.37848300000000
C           95.73641400000000        2.03934900000000        2.83021500000000
C           95.73255000000000        2.97423100000000        3.98389800000000
C           95.20490599999999        4.27169100000000        3.82791600000000
O           94.70687699999999        4.65357000000000        2.57067100000000
C           94.14367799999999        5.92746800000000        2.27736100000000
C           95.19365899999998        5.14807100000000        4.92853300000000
C           95.69825500000000        4.73690000000000        6.16205500000000
C           96.21526700000000        3.45090100000000        6.31817800000000
C           96.23328900000000        2.55491800000000        5.23345000000000
O           96.73266900000000        1.24740500000000        5.35964700000000
C           97.28009599999999        0.70372400000000        6.55604700000000
C           96.89942900000000        1.74160100000000        2.22158500000000
C           98.21608700000000        2.26420200000000        2.58132100000000
C           99.07663700000001        1.67907000000000        1.77116100000000
C           98.31802999999998        0.79302700000000        0.88952100000000
N           97.04748700000000        0.82079600000000        1.14342200000000
N           94.21527100000000        0.87220700000000        1.09891000000000
C           95.44097499999999       -2.93727800000000       -3.98518400000000
C           95.31055499999998       -4.32755300000000       -3.80101800000000
O           95.22532200000001       -4.83187100000000       -2.49242100000000
C           95.10371600000001       -6.21246700000000       -2.16522400000000
C           95.27083700000000       -5.16994800000000       -4.92737600000000
C           95.35753699999999       -4.63272600000000       -6.21221200000000
C           95.48249400000000       -3.25478100000000       -6.39335400000000
C           95.52376900000000       -2.39293100000000       -5.28184000000000
O           95.64429500000000       -1.00032900000000       -5.42501100000000
C           95.72320299999998       -0.32079400000000       -6.67392500000000
H          100.03283800000000       -0.07196000000000       -0.16148100000000
H           99.99026399999998       -1.76402400000000       -2.17788000000000
H           98.16090299999999       -2.83728800000000       -3.60993800000000
H           92.72336700000000       -2.30150800000000       -3.86021200000000
H           90.90630899999998       -1.21765900000000       -2.41065800000000
H           91.23534200000000        0.81771900000000        2.56370200000000
H           93.20326400000000        1.91265300000000        4.08625900000000
H           94.89885200000001        6.72519400000000        2.44012100000000
H           93.82891100000001        5.94785500000000        1.21375700000000
H           93.25207299999998        6.10650600000000        2.91455600000000
H           94.79777400000000        6.15059100000000        4.84102000000000
H           95.68574099999999        5.41813700000000        7.00321000000000
H           96.59449600000001        3.16179000000000        7.28858700000000
H           97.59856999999998       -0.34147200000000        6.36609900000000
H           98.16681699999999        1.29298300000000        6.87181800000000
H           96.51447500000000        0.70177300000000        7.36074400000000
H           98.46289399999999        2.98050400000000        3.35425200000000
H          100.14724599999998        1.83639300000000        1.76994900000000
H           95.05622900000000       -6.32009300000000       -1.06250800000000
H           95.98707800000000       -6.77197300000000       -2.53940200000000
H           94.17144500000001       -6.62777500000000       -2.60402700000000
H           95.17461400000001       -6.24196300000000       -4.82127700000000
H           95.32675800000000       -5.28826500000000       -7.07316300000000
H           95.54551100000000       -2.87019400000000       -7.40213400000000
H           94.80521100000000       -0.51008200000000       -7.27045500000000
H           95.80688700000000        0.76931600000000       -6.48789800000000
H           96.62166000000001       -0.65613100000000       -7.23387400000000
C           44.29255899999999        0.01499000000000       -0.00735200000000
C           45.75078500000000       -0.00684700000000       -0.02522600000000
C           46.88471300000000       -0.02760100000000       -0.02671700000000
C           48.24609500000000       -0.04019000000000       -0.02890800000000
C           49.52031400000000       -0.02988400000000       -0.03367300000000
C           50.70877600000000       -0.01108600000000       -0.03982900000000
C           52.06113700000000        0.01369900000000       -0.02396100000000
C           53.16140400000000        0.01499000000000       -0.00735200000000
C           62.44725300000000        0.01499000000000       -0.00735200000000
C           63.90547900000000       -0.00684700000000       -0.02522600000000
C           65.03940799999999       -0.02760100000000       -0.02671700000000
C           66.40078900000000       -0.04019000000000       -0.02890800000000
C           67.67500800000001       -0.02988400000000       -0.03367300000000
C           68.86347100000000       -0.01108600000000       -0.03982900000000
C           70.21583099999999        0.01369900000000       -0.02396100000000
C           71.31609899999999        0.01499000000000       -0.00735200000000
C           80.60194799999999        0.01499000000000       -0.00735200000000
C           82.06017400000000       -0.00684700000000       -0.02522600000000
C           83.19410200000000       -0.02760100000000       -0.02671700000000
C           84.55548400000001       -0.04019000000000       -0.02890800000000
C           85.82970299999999       -0.02988400000000       -0.03367300000000
C           87.01816500000000       -0.01108600000000       -0.03982900000000
C           88.37052600000000        0.01369900000000       -0.02396100000000
C           89.47079300000000        0.01499000000000       -0.00735200000000
Ni          57.76926399999999        0.00422300000000       -0.07076400000000
C           54.41378800000000       -0.00330800000000        0.01879000000000
C           55.07100700000000       -0.05126300000000        1.19220900000000
C           54.42986100000000       -0.16769500000000        2.50411100000000
C           55.37001700000000       -0.14893300000000        3.42766900000000
C           56.66884000000000       -0.01744600000000        2.76128400000000
N           56.48972299999999        0.04105800000000        1.34453800000000
C           57.85421200000000        0.06137900000000        3.39930700000000
C           59.15497700000000        0.18134100000000        2.69639700000000
C           60.42681800000000        0.44743800000000        3.37886900000000
C           61.38102600000000        0.43656300000000        2.47102300000000
N           59.32231600000000        0.01227600000000        1.42164300000000
C           60.72480800000000        0.16000300000000        1.19922500000000
C           61.34293400000000       -0.00330800000000        0.01879000000000
C           60.60005999999999       -0.28059300000000       -1.23002600000000
C           61.15289299999999       -0.74777500000000       -2.34234800000000
C           60.11822200000000       -0.77658100000000       -3.35750900000000
C           59.00284700000000       -0.32384900000000       -2.79678000000000
C           57.73539800000000       -0.08974100000000       -3.52917600000000
C           57.78136899999999       -0.00459100000000       -5.01042300000000
C           57.29008699999999       -1.06927200000000       -5.79274600000000
O           56.76577700000000       -2.20062300000000       -5.14485000000000
C           56.24085300000000       -3.34309600000000       -5.81255900000000
C           57.34243299999999       -0.97386700000000       -7.19560000000000
C           57.88144200000000        0.15880400000000       -7.80572800000000
C           58.37576300000000        1.20807100000000       -7.03110600000000
C           58.33181100000000        1.13678100000000       -5.62654500000000
O           58.81760599999999        2.17588700000000       -4.81526500000000
C           59.39080300000000        3.38348800000000       -5.30516100000000
C           56.56122499999999        0.06769400000000       -2.89083500000000
C           55.27792900000000        0.34683300000000       -3.52601000000000
C           54.38718300000000        0.36961400000000       -2.55609400000000
C           55.09070999999999        0.10872300000000       -1.29473100000000
N           56.36240599999999       -0.06708400000000       -1.48373300000000
N           59.21616000000000        0.00961300000000       -1.42578100000000
C           57.88359800000000        0.02144200000000        4.88046700000000
C           58.13008099999999       -1.19797200000000        5.54056400000000
O           58.33688299999999       -2.35475300000000        4.77037700000000
C           58.59398500000000       -3.64765100000000        5.30777300000000
C           58.16065100000000       -1.22514100000000        6.94685900000000
C           57.95169900000000       -0.05628400000000        7.67885200000000
C           57.71245299999999        1.15176300000000        7.02400600000000
C           57.67782200000000        1.20358800000000        5.61838500000000
O           57.44694399999999        2.40317500000000        4.92445700000000
C           57.23550100000000        3.66702600000000        5.54468700000000
H           53.37214800000000       -0.25357900000000        2.71394500000000
H           55.18612000000000       -0.21734000000000        4.49224500000000
H           60.57684000000000        0.62005200000000        4.43651600000000
H           62.43328100000000        0.59701100000000        2.66443900000000
H           62.18833200000000       -1.02685500000000       -2.48360700000000
H           60.24620400000000       -1.07327600000000       -4.39050700000000
H           55.37327899999999       -3.05176400000000       -6.44152500000000
H           55.90055999999999       -4.08002700000000       -5.05642200000000
H           57.02797700000000       -3.81437800000000       -6.43862800000000
H           56.97128600000000       -1.77131700000000       -7.82439700000000
H           57.91791500000000        0.22304700000000       -8.88576800000000
H           58.78871599999999        2.07150200000000       -7.53484700000000
H           59.68817000000000        4.01738000000000       -4.44535400000000
H           58.64794400000000        3.93877000000000       -5.91583600000000
H           60.29373300000000        3.15883300000000       -5.91130900000000
H           55.07176200000000        0.50664600000000       -4.57659200000000
H           53.33013600000000        0.55551300000000       -2.69247700000000
H           57.74008199999999       -3.97576500000000        5.93720700000000
H           58.71861600000000       -4.36769600000000        4.47317300000000
H           59.52859000000000       -3.63322000000000        5.90722800000000
H           58.34540899999999       -2.14485100000000        7.48455300000000
H           57.97756300000000       -0.08646000000000        8.76048100000000
H           57.55793800000000        2.04050200000000        7.62034900000000
H           58.12263399999999        3.94811500000000        6.15046800000000
H           56.32922400000000        3.63066900000000        6.18547800000000
H           57.08432800000000        4.43502900000000        4.75884400000000
Ni          75.92395900000000        0.00422300000000       -0.07076400000000
C           72.56848300000000       -0.00330800000000        0.01879000000000
C           73.22570200000000       -0.05126300000000        1.19220900000000
C           72.58455499999999       -0.16769500000000        2.50411100000000
C           73.52471100000000       -0.14893300000000        3.42766900000000
C           74.82353399999998       -0.01744600000000        2.76128400000000
N           74.64441700000000        0.04105800000000        1.34453800000000
C           76.00890600000000        0.06137900000000        3.39930700000000
C           77.30967099999998        0.18134100000000        2.69639700000000
C           78.58151300000000        0.44743800000000        3.37886900000000
C           79.53572099999998        0.43656300000000        2.47102300000000
N           77.47701100000000        0.01227600000000        1.42164300000000
C           78.87950200000000        0.16000300000000        1.19922500000000
C           79.49762899999999       -0.00330800000000        0.01879000000000
C           78.75475400000001       -0.28059300000000       -1.23002600000000
C           79.30758700000000       -0.74777500000000       -2.34234800000000
C           78.27291599999998       -0.77658100000000       -3.35750900000000
C           77.15754099999999       -0.32384900000000       -2.79678000000000
C           75.89009199999998       -0.08974100000000       -3.52917600000000
C           75.93606400000000       -0.00459100000000       -5.01042300000000
C           75.44478200000000       -1.06927200000000       -5.79274600000000
O           74.92047099999999       -2.20062300000000       -5.14485000000000
C           74.39554699999998       -3.34309600000000       -5.81255900000000
C           75.49712800000000       -0.97386700000000       -7.19560000000000
C           76.03613600000000        0.15880400000000       -7.80572800000000
C           76.53045700000000        1.20807100000000       -7.03110600000000
C           76.48650600000001        1.13678100000000       -5.62654500000000
O           76.97230000000000        2.17588700000000       -4.81526500000000
C           77.54549700000000        3.38348800000000       -5.30516100000000
C           74.71591900000000        0.06769400000000       -2.89083500000000
C           73.43262300000001        0.34683300000000       -3.52601000000000
C           72.54187700000000        0.36961400000000       -2.55609400000000
C           73.24540399999999        0.10872300000000       -1.29473100000000
N           74.51710000000000       -0.06708400000000       -1.48373300000000
N           77.37085399999999        0.00961300000000       -1.42578100000000
C           76.03829200000000        0.02144200000000        4.88046700000000
C           76.28477599999999       -1.19797200000000        5.54056400000000
O           76.49157699999999       -2.35475300000000        4.77037700000000
C           76.74867900000000       -3.64765100000000        5.30777300000000
C           76.31534499999999       -1.22514100000000        6.94685900000000
C           76.10639299999998       -0.05628400000000        7.67885200000000
C           75.86714699999999        1.15176300000000        7.02400600000000
C           75.83251599999998        1.20358800000000        5.61838500000000
O           75.60163900000001        2.40317500000000        4.92445700000000
C           75.39019600000000        3.66702600000000        5.54468700000000
H           71.52684200000000       -0.25357900000000        2.71394500000000
H           73.34081399999999       -0.21734000000000        4.49224500000000
H           78.73153400000000        0.62005200000000        4.43651600000000
H           80.58797600000000        0.59701100000000        2.66443900000000
H           80.34302700000001       -1.02685500000000       -2.48360700000000
H           78.40089899999998       -1.07327600000000       -4.39050700000000
H           73.52797300000000       -3.05176400000000       -6.44152500000000
H           74.05525400000001       -4.08002700000000       -5.05642200000000
H           75.18267099999998       -3.81437800000000       -6.43862800000000
H           75.12598000000000       -1.77131700000000       -7.82439700000000
H           76.07261000000000        0.22304700000000       -8.88576800000000
H           76.94341100000000        2.07150200000000       -7.53484700000000
H           77.84286399999999        4.01738000000000       -4.44535400000000
H           76.80263900000000        3.93877000000000       -5.91583600000000
H           78.44842799999999        3.15883300000000       -5.91130900000000
H           73.22645699999998        0.50664600000000       -4.57659200000000
H           71.48482999999999        0.55551300000000       -2.69247700000000
H           75.89477599999999       -3.97576500000000        5.93720700000000
H           76.87331000000000       -4.36769600000000        4.47317300000000
H           77.68328400000000       -3.63322000000000        5.90722800000000
H           76.50010399999999       -2.14485100000000        7.48455300000000
H           76.13225799999999       -0.08646000000000        8.76048100000000
H           75.71263200000000        2.04050200000000        7.62034900000000
H           76.27732800000000        3.94811500000000        6.15046800000000
H           74.48391900000000        3.63066900000000        6.18547800000000
H           75.23902199999999        4.43502900000000        4.75884400000000
310
 energy: -553.859058175059 gnorm: 0.758536972870 xtb: 6.5.1 (b24c23e)
Ni          38.28429593083235       -0.01713067350145       -0.03674421200615
C           34.93452996922505        0.10201831358847        0.04328406999144
C           35.60834724216440        0.89563527671157        0.90449645481339
C           34.95625340021901        1.77080855672255        1.86801131494674
C           35.90959955651208        2.42564598960677        2.52382516858013
C           37.20351478177589        1.98808685559298        1.99275072732758
N           37.01173074344882        1.02349510926435        0.97591591232594
C           38.40941200995299        2.46955913400639        2.39629523367373
C           39.68571521096757        2.02658157635674        1.83545443228646
C           40.97453785317762        2.63983739130610        2.15545112831145
C           41.91826997011409        1.97678116036915        1.48870237242882
N           39.83261077471780        1.01797808795975        1.00218376519020
C           41.23600771121158        0.93198909222175        0.74396797218315
C           41.81858391359888       -0.00870229509203       -0.02270672602858
C           41.06050786467671       -1.03344083926214       -0.73235920272966
C           41.61044056266260       -2.15507693956349       -1.26254780113737
C           40.57729104038471       -2.86532274393524       -1.94488682757311
C           39.43142171845574       -2.15144938750211       -1.80763586644332
C           38.15677669866592       -2.52426347251931       -2.43473714562186
C           38.15408983038127       -3.53739710783040       -3.52705258173000
C           38.68088860871251       -3.19761750074200       -4.79434068078165
O           39.17349091194576       -1.90494212653128       -4.98648082975330
C           39.73788815764807       -1.43337137420737       -6.20867187566586
C           38.68940743459426       -4.16285775257669       -5.81378273653779
C           38.18520837163865       -5.43990189245776       -5.57968672734938
C           37.66828880389821       -5.77910976212635       -4.33148978563007
C           37.64855756319722       -4.83714512988363       -3.29065531464919
O           37.15342224699702       -5.14001194164843       -2.01949614777485
C           36.60533459137566       -6.40454663026467       -1.65147059235244
C           36.98350266556143       -1.96629392283521       -2.05709028557627
C           35.67379942506300       -2.25058415666609       -2.62652765638476
C           34.80148702576025       -1.52559798453350       -1.92615638643929
C           35.55264763578588       -0.77867397311477       -0.92455620000572
N           36.84149034531900       -1.03244861769088       -0.99771873347901
N           39.66800376468182       -0.98301558285351       -1.03681663465891
C           38.44452723566510        3.51169253604726        3.45472893013783
C           38.57339003110738        3.13029634152759        4.80856572572583
O           38.65753129654905        1.76934150813379        5.11328746797133
C           38.77945485762291        1.24932007132839        6.43636616297686
C           38.61241410678050        4.12592606389455        5.79736486488651
C           38.52580420996059        5.47129678759884        5.44576550701359
C           38.40091572381170        5.84863716739043        4.11032840788610
C           38.35963125193096        4.87599978797773        3.09912682069434
O           38.23976542201390        5.20671565411339        1.74671152708898
C           38.16073950829194        6.54245194100601        1.25150784790065
H           33.85095157853392        0.13182124879438        0.07321902923862
H           33.89334832713633        1.88613423992800        2.03382137433418
H           35.72705353110513        3.15393243083394        3.30233467408549
H           41.15637573075237        3.47857224144440        2.80882103522908
H           42.97690882201615        2.19311381461012        1.52577090073957
H           42.64825217380380       -2.43968768495333       -1.19368269558040
H           40.68236858507927       -3.78982680082288       -2.49207074713140
H           38.98754391470513       -1.47662825733790       -7.02136585056268
H           40.05172164095968       -0.37896528421488       -6.07652988286671
H           40.62880635056370       -2.03230587007206       -6.47814020436904
H           39.08582936202383       -3.93385069453252       -6.79454795522820
H           38.19770519477618       -6.17805871807561       -6.37596318012484
H           37.28878664246130       -6.78176227850261       -4.18317547025984
H           36.28769505274536       -6.36361173258364       -0.59095560861548
H           35.71922310185077       -6.63561177371334       -2.27333262729741
H           37.36606713996754       -7.20157194310002       -1.75924877339890
H           35.42489354636661       -2.91329967394475       -3.44501326742772
H           33.73499899927575       -1.50535399212738       -2.08580972544226
H           38.82674610883144        0.14373525507514        6.38492106309636
H           37.89947326117740        1.53449824750626        7.04449399832033
H           39.70893750950412        1.61861257139956        6.91134981160533
H           38.70888403313842        3.86842226571114        6.84426010541385
H           38.55667952163687        6.23275605676314        6.21935715180490
H           38.33789511348711        6.90267564145105        3.87273842075175
H           39.07506852261302        7.10734017214220        1.51804581212757
H           38.07714557078843        6.51179152164686        0.14726549730065
H           37.26480280393458        7.05068202848889        1.65693086153767