256
 energy: -505.719781828979 gnorm: 0.825799418358 xtb: 6.5.1 (b24c23e)
Fe          43.47757699999999        0.04351400000000       -0.01713800000000
C           40.14083100000000       -0.08148400000000       -0.09483400000000
C           40.80402800000000       -1.23281700000000       -0.23755300000000
C           40.15332100000000       -2.53134800000000       -0.36358600000000
C           41.09381000000000       -3.44445600000000       -0.51801700000000
C           42.39922800000000       -2.76982300000000       -0.50918800000000
N           42.22222200000000       -1.36505700000000       -0.32183100000000
C           43.59169600000000       -3.37988200000000       -0.67180100000000
C           43.63908000000000       -4.84177600000000       -0.90105600000000
C           44.15438100000000       -5.69121500000000        0.08704400000000
C           44.21314100000000       -7.07029800000000       -0.13039900000000
C           43.76035399999999       -7.62245900000000       -1.34313900000000
N           43.81621800000000       -9.04264900000000       -1.56978000000000
O           43.37176800000000       -9.57993500000000       -2.75667700000000
O           44.25585400000000       -9.81088900000000       -0.68866700000000
C           43.25111099999999       -6.76391300000000       -2.33347400000000
C           43.19307500000000       -5.38471900000000       -2.11474200000000
C           44.88470900000000       -2.64669200000000       -0.64268900000000
C           46.17128999999999       -3.24578400000000       -1.01924800000000
C           47.10563300000000       -2.33126800000000       -0.85502700000000
N           45.02546000000000       -1.41274900000000       -0.26508100000000
C           46.42265100000000       -1.13737400000000       -0.37139500000000
C           47.01606899999999        0.01464900000000       -0.01904800000000
C           46.25277500000000        1.18958700000000        0.45864300000000
C           46.78520500000000        2.20246100000000        1.13064700000000
C           45.74161600000000        3.19147600000000        1.31877700000000
C           44.64113100000000        2.71901900000000        0.74462500000000
N           44.87403499999999        1.43010200000000        0.17372400000000
C           43.35919199999999        3.46418900000000        0.65057400000000
C           43.37668800000000        4.93188600000000        0.86242000000000
C           42.71454400000000        5.50038800000000        1.96067900000000
C           42.75163600000000        6.88174200000000        2.16917500000000
C           43.45599700000000        7.71834100000000        1.28573500000000
N           43.49076600000000        9.14083000000000        1.50240700000000
O           42.88566300000000        9.69454100000000        2.60788900000000
O           44.07448900000000        9.89399500000000        0.69519500000000
C           44.12655800000000        7.14186000000000        0.19094600000000
C           44.08960300000000        5.75997100000000       -0.01591700000000
C           42.19707100000000        2.83806900000000        0.38337800000000
C           40.88690800000000        3.47098500000000        0.24033300000000
C           40.02545500000000        2.49144100000000        0.04716400000000
C           40.77686600000000        1.23730700000000        0.05181000000000
N           42.04338099999999        1.42705900000000        0.24613600000000
H           39.05734900000000       -0.10966300000000       -0.08898700000000
H           39.08917800000000       -2.72922500000000       -0.33444300000000
H           40.90593900000000       -4.50444300000000       -0.62975000000000
H           44.50833700000000       -5.28441400000000        1.02654900000000
H           44.61370800000000       -7.70425800000000        0.64969400000000
H           42.89866500000000       -7.15759000000000       -3.27822000000000
H           42.80177700000000       -4.73882400000000       -2.89107900000000
H           46.34415499999999       -4.25386600000000       -1.37317500000000
H           48.16122599999999       -2.47053300000000       -1.04800400000000
H           47.81180700000000        2.29371300000000        1.45806800000000
H           45.85176999999999        4.14798300000000        1.81393200000000
H           42.17351300000000        4.87187700000000        2.65778600000000
H           42.22969500000000        7.29477700000000        3.02285000000000
H           44.68482700000000        7.75813200000000       -0.50136300000000
H           44.61648999999999        5.33418400000000       -0.86139000000000
H           40.64353800000000        4.52455000000000        0.28066800000000
H           38.95892799999999        2.60971300000000       -0.09302000000000
Fe          93.79902199999999       -0.01282600000000       -0.02810100000000
C           97.13576800000000        0.13218500000000       -0.05325900000000
C           96.47257200000000        1.25303200000000        0.24613700000000
C           97.12327900000000        2.50408200000000        0.61619500000000
C           96.18278900000000        3.40847500000000        0.81540900000000
C           94.87737199999999        2.77975300000000        0.57063400000000
N           95.05437800000000        1.40722500000000        0.21759300000000
C           93.68490299999999        3.40627600000000        0.64863200000000
C           93.63751900000000        4.84747300000000        0.98425400000000
C           93.12221899999999        5.26444100000000        2.21876800000000
C           93.06345899999999        6.62444000000000        2.53428800000000
C           93.51624600000000        7.59104500000000        1.61706600000000
N           93.46038099999998        8.99260100000000        1.93947300000000
O           93.90483200000000        9.93572400000000        1.04063000000000
O           93.02074499999999        9.37440900000000        3.04436000000000
C           94.02548899999998        7.16647100000000        0.37706400000000
C           94.08352499999998        5.80588600000000        0.06269700000000
C           92.39188999999999        2.71566200000000        0.40070500000000
C           91.10531000000000        3.41223900000000        0.27625300000000
C           90.17096699999999        2.50286900000000        0.08558700000000
N           92.25114000000001        1.43015900000000        0.28808400000000
C           90.85394900000000        1.21473800000000        0.08627300000000
C           90.26053100000000        0.01464900000000       -0.01904800000000
C           91.02382500000000       -1.25368200000000       -0.01676200000000
C           90.49139399999999       -2.44463200000000        0.22642800000000
C           91.53498399999999       -3.43203100000000        0.02999100000000
C           92.63546800000000       -2.77876000000000       -0.32511900000000
N           92.40256499999998       -1.36981600000000       -0.37107700000000
C           93.91740700000000       -3.43429900000000       -0.69171600000000
C           93.89991200000000       -4.87434800000000       -1.04565200000000
C           94.56205500000000       -5.81317500000000       -0.24068600000000
C           94.52496300000000       -7.17192400000000       -0.56535200000000
C           93.82060300000001       -7.61623300000000       -1.69802700000000
N           93.78583299999998       -9.01618200000000       -2.03053800000000
O           94.39093699999999       -9.94400500000000       -1.21332900000000
O           93.20211000000000       -9.41172600000000       -3.06126300000000
C           93.15004100000000       -6.67131000000000       -2.49678500000000
C           93.18699700000001       -5.31267700000000       -2.17040400000000
C           95.07952799999998       -2.75367100000000       -0.70464900000000
C           96.38969099999998       -3.28677500000000       -1.07457500000000
C           97.25114499999998       -2.30626700000000       -0.88636200000000
C           96.49973300000001       -1.14537400000000       -0.41180600000000
N           95.23321799999999       -1.39414700000000       -0.30280700000000
H           98.21925000000000        0.15611600000000       -0.03727300000000
H           98.18742200000000        2.67659400000000        0.71740700000000
H           96.37066000000000        4.43302300000000        1.10927900000000
H           92.76826300000000        4.53504500000000        2.93719400000000
H           92.66289200000000        6.91964500000000        3.49517600000000
H           94.37793400000000        7.88566700000000       -0.35114200000000
H           94.47482300000000        5.49821000000000       -0.89918300000000
H           90.93244500000000        4.47948100000000        0.32613800000000
H           89.11537399999999        2.70433200000000       -0.04109200000000
H           89.46479300000000       -2.65199600000000        0.49574500000000
H           91.42483000000000       -4.50441500000000        0.13037000000000
H           95.10308699999999       -5.49190500000000        0.64122700000000
H           95.04690500000000       -7.87491800000000        0.07116900000000
H           92.59177299999999       -6.98303200000000       -3.36966200000000
H           92.66010900000001       -4.60093700000000       -2.79454000000000
H           96.63306200000000       -4.27859700000000       -1.43222600000000
H           98.31767100000000       -2.36334700000000       -1.06066600000000
C           53.28658500000000        0.01575200000000       -0.01055800000000
C           52.07764500000000        0.00229600000000       -0.01900500000000
C           50.65611600000000        0.01111600000000       -0.03098800000000
C           49.44444700000000        0.01855500000000       -0.02012500000000
C           54.70318900000000        0.00907600000000       -0.01002500000000
C           55.92388500000000        0.01855500000000       -0.02012500000000
C           69.24214400000000        0.01575200000000       -0.01055800000000
C           68.03320400000000        0.00229600000000       -0.01900500000000
C           66.61167600000000        0.01111600000000       -0.03098800000000
C           65.40000600000000        0.01855500000000       -0.02012500000000
C           70.65874800000000        0.00907600000000       -0.01002500000000
C           71.87944400000001        0.01855500000000       -0.02012500000000
C           85.19770300000000        0.01575200000000       -0.01055800000000
C           83.98876299999999        0.00229600000000       -0.01900500000000
C           82.56723500000000        0.01111600000000       -0.03098800000000
C           81.35556500000000        0.01855500000000       -0.02012500000000
C           86.61430699999998        0.00907600000000       -0.01002500000000
C           87.83500300000000        0.01855500000000       -0.02012500000000
Fe          60.57344100000000        0.06184200000000       -0.04039500000000
C           57.20624600000000       -0.01772800000000        0.02244100000000
C           57.86236400000000       -1.18926400000000        0.11114400000000
C           57.22126900000000       -2.49225000000000        0.29913500000000
C           58.15846200000000       -3.41970100000000        0.29173000000000
C           59.45639499999999       -2.76486300000000        0.10030800000000
N           59.27859599999999       -1.35063100000000       -0.00885300000000
C           60.64121900000000       -3.40710600000000        0.03035300000000
C           60.67276900000000       -4.88467900000000        0.10428800000000
C           61.15125600000000       -5.52121700000000        1.25733500000000
C           61.19082399999999       -6.91669800000000        1.32683500000000
C           60.75594500000000       -7.69760200000000        0.23944500000000
N           60.79534500000000       -9.13499900000000        0.30651100000000
O           60.42077500000000       -9.89513300000000       -0.77766700000000
O           61.15084000000000       -9.71567200000000        1.35422200000000
C           60.28228699999999       -7.05157200000000       -0.91748800000000
C           60.24285999999999       -5.65620900000000       -0.98397800000000
C           61.94076999999999       -2.70362900000000       -0.11145000000000
C           63.21332000000000       -3.38614200000000       -0.37765500000000
C           64.16571100000000       -2.47566100000000       -0.38353400000000
N           62.10640099999999       -1.42594400000000        0.03696500000000
C           63.50747900000000       -1.20196600000000       -0.12243000000000
C           64.12236400000000       -0.01772800000000        0.02244100000000
C           63.37249300000000        1.23232400000000        0.26889400000000
C           63.90850000000000        2.34555200000000        0.75234000000000
C           62.87595699999999        3.36406600000000        0.73022700000000
C           61.78041200000000        2.80427000000000        0.23027800000000
N           62.00380500000000        1.43044400000000       -0.08352200000000
C           60.52320399999999        3.53458600000000       -0.06316500000000
C           60.58038500000000        5.00962000000000       -0.21344800000000
C           61.36306600000000        5.58300300000000       -1.22534400000000
C           61.43453100000000        6.97219700000000       -1.36145900000000
C           60.72759500000000        7.81290400000000       -0.48382400000000
N           60.79951700000000        9.24313700000000       -0.62951100000000
O           61.53392700000000        9.80615100000000       -1.64867600000000
O           60.19010500000000        9.99567800000000        0.15958600000000
C           59.95168199999999        7.23330100000000        0.53654000000000
C           59.88200000000000        5.84411300000000        0.67205100000000
C           59.35084800000000        2.88694700000000       -0.20782800000000
C           58.07249500000000        3.49575600000000       -0.56155700000000
C           57.18377300000000        2.52315000000000       -0.53495000000000
C           57.88350400000000        1.28558700000000       -0.17222800000000
N           59.15035400000000        1.49053900000000        0.01691800000000
H           56.16584699999999       -2.69353600000000        0.42524900000000
H           57.97280200000000       -4.47856400000000        0.41645700000000
H           61.49007600000000       -4.93632300000000        2.10330200000000
H           61.56490500000000       -7.38472000000000        2.22953300000000
H           59.94247700000000       -7.62451500000000       -1.77114700000000
H           59.87949600000000       -5.17566400000000       -1.88355000000000
H           63.36517100000000       -4.44540000000000       -0.53947500000000
H           65.21771099999999       -2.66754500000000       -0.54806100000000
H           64.93207900000000        2.48478400000000        1.07357600000000
H           62.99236900000000        4.39757200000000        1.02965300000000
H           61.91491799999999        4.95265400000000       -1.91188600000000
H           62.04382199999999        7.38821400000000       -2.15308800000000
H           59.39967100000000        7.85378400000000        1.23086200000000
H           59.28581800000000        5.41741800000000        1.46916800000000
H           57.86733000000000        4.52917300000000       -0.80938600000000
H           56.13157600000000        2.64080200000000       -0.75647700000000
Fe          76.52900000000000        0.06184200000000       -0.04039500000000
C           73.16180499999999       -0.01772800000000        0.02244100000000
C           73.81792299999999       -1.18926400000000        0.11114400000000
C           73.17682799999999       -2.49225000000000        0.29913500000000
C           74.11402099999998       -3.41970100000000        0.29173000000000
C           75.41195399999999       -2.76486300000000        0.10030800000000
N           75.23415500000000       -1.35063100000000       -0.00885300000000
C           76.59677799999999       -3.40710600000000        0.03035300000000
C           76.62832800000000       -4.88467900000000        0.10428800000000
C           77.10681500000000       -5.52121700000000        1.25733500000000
C           77.14638300000000       -6.91669800000000        1.32683500000000
C           76.71150400000001       -7.69760200000000        0.23944500000000
N           76.75090400000001       -9.13499900000000        0.30651100000000
O           76.37633399999999       -9.89513300000000       -0.77766700000000
O           77.10639900000000       -9.71567200000000        1.35422200000000
C           76.23784600000000       -7.05157200000000       -0.91748800000000
C           76.19841900000000       -5.65620900000000       -0.98397800000000
C           77.89632899999998       -2.70362900000000       -0.11145000000000
C           79.16887900000000       -3.38614200000000       -0.37765500000000
C           80.12127000000000       -2.47566100000000       -0.38353400000000
N           78.06196000000000       -1.42594400000000        0.03696500000000
C           79.46303800000000       -1.20196600000000       -0.12243000000000
C           80.07792300000000       -0.01772800000000        0.02244100000000
C           79.32805200000000        1.23232400000000        0.26889400000000
C           79.86405900000000        2.34555200000000        0.75234000000000
C           78.83151599999999        3.36406600000000        0.73022700000000
C           77.73597100000001        2.80427000000000        0.23027800000000
N           77.95936399999999        1.43044400000000       -0.08352200000000
C           76.47876300000000        3.53458600000000       -0.06316500000000
C           76.53594400000000        5.00962000000000       -0.21344800000000
C           77.31862500000000        5.58300300000000       -1.22534400000000
C           77.39008999999999        6.97219700000000       -1.36145900000000
C           76.68315400000000        7.81290400000000       -0.48382400000000
N           76.75507600000000        9.24313700000000       -0.62951100000000
O           77.48948599999999        9.80615100000000       -1.64867600000000
O           76.14566400000000        9.99567800000000        0.15958600000000
C           75.90724099999998        7.23330100000000        0.53654000000000
C           75.83755900000000        5.84411300000000        0.67205100000000
C           75.30640699999999        2.88694700000000       -0.20782800000000
C           74.02805400000000        3.49575600000000       -0.56155700000000
C           73.13933200000000        2.52315000000000       -0.53495000000000
C           73.83906300000000        1.28558700000000       -0.17222800000000
N           75.10591300000000        1.49053900000000        0.01691800000000
H           72.12140599999999       -2.69353600000000        0.42524900000000
H           73.92836100000000       -4.47856400000000        0.41645700000000
H           77.44563499999998       -4.93632300000000        2.10330200000000
H           77.52046400000000       -7.38472000000000        2.22953300000000
H           75.89803599999999       -7.62451500000000       -1.77114700000000
H           75.83505499999998       -5.17566400000000       -1.88355000000000
H           79.32073000000000       -4.44540000000000       -0.53947500000000
H           81.17326999999999       -2.66754500000000       -0.54806100000000
H           80.88763899999998        2.48478400000000        1.07357600000000
H           78.94792800000000        4.39757200000000        1.02965300000000
H           77.87047699999999        4.95265400000000       -1.91188600000000
H           77.99938100000000        7.38821400000000       -2.15308800000000
H           75.35523000000001        7.85378400000000        1.23086200000000
H           75.24137700000000        5.41741800000000        1.46916800000000
H           73.82288900000000        4.52917300000000       -0.80938600000000
H           72.08713500000000        2.64080200000000       -0.75647700000000
256
 energy: -506.035795513867 gnorm: 0.505084121623 xtb: 6.5.1 (b24c23e)
Fe          43.48957893849433        0.03610893911778       -0.02044248580917
C           40.14194966695352       -0.06537943909066       -0.09358856086828
C           40.81084971608966       -1.23178156247102       -0.23760762323806
C           40.15408519693259       -2.52356044544038       -0.36236895187599
C           41.10472704622826       -3.44488801904207       -0.51856161889178
C           42.39963674045584       -2.76082245476819       -0.50826448530537
N           42.21179860009519       -1.37220794498566       -0.31879355867159
C           43.60648099393070       -3.37500463884488       -0.67314832426063
C           43.64439645048756       -4.84261608948406       -0.90317093948384
C           44.15474079101975       -5.69782764217493        0.08144946333310
C           44.21157833114378       -7.07298473767638       -0.13457043546015
C           43.75881857946006       -7.62691688254208       -1.34831930914856
N           43.81122645057578       -9.05529566238195       -1.58086287504888
O           43.38827162077742       -9.54622181679795       -2.71019858867665
O           44.24671321610992       -9.79169756415672       -0.70758360016722
C           43.25095238828541       -6.76461489046443       -2.33278038801166
C           43.19349568675213       -5.39096079786578       -2.11157830651537
C           44.87915290768550       -2.65846593865761       -0.64354583672341
C           46.15923125954166       -3.25523297342714       -1.01856690476020
C           47.10508906425173       -2.32519090776969       -0.85354696909958
N           45.03293522379344       -1.40358928909095       -0.26923328872632
C           46.43484541121113       -1.13140097233886       -0.37023079919612
C           47.02353226568620        0.02688110095164       -0.01139867175442
C           46.25441838674084        1.17765954154553        0.44450367718393
C           46.78809734015571        2.22054944987911        1.13763825072722
C           45.76066339731199        3.19240863102759        1.32082835605825
C           44.63259305122584        2.70892719683982        0.73138828805585
N           44.87219490286939        1.42235230081989        0.18411055318658
C           43.37200479321530        3.45537725786664        0.64974371646818
C           43.38401170581840        4.92935251442310        0.86553955221311
C           42.71621104268332        5.50518036336493        1.95705065593141
C           42.75176755580082        6.88177897747146        2.16818505615728
C           43.45362012946011        7.72261269445849        1.29038920353768
N           43.48647825707135        9.15336138446084        1.51387612882183
O           42.90757283280629        9.66026614549002        2.56409749196982
O           44.06174286257643        9.87503544642457        0.71236546195157
C           44.12392841442061        7.14394025290172        0.19462755070697
C           44.08918184077967        5.76572558282337       -0.01046198800350
C           42.19760776122508        2.83411008165057        0.38326196814934
C           40.89444762654512        3.46901832895446        0.24138714845197
C           40.01711997520786        2.47992898764215        0.04624422798771
C           40.76127558411309        1.22771810278292        0.05058118074721
N           42.04830515564205        1.43085452119589        0.24030216973853
H           39.05823942682554       -0.10404902206686       -0.08910955281200
H           39.09039143061359       -2.72089708378188       -0.33336524624655
H           40.91656074491646       -4.50424365385012       -0.63031998532515
H           44.50734314145780       -5.28689372009513        1.02325161822763
H           44.61267909197407       -7.70748168295415        0.64718876312737
H           42.89933255274762       -7.16061578122868       -3.27774690642141
H           42.80308268512716       -4.74100905429799       -2.88872825038307
H           46.33564915762614       -4.25812685997939       -1.37304422151547
H           48.16014353947782       -2.46172902700142       -1.04499250242692
H           47.81269783142783        2.29873829164483        1.46103432750298
H           45.85654573139762        4.14682605494258        1.81587162756835
H           42.17531479436839        4.87382733708358        2.65555160780875
H           42.23059676974126        7.29742919124500        3.02234329704449
H           44.68319832510369        7.76107813677623       -0.49916977102754
H           44.61494247428590        5.33664772845781       -0.85858736529401
H           40.65305728231053        4.52293596404551        0.28177048013790
H           38.95550330242813        2.60260677042638       -0.09394982941678
Fe          93.78699053855512       -0.00472426347813       -0.02840367801288
C           97.13464510044143        0.11678152042154       -0.05814309820723
C           96.46574400862281        1.25209814780747        0.24570342230753
C           97.12251918082353        2.49641523162388        0.61440727601601
C           96.17188041642325        3.40908259848634        0.81506773650261
C           94.87697265251005        2.77103440100580        0.56812345153571
N           95.06484116174894        1.41276751058626        0.22308536687034
C           93.67008780291903        3.40225030830559        0.64553690759911
C           93.63219050795119        4.84905028224709        0.98260214393168
C           93.12186124640499        5.27266793341794        2.21606016282331
C           93.06502460367791        6.62849888228488        2.53142560972888
C           93.51777961356073        7.59711839714291        1.61393027913434
N           93.46535644740018        9.00849317880056        1.93392856036422
O           93.88834256878945        9.88703348139680        1.07110029830492
O           93.02989358132753        9.36370400268427        3.01964033083566
C           94.02564821230395        7.16686349106496        0.37797207314269
C           94.08310309010388        5.81048365211673        0.06796931970437
C           92.39747715543403        2.72691696585506        0.40431912144805
C           91.11735986504848        3.42075816081153        0.28043516717276
C           90.17150902554303        2.49673690520789        0.08465538777703
N           92.24372210660275        1.42318922071244        0.28087644046354
C           90.84178998217703        1.20885391647786        0.08512860774023
C           90.25352261634734        0.00055117605224       -0.01642822891788
C           91.02213047750331       -1.23732997982843       -0.02535265172623
C           90.48847850131500       -2.46411320641330        0.22616482441243
C           91.51586060811897       -3.43365374288970        0.03154967544036
C           92.64397906907668       -2.76439005759605       -0.33358641342220
N           92.40435722933604       -1.36652225529799       -0.35869642280498
C           93.90457772267196       -3.42579465151476       -0.68916234191333
C           93.89257635550190       -4.87316771633003       -1.04179960339839
C           94.56038657453591       -5.81625289078585       -0.24584527648697
C           94.52483112965146       -7.17158827194923       -0.56628672225903
C           93.82297782491955       -7.62193553012928       -1.69531078450357
N           93.79010610185755       -9.03211506688583       -2.02459499217840
O           94.36903802714035       -9.89579886534655       -1.24109080226502
O           93.21486744369790       -9.40057976717617       -3.03824498593009
C           93.15267451817257       -6.67462105792919       -2.49414993558931
C           93.18741945333529       -5.32005299227109       -2.16750266803937
C           95.07898171090586       -2.74993860364539       -0.70327177509866
C           96.38214941404551       -3.28534158297121       -1.07286076591588
C           97.25947606622087       -2.29524918603132       -0.88289845251737
C           96.51532142545211       -1.13601270273750       -0.40934593871712
N           95.22827728593153       -1.39546456628990       -0.30963045728126
H           98.21835707832901        0.15095574710114       -0.03949468130358
H           98.18621098520933        2.66847239432992        0.71528351717179
H           96.36003776444537        4.43305414753387        1.10867436833248
H           92.76925654154064        4.53857916796581        2.93506733308137
H           92.66391985217520        6.92357318164535        3.49405983401727
H           94.37726395239245        7.88829574152862       -0.34956998954383
H           94.47351537288176        5.49935378951524       -0.89618550276057
H           90.94094068849958        4.48338431843455        0.32785899808661
H           89.11644525928803        2.69503604568040       -0.04160234167983
H           89.46388336346209       -2.65780840699143        0.49661045106598
H           91.42003540433241       -4.50406190759595        0.13259783550630
H           95.10128377415538       -5.49287507277969        0.63842563532759
H           95.04600114687887       -7.87718729839878        0.06970490808723
H           92.59340101591897       -6.98658581123088       -3.36873065979202
H           92.66165654312397       -4.60427124933375       -2.79286608794339
H           96.62354040681122       -4.27751155005987       -1.43059708131997
H           98.32109353178788       -2.35641137368821       -1.05886248024048
C           53.28385976573036        0.01545740536248       -0.01111814345756
C           52.05562448735335        0.00271011403660       -0.01943899486865
C           50.64387658567154        0.01116923706931       -0.03004353532975
C           49.41353723948259        0.01962475938069       -0.02006057233939
C           54.66614345529731        0.00917999313327       -0.00874793661181
C           55.88295529275969        0.02302205058609       -0.01988746765121