227
 energy: -399.432368192129 gnorm: 1.436753578343 xtb: 6.5.1 (b24c23e)
Fe          27.83840900000000       -0.01884000000000       -0.03470100000000
C           24.49435800000000        0.11077700000000        0.05767200000000
C           25.16223200000000        0.89526600000000        0.90815500000000
C           24.51734300000000        1.77459000000000        1.87641800000000
C           25.46323700000000        2.42504000000000        2.52789700000000
C           26.76516300000000        1.99385800000000        2.00228100000000
N           26.58190500000000        1.01844300000000        0.97627900000000
C           27.95875600000000        2.47216700000000        2.40496000000000
C           29.25228500000000        2.01936100000000        1.83291700000000
C           30.54385000000000        2.63666200000000        2.15528600000000
C           31.47822200000000        1.98126400000000        1.49756100000000
N           29.38996400000000        1.02261000000000        1.01294500000000
C           30.79072400000000        0.93412500000000        0.75114700000000
C           31.38385900000000        0.00119200000000       -0.01233800000000
C           30.62345600000000       -1.04668000000000       -0.73264400000000
C           31.17009100000000       -2.14067700000000       -1.24859000000000
C           30.12158700000000       -2.86280200000000       -1.94090400000000
C           29.00208700000000       -2.16192500000000       -1.80469000000000
C           27.70738900000000       -2.52786800000000       -2.43474200000000
C           27.71125300000000       -3.53705300000000       -3.52402500000000
C           28.23889700000000       -3.19834700000000       -4.78617100000000
O           28.73692600000000       -1.89960500000000       -4.98558500000000
C           29.30012500000000       -1.42831100000000       -6.20490000000000
C           28.25014400000000       -4.16331200000000       -5.81000700000000
C           27.74554800000000       -5.44273300000000       -5.57822800000000
C           27.22853600000000       -5.77995000000000       -4.32744800000000
C           27.21051300000000       -4.83349700000000       -3.28646400000000
O           26.71113400000000       -5.14414700000000       -2.01013600000000
C           26.16370700000000       -6.40564400000000       -1.64191800000000
C           26.54437400000000       -1.96770500000000       -2.05355700000000
C           25.22771600000000       -2.24955800000000       -2.62196000000000
C           24.36716600000000       -1.53073200000000       -1.92767800000000
C           25.12577300000000       -0.78389500000000       -0.92538200000000
N           26.39631600000000       -1.03127700000000       -0.98893600000000
N           29.22853200000000       -0.97991300000000       -1.03350300000000
C           28.00282800000000        3.51148500000000        3.45955000000000
C           28.13324800000000        3.13169700000000        4.80956600000000
O           28.21848100000000        1.76473200000000        5.12288300000000
C           28.34008700000000        1.24473900000000        6.44300100000000
C           28.17296600000000        4.12697100000000        5.80341800000000
C           28.08626600000000        5.47509000000000        5.45415600000000
C           27.96130900000000        5.85013400000000        4.11591600000000
C           27.92003400000000        4.87231700000000        3.10491400000000
O           27.79950800000000        5.21185600000000        1.74677200000000
C           27.72060000000000        6.54463400000000        1.25153600000000
H           23.41096500000000        0.13357700000000        0.08012900000000
H           23.45353900000000        1.88917000000000        2.04146600000000
H           25.28290000000000        3.15424800000000        3.30727100000000
H           30.72043600000000        3.47809200000000        2.81247500000000
H           32.53749400000000        2.19719900000000        1.53370700000000
H           32.20846100000000       -2.43759100000000       -1.18764200000000
H           30.24053900000000       -3.78917300000000       -2.48775200000000
H           28.54495100000000       -1.47610300000000       -7.01765700000000
H           29.61489200000000       -0.37259700000000       -6.07399500000000
H           30.19173000000000       -2.03361200000000       -6.47263600000000
H           28.64602900000000       -3.93427900000000       -6.78992900000000
H           27.75806200000000       -6.17858800000000       -6.37204300000000
H           26.84930700000000       -6.78158700000000       -4.17911600000000
H           25.84523300000000       -6.36609400000000       -0.58033800000000
H           25.27698600000000       -6.63450900000000       -2.27005700000000
H           26.92932800000000       -7.20245800000000       -1.75429400000000
H           24.98090900000000       -2.91290000000000       -3.44079300000000
H           23.29655700000000       -1.50718500000000       -2.08323300000000
H           28.38757300000000        0.13791600000000        6.39289300000000
H           27.45672500000000        1.53564400000000        7.04998500000000
H           29.27235800000000        1.62009700000000        6.91642900000000
H           28.26918800000000        3.86966800000000        6.84949100000000
H           28.11704500000000        6.23419100000000        6.22534600000000
H           27.89829200000000        6.90331500000000        3.87852700000000
H           28.63859100000000        7.10822700000000        1.52364200000000
H           27.63691600000000        6.51534400000000        0.14605600000000
H           26.82214200000000        7.05127000000000        1.66301300000000
Fe          61.40982200000000        0.02048200000000        0.01066700000000
C           64.75387300000000       -0.05254100000000       -0.13075600000000
C           64.08599900000000       -0.78296200000000       -1.02810200000000
C           64.73088799999999       -1.61649900000000       -2.03605200000000
C           63.78499399999999       -2.16897500000000       -2.77244800000000
C           62.48306800000000       -1.70993800000000       -2.27097500000000
N           62.66632600000000       -0.83289900000000       -1.15970700000000
C           61.28947399999999       -2.04058900000000       -2.80163400000000
C           59.99594600000000       -1.53866900000000       -2.27216200000000
C           58.70438100000000       -1.77008100000000       -2.92899500000000
C           57.77000900000000       -1.21212600000000       -2.18681300000000
N           59.85826700000000       -0.86860100000000       -1.16904000000000
C           58.45750700000000       -0.62202800000000       -1.04426400000000
C           57.86437200000000        0.00119200000000       -0.01233800000000
C           58.62477499999999        0.56534300000000        1.12722800000000
C           58.07813999999999        0.92065400000000        2.28342200000000
C           59.12664300000000        1.50336900000000        3.09656800000000
C           60.24614300000000        1.46809600000000        2.38344800000000
C           61.54084200000000        2.03977700000000        2.83518000000000
C           61.53697800000000        2.97465900000000        3.98886400000000
C           61.00933400000000        4.27212000000000        3.83288100000000
O           60.51130499999999        4.65399800000000        2.57563600000000
C           59.94810600000000        5.92789600000000        2.28232600000000
C           60.99808700000000        5.14849900000000        4.93349800000000
C           61.50268299999999        4.73732800000000        6.16702000000000
C           62.01969500000000        3.45132900000000        6.32314400000000
C           62.03771700000000        2.55534600000000        5.23841600000000
O           62.53709700000000        1.24783300000000        5.36461300000000
C           63.08452399999999        0.70415200000000        6.56101200000000
C           62.70385700000000        1.74202900000000        2.22655000000000
C           64.02051500000000        2.26463000000000        2.58628700000000
C           64.88106500000001        1.67949800000000        1.77612600000000
C           64.12245799999999        0.79345500000000        0.89448600000000
N           62.85191500000000        0.82122400000000        1.14838700000000
N           60.01969800000000        0.87263500000000        1.10387500000000
C           61.24540300000000       -2.93685000000000       -3.98021800000000
C           61.11498300000000       -4.32712500000000       -3.79605200000000
O           61.02975000000000       -4.83144300000000       -2.48745600000000
C           60.90814399999999       -6.21203900000000       -2.16025900000000
C           61.07526499999999       -5.16952000000000       -4.92241100000000
C           61.16196500000000       -4.63229800000000       -6.20724600000000
C           61.28692200000000       -3.25435300000000       -6.38838900000000
C           61.32819700000000       -2.39250300000000       -5.27687500000000
O           61.44872300000000       -0.99990100000000       -5.42004600000000
C           61.52763099999999       -0.32036600000000       -6.66896000000000
H           65.83726600000000       -0.07153200000000       -0.15651600000000
H           65.79469200000000       -1.76359600000000       -2.17291500000000
H           63.96533100000000       -2.83686000000000       -3.60497300000000
H           58.52779500000000       -2.30108000000000       -3.85524600000000
H           56.71073699999999       -1.21723100000000       -2.40569200000000
H           57.03976999999999        0.81814700000000        2.56866700000000
H           59.00769199999999        1.91308100000000        4.09122400000000
H           60.70327999999999        6.72562200000000        2.44508700000000
H           59.63333900000000        5.94828300000000        1.21872200000000
H           59.05650099999999        6.10693400000000        2.91952100000000
H           60.60220199999999        6.15101900000000        4.84598600000000
H           61.49016900000000        5.41856500000000        7.00817500000000
H           62.39892400000000        3.16221900000000        7.29355200000000
H           63.40299799999999       -0.34104400000000        6.37106500000000
H           63.97124500000000        1.29341100000000        6.87678300000000
H           62.31890300000000        0.70220100000000        7.36570900000000
H           64.26732199999999        2.98093200000000        3.35921700000000
H           65.95167400000000        1.83682100000000        1.77491500000000
H           60.86065700000000       -6.31966500000000       -1.05754300000000
H           61.79150599999999       -6.77154500000000       -2.53443700000000
H           59.97587300000000       -6.62734700000000       -2.59906200000000
H           60.97904200000000       -6.24153500000000       -4.81631200000000
H           61.13118600000000       -5.28783700000000       -7.06819800000000
H           61.34993900000000       -2.86976600000000       -7.39716800000000
H           60.60963900000000       -0.50965400000000       -7.26549000000000
H           61.61131500000000        0.76974400000000       -6.48293300000000
H           62.42608799999999       -0.65570300000000       -7.22890800000000
C           37.44737599999999        0.00229400000000       -0.00384800000000
C           36.23843700000000       -0.01116100000000       -0.01229500000000
C           34.81690799999999       -0.00234100000000       -0.02427800000000
C           33.60523800000000        0.00509700000000       -0.01341500000000
C           38.86398000000000       -0.00438100000000       -0.00331500000000
C           40.08467599999999        0.00509700000000       -0.01341500000000
C           53.00854300000000        0.00229400000000       -0.00384800000000
C           51.79960300000000       -0.01116100000000       -0.01229500000000
C           50.37807400000000       -0.00234100000000       -0.02427800000000
C           49.16640500000000        0.00509700000000       -0.01341500000000
C           54.42514700000000       -0.00438100000000       -0.00331500000000
C           55.64584300000000        0.00509700000000       -0.01341500000000
Fe          44.53036300000000        0.00425200000000       -0.06226300000000
C           41.17488700000000       -0.00327900000000        0.02729100000000
C           41.83210600000000       -0.05123400000000        1.20071000000000
C           41.19095900000000       -0.16766600000000        2.51261200000000
C           42.13111499999999       -0.14890400000000        3.43617000000000
C           43.42993800000000       -0.01741700000000        2.76978500000000
N           43.25082100000000        0.04108800000000        1.35304000000000
C           44.61530999999999        0.06140900000000        3.40780800000000
C           45.91607500000000        0.18137000000000        2.70489800000000
C           47.18791700000000        0.44746800000000        3.38737000000000
C           48.14212499999999        0.43659200000000        2.47952400000000
N           46.08341500000000        0.01230500000000        1.43014500000000
C           47.48590600000000        0.16003300000000        1.20772600000000
C           48.10403299999999       -0.00327900000000        0.02729100000000
C           47.36115800000000       -0.28056400000000       -1.22152500000000
C           47.91399100000000       -0.74774600000000       -2.33384700000000
C           46.87931999999999       -0.77655200000000       -3.34900800000000
C           45.76394500000000       -0.32382000000000       -2.78827900000000
C           44.49649599999999       -0.08971200000000       -3.52067500000000
C           44.54246800000000       -0.00456200000000       -5.00192200000000
C           44.05118600000000       -1.06924300000000       -5.78424500000000
O           43.52687599999999       -2.20059400000000       -5.13634800000000
C           43.00195200000000       -3.34306700000000       -5.80405800000000
C           44.10353200000000       -0.97383800000000       -7.18709900000000
C           44.64254000000000        0.15883300000000       -7.79722700000000
C           45.13686100000000        1.20810000000000       -7.02260500000000
C           45.09291000000000        1.13681000000000       -5.61804400000000
O           45.57870400000000        2.17591600000000       -4.80676400000000
C           46.15190200000000        3.38351700000000       -5.29666000000000
C           43.32232300000000        0.06772300000000       -2.88233400000000
C           42.03902699999999        0.34686200000000       -3.51750900000000
C           41.14828200000000        0.36964400000000       -2.54759300000000
C           41.85180900000000        0.10875200000000       -1.28623000000000
N           43.12350400000000       -0.06705500000000       -1.47523100000000
N           45.97725900000000        0.00964300000000       -1.41728000000000
C           44.64469600000000        0.02147100000000        4.88896800000000
C           44.89118000000000       -1.19794300000000        5.54906500000000
O           45.09798100000000       -2.35472300000000        4.77887900000000
C           45.35508400000000       -3.64762200000000        5.31627500000000
C           44.92174899999999       -1.22511200000000        6.95536000000000
C           44.71279700000000       -0.05625500000000        7.68735300000000
C           44.47355100000000        1.15179200000000        7.03250700000000
C           44.43892000000000        1.20361700000000        5.62688600000000
O           44.20804300000000        2.40320400000000        4.93295900000000
C           43.99660000000000        3.66705500000000        5.55318800000000
H           40.13324599999999       -0.25355000000000        2.72244600000000
H           41.94721800000000       -0.21731100000000        4.50074700000000
H           47.33793799999999        0.62008100000000        4.44501800000000
H           49.19438000000000        0.59704100000000        2.67294000000000
H           48.94943099999999       -1.02682600000000       -2.47510600000000
H           47.00730299999999       -1.07324700000000       -4.38200500000000
H           42.13437700000000       -3.05173500000000       -6.43302400000000
H           42.66165800000000       -4.07999800000000       -5.04792100000000
H           43.78907500000000       -3.81434900000000       -6.43012700000000
H           43.73238500000000       -1.77128800000000       -7.81589600000000
H           44.67901400000000        0.22307600000000       -8.87726700000000
H           45.54981500000000        2.07153100000000       -7.52634600000000
H           46.44926799999999        4.01740900000000       -4.43685300000000
H           45.40904299999999        3.93879900000000       -5.90733500000000
H           47.05483200000000        3.15886200000000       -5.90280800000000
H           41.83286099999999        0.50667600000000       -4.56809100000000
H           40.09123400000000        0.55554200000000       -2.68397600000000
H           44.50118000000000       -3.97573600000000        5.94570800000000
H           45.47971400000000       -4.36766700000000        4.48167400000000
H           46.28968900000000       -3.63319100000000        5.91572900000000
H           45.10650800000000       -2.14482200000000        7.49305400000000
H           44.73866200000000       -0.08643100000000        8.76898200000000
H           44.31903600000000        2.04053100000000        7.62885000000000
H           44.88373200000000        3.94814400000000        6.15896900000000
H           43.09032300000000        3.63069800000000        6.19397900000000
H           43.84542600000000        4.43505800000000        4.76734500000000
227
 energy: -399.804592742806 gnorm: 0.385985552969 xtb: 6.5.1 (b24c23e)
Fe          27.84695657996139       -0.01470113068404       -0.03006604704483
C           24.49523155268353        0.10171989996740        0.04720322679835
C           25.16853376815562        0.89559729326565        0.90828804573903
C           24.51708831037180        1.77024428122669        1.87199662610266
C           25.47188152748605        2.42590671027159        2.52847817121225
C           26.76479334075533        1.98811339945469        1.99678699097327
N           26.57252598406827        1.02161698595041        0.98105155271806
C           27.97125047537309        2.46906753089518        2.40034277618512
C           29.24600375637388        2.02650500428960        1.84031665850631
C           30.53365303462870        2.64109193526469        2.16137142977496
C           31.47854329235738        1.97717498639907        1.49413156702860
N           29.39643637860946        1.01960239074728        1.00472048195572
C           30.80051923393171        0.93122997637038        0.74830799973066
C           31.39861359501746       -0.00876015258128       -0.01676688866613
C           30.62439384945313       -1.03056705248427       -0.72853524796918
C           31.17205259251599       -2.15435813743992       -1.25797032918282
C           30.13734844584225       -2.86496591131410       -1.94036627896257
C           28.99219059053804       -2.14873294412665       -1.80295356425012
C           27.71794198560555       -2.52233119119678       -2.42879765583932
C           27.71581435958722       -3.53678062596710       -3.52140134167025
C           28.24162113246831       -3.19739119557210       -4.78958607535662
O           28.73308702253916       -1.90581210620747       -4.98027189296373
C           29.29729441849215       -1.43472685707783       -6.20277480630432
C           28.24970489166753       -4.16205191123597       -5.80859333183259
C           27.74555094456111       -5.43859894881873       -5.57376254545949
C           27.22859218236004       -5.77837478479443       -4.32612894756719
C           27.20881338909432       -4.83676688352968       -3.28579843518988
O           26.71454956698502       -5.13821798241907       -2.01572309310286
C           26.16655783824274       -6.40302853874943       -1.64823778241615
C           26.54436527653169       -1.96572456271538       -2.05136486353573
C           25.23452773055277       -2.24999626881486       -2.62109608435549
C           24.36061004767099       -1.52456128764948       -1.92041725334114
C           25.11230723045263       -0.77803454654613       -0.91924562373797
N           26.40053520750963       -1.03122720890509       -0.99401217046946
N           29.22855519561014       -0.98316251461216       -1.02637814532640
C           28.00575432122064        3.51213893298472        3.45959300784952
C           28.13383549009409        3.13093904290786        4.81392391890002
O           28.21771589396301        1.77116909346010        5.11686634682488
C           28.33961640463959        1.25167258903008        6.44018105267776
C           28.17268820210231        4.12607061264610        5.80216318117827
C           28.08611238761154        5.47085294917741        5.44983875132798
C           27.96122133323889        5.84891121332298        4.11501618649650
C           27.92006167910534        4.87685025584379        3.10429995148376
O           27.80029367957417        5.20573806432868        1.75304729450033
C           27.72125390028956        6.54169976987014        1.25836254461872
H           23.41142656903286        0.13149182659053        0.07738666749158
H           23.45389345267910        1.88539900533525        2.03761772242658
H           25.28950865557491        3.15432647045458        3.30723636540533
H           30.71506715909405        3.47966661453467        2.81454047977541
H           32.53711280488648        2.19248639110160        1.52983343091965
H           32.20896460764581       -2.44048502536863       -1.18913717316363
H           30.24342069025296       -3.78978925306132       -2.48667014311555
H           28.54879534972119       -1.47637487383108       -7.01606082511362
H           29.61082238748021       -0.38096986240415       -6.07036400040188
H           30.18829075433542       -2.03146127903639       -6.47342501242496
H           28.64619209293528       -3.93307444917720       -6.78941554553982
H           27.75802148248438       -6.17701350983185       -6.37032654709130
H           26.84906197046782       -6.78115103545838       -4.17783198086879
H           25.84924866950565       -6.36178000507594       -0.58830768111346
H           25.28041153785705       -6.63545593475446       -2.26797815431957
H           26.92549506577912       -7.20077500635559       -1.75442746397134
H           24.98700796514807       -2.91288859696691       -3.43976208286362
H           23.29444851126032       -1.50399279655695       -2.07989914933681
H           28.38686231313424        0.14674557598001        6.38843055037737
H           27.46080101631143        1.53484735788471        7.04934897076773
H           29.26828472401564        1.61884844941033        6.91634223131920
H           28.26922205112192        3.86852706725393        6.84909162430321
H           28.11699036419303        6.23255529261165        6.22368400590532
H           27.89820400784155        6.90299027155818        3.87738107587428
H           28.63439125434618        7.10767954191942        1.52296017425155
H           27.63772284164855        6.51071460601728        0.15477762939981
H           26.82611376756772        7.05111672283137        1.66168606800972
Fe          61.40128769432980        0.01649145857326        0.00591124024740
C           64.75299241696753       -0.04345476637380       -0.12028818169023
C           64.07967934212147       -0.78306269958659       -1.02845451606195
C           64.73115113232640       -1.61274890637233       -2.03113371832194
C           63.77636307854142       -2.16942953654341       -2.77339351851248
C           62.48346188370233       -1.70529143792991       -2.26445302952984
N           62.67579308773269       -0.83723271720021       -1.16363124404284
C           61.27689948470165       -2.03643369760818       -2.79789878760476
C           60.00226932928333       -1.54500161892718       -2.28031337446033
C           58.71458003289641       -1.77548732603404       -2.93425097784681
C           57.76966612794458       -1.20931398526577       -2.18232373435628
N           59.85178006697016       -0.86086959842494       -1.16479841695030
C           58.44767000491525       -0.61965515410287       -1.04104824008380
C           57.85009110272406        0.00419087578576       -0.00173556094028
C           58.62383127800419        0.56355112321031        1.11076698168892
C           58.07617193910419        0.92805001862641        2.29845435788160
C           59.11076806744950        1.50251751260064        3.09863148412767
C           60.25602544912240        1.46820808895869        2.37009589370238
C           61.53025849118927        2.03465325454144        2.82883695490569
C           61.53240600034728        2.97209015943597        3.98821963677889
C           61.00661039911972        4.27563555244198        3.83241783932446
O           60.51514227457791        4.64785257543433        2.58102485889655
C           59.95093424008913        5.92488688623600        2.28837665525495
C           60.99852709656282        5.14727848185836        4.93204938465544
C           61.50267913101737        4.73349619422238        6.16229224855274
C           62.01963924965326        3.45024729525618        6.32139597057207
C           62.03941498549928        2.55422557930534        5.24155686652777
O           62.53367919808208        1.25419883636660        5.35953845101104
C           63.08167459829459        0.71078052247759        6.55931953223310
C           62.70386001448600        1.74012596048535        2.22425118076476
C           64.01370318191610        2.26370964087727        2.58659298528375
C           64.88761927233050        1.67318477801531        1.76898529675912
C           64.13592711759561        0.78819731332059        0.88779854177497
N           62.84765870705213        0.82625989522547        1.14904220574391
N           60.01960922209427        0.86523716557383        1.10607108432153
C           61.24245841254398       -2.93679401490626       -3.98087112304608
C           61.11439722815577       -4.33154938326530       -3.79591750966121
O           61.03051118795545       -4.82456718481255       -2.49297681506211
C           60.90861313105650       -6.20826926772767       -2.16672224234832
C           61.07554452052342       -5.16840602111865       -4.92134202019907
C           61.16211835547492       -4.62862865775725       -6.20243681638769
C           61.28701088316662       -3.25363605554011       -6.38705083310739
C           61.32817170177279       -2.39125939778288       -5.28127507663694
O           61.44792874340233       -1.00697068651963       -5.41488160022615
C           61.52698006179330       -0.32754164271943       -6.66702383618800
H           65.83680208152992       -0.06910879564080       -0.15406142532257
H           65.79434168556767       -1.76032416846195       -2.16863870029658
H           63.95872199547217       -2.83681607297054       -3.60504901108954
H           58.53315442965721       -2.30290402229034       -3.85709781212974
H           56.71110501007478       -1.21407025812472       -2.40048844573958
H           57.03924661142847        0.81923603772322        2.57177102269712
H           59.00478943733717        1.91192431738249        4.09167626124387
H           60.69943597306461        6.72400278246383        2.44512919985685
H           59.63740850803462        5.94350088736093        1.22649463847363
H           59.05994054746703        6.10801998024301        2.91750406453941
H           60.60203936331413        6.15068024900149        4.84472064962055
H           61.49020923300916        5.41708919037742        7.00637181387883
H           62.39916954080363        3.16100972332328        7.29293798051230
H           63.39898291132254       -0.33254261311097        6.36792742207077
H           63.96781968770325        1.29121915888070        6.87742497640351
H           62.32273638756534        0.70257222858188        7.36406270641448
H           64.26122143141006        2.97991156017551        3.35905798541256
H           65.95378161823166        1.83397411984196        1.77128276776635
H           60.86136781476036       -6.31399365737846       -1.06564920676484
H           61.78742990912821       -6.77102741085313       -2.53355791320110
H           59.97994662763010       -6.62743749016723       -2.59781370204849
H           60.97900785350409       -6.24130021094858       -4.81512627246241
H           61.13124025491852       -5.28642360625179       -7.06634165855834
H           61.35002735989170       -2.86867751186191       -7.39668447132801
H           60.61383911674044       -0.50905663704734       -7.26485282260918
H           61.61050879359048        0.76045363303884       -6.47959099890598
H           62.42211690430624       -0.65441184277694       -7.22856785851704
C           37.43913090259501        0.00197750287173       -0.00437824329263
C           36.21562892804584       -0.01074417310487       -0.01243971895501
C           34.80617593940328       -0.00246894969947       -0.02379284216456
C           33.57404754388652        0.00344754660513       -0.01472643145514
C           38.79616593487903       -0.00419427696165       -0.00351223937652
C           39.98448117406887        0.00470595838324       -0.02199561042694
C           53.03281044675923        0.00186516267106       -0.00407037715976
C           51.80994256764393       -0.01088540942754       -0.01243171599943
C           50.45663210543010       -0.00167567542011       -0.02833782580150
C           49.27427843543416        0.00519314090343       -0.02624179783650
C           54.43920341409063       -0.00387462153042       -0.00335505923903