360
 energy: -623.604647507739 gnorm: 3.028949614323 xtb: 6.5.1 (b24c23e)
C           84.05690499999999       -0.03608200000000        0.08569600000000
C           84.78512399999998        1.33988200000000        0.16444800000000
C           84.17781600000001        2.56154200000000        0.34281600000000
C           85.20043599999998        3.54437600000000        0.29574400000000
C           86.39790600000001        2.88861900000000        0.08066800000000
N           86.13716100000001        1.54135300000000        0.04930300000000
C           87.82074699999998        3.55742200000000       -0.12228200000000
C           87.86014400000001        5.02339700000000       -0.32601200000000
C           88.16449299999998        5.87470600000000        0.74325000000000
C           88.19342600000000        7.25841000000000        0.55622300000000
C           87.91692600000000        7.79823400000000       -0.70443100000000
C           87.94772000000000        9.21798900000000       -0.90032000000000
N           87.97144399999999       10.36747300000000       -1.06460700000000
C           87.61023000000000        6.95082600000000       -1.77490400000000
C           87.58200500000000        5.56685500000000       -1.58421700000000
C           88.95102000000000        2.80093700000000       -0.14576500000000
C           90.25411299999999        3.38183100000000       -0.39785200000000
C           91.15754000000000        2.40921300000000       -0.38169300000000
N           89.14913699999998        1.45544100000000        0.02201500000000
C           90.48109900000000        1.15649100000000       -0.10720100000000
C           91.15246500000001       -0.02316200000000       -0.02187900000000
C           90.37931900000000       -1.37115800000000        0.30504400000000
C           90.93301900000000       -2.52258400000000        0.83224900000000
C           89.90570499999998       -3.49574000000000        0.90486000000000
C           88.75201100000000       -2.90965000000000        0.42929800000000
N           89.03745400000000       -1.60106600000000        0.12282500000000
C           87.33893100000000       -3.61249800000000        0.27478000000000
C           87.30655000000000       -5.08827600000000        0.18803800000000
C           86.96419100000000       -5.85888700000000        1.30632100000000
C           86.94279099999999       -7.25206200000000        1.22096600000000
C           87.26806600000000       -7.88343000000000        0.01532400000000
C           87.24440099999998       -9.31373100000000       -0.07489300000000
N           87.22620700000000      -10.47272100000000       -0.14861300000000
C           87.61471999999999       -7.11685000000000       -1.10330800000000
C           87.63306799999999       -5.72381400000000       -1.01511700000000
C           86.21158500000000       -2.85999700000000        0.19042300000000
C           84.88818800000000       -3.43863300000000        0.03493400000000
C           84.00085900000001       -2.44845200000000       -0.00247800000000
C           84.72315800000000       -1.20569400000000        0.11072900000000
N           86.04555499999999       -1.50341300000000        0.22019600000000
H           82.97805800000000       -0.03463700000000       -0.01532300000000
H           83.11985599999998        2.72747000000000        0.47586700000000
H           85.07216099999999        4.61249400000000        0.38459900000000
H           86.83656099999999        0.80874200000000       -0.04111900000000
H           88.38301100000000        5.44087800000000        1.71782600000000
H           88.43324399999999        7.90042700000000        1.39934500000000
H           87.39449999999998        7.35095900000000       -2.76124400000000
H           87.34661500000000        4.89768900000000       -2.40864200000000
H           90.46704400000000        4.41939900000000       -0.58354300000000
H           92.21006400000000        2.55178800000000       -0.54555200000000
H           91.96613000000001       -2.65666400000000        1.11504900000000
H           90.00397000000000       -4.51329200000000        1.24708100000000
H           88.34954900000000       -0.90546300000000       -0.15672500000000
H           86.70971800000000       -5.35515000000000        2.23663400000000
H           86.67140599999999       -7.83092600000000        2.09949700000000
H           87.87293300000000       -7.58806700000000       -2.04811000000000
H           87.89668600000000       -5.11544100000000       -1.87945600000000
H           84.65665199999999       -4.48548900000000       -0.03794000000000
H           82.93557100000000       -2.54835000000000       -0.10970000000000
C          145.02589800000001        0.01912300000000        0.07787700000000
C          144.29767899999999       -1.28085600000000        0.53562300000000
C          144.90498700000001       -2.40493900000000        1.04621900000000
C          143.88236799999999       -3.36219000000000        1.27392100000000
C          142.68489800000000       -2.79194800000000        0.88520700000000
N          142.94564199999996       -1.50637800000000        0.48095300000000
C          141.26205700000000       -3.49080400000000        0.87595800000000
C          141.22265899999999       -4.95569700000000        1.08732800000000
C          140.91830999999999       -5.47660200000000        2.35093600000000
C          140.88937700000000       -6.85782100000000        2.55550600000000
C          141.16587799999999       -7.72648600000000        1.49433500000000
C          141.13508400000001       -9.14479900000000        1.70040200000000
N          141.11135899999999      -10.29469600000000        1.86177600000000
C          141.47257300000001       -7.20966500000000        0.23064700000000
C          141.50079800000000       -5.82717200000000        0.02951900000000
C          140.13178300000001       -2.77059200000000        0.64333100000000
C          138.82868999999999       -3.39864300000000        0.56246700000000
C          137.92526399999997       -2.45978900000000        0.30790400000000
N          139.93366599999999       -1.43142300000000        0.43088200000000
C          138.60170400000001       -1.18011200000000        0.22373300000000
C          137.93033799999998       -0.02316200000000       -0.02187900000000
C          138.70348400000000        1.36260200000000       -0.08213800000000
C          138.14978500000001        2.61514300000000        0.10459200000000
C          139.17709900000000        3.57018900000000       -0.09588800000000
C          140.33079200000000        2.87509100000000       -0.38999500000000
N          140.04535000000001        1.53286800000000       -0.32103400000000
C          141.74387300000001        3.50738800000000       -0.73361000000000
C          141.77625300000000        4.90103700000000       -1.22674900000000
C          142.11861200000001        5.95187700000000       -0.36643700000000
C          142.14001199999998        7.26655700000000       -0.83530600000000
C          141.81473800000001        7.53829900000000       -2.16885600000000
C          141.83840200000000        8.88729600000000       -2.65270600000000
N          141.85659600000000        9.98023200000000       -3.04536600000000
C          141.46808299999998        6.49123500000000       -3.03062200000000
C          141.44973500000000        5.17747600000000       -2.55906700000000
C          142.87121800000000        2.76105700000000       -0.60568800000000
C          144.19461500000000        3.27375800000000       -0.91574300000000
C          145.08194399999999        2.31213100000000       -0.67672000000000
C          144.35964500000000        1.14968700000000       -0.22286400000000
N          143.03724800000001        1.46609400000000       -0.20037600000000
H          146.10474500000001       -0.01031700000000       -0.01876800000000
H          145.96294700000001       -2.52739400000000        1.22011400000000
H          144.01064199999999       -4.36362500000000        1.65588700000000
H          142.24624200000000       -0.82769000000000        0.19064900000000
H          140.69979199999997       -4.78920600000000        3.16671300000000
H          140.64955900000001       -7.24046200000000        3.54375000000000
H          141.68830299999999       -7.86795800000000       -0.60578800000000
H          141.73618900000000       -5.41325900000000       -0.94830200000000
H          138.61575999999999       -4.44696800000000        0.67220100000000
H          136.87273900000000       -2.64225900000000        0.19008100000000
H          137.11667299999996        2.82248000000000        0.33903700000000
H          139.07883300000000        4.64275300000000       -0.04969000000000
H          140.73325399999999        0.78699400000000       -0.39642800000000
H          142.37308499999997        5.72629000000000        0.66716900000000
H          142.41139699999999        8.06661400000000       -0.15207200000000
H          141.20987000000000        6.68155800000000       -4.06911800000000
H          141.18611700000000        4.35301200000000       -3.22047300000000
H          144.42615100000000        4.25920600000000       -1.27645100000000
H          146.14723200000000        2.37832600000000       -0.80746500000000
C           92.96773399999999       -0.02316200000000       -0.02187900000000
C           94.18965200000000       -0.02316200000000       -0.02187900000000
C          103.44908900000000       -0.02316200000000       -0.02187900000000
C          104.67100600000001       -0.02316200000000       -0.02187900000000
C          113.93044300000000       -0.02316200000000       -0.02187900000000
C          115.15235999999999       -0.02316200000000       -0.02187900000000
C          124.41179699999999       -0.02316200000000       -0.02187900000000
C          125.63371499999998       -0.02316200000000       -0.02187900000000
C          134.89315099999999       -0.02316200000000       -0.02187900000000
C          136.11506900000001       -0.02316200000000       -0.02187900000000
C           95.24030399999998        0.01277900000000        0.01207100000000
C           96.03553799999999        1.16451000000000       -0.72966500000000
C           95.53437300000000        2.38487700000000       -1.13442600000000
C           96.57293400000000        3.06060300000000       -1.82514400000000
C           97.67671300000001        2.23374700000000       -1.81511900000000
N           97.36230899999998        1.11831600000000       -1.08036200000000
C           99.06354199999998        2.50747700000000       -2.52636600000000
C           99.05140900000001        3.35286200000000       -3.74073000000000
C           98.57474800000000        2.83402600000000       -4.95016600000000
C           98.54812699999999        3.63071000000000       -6.09700600000000
C           98.99735099999998        4.95486500000000       -6.03852600000000
C           98.97127399999999        5.77395100000000       -7.21449900000000
N           98.94998600000000        6.43993200000000       -8.16653000000000
C           99.47145700000000        5.47937500000000       -4.83068600000000
C           99.49582300000000        4.67998200000000       -3.68594500000000
C          100.19991899999998        1.93521800000000       -2.05002600000000
C          101.48533900000000        2.10639700000000       -2.69565000000000
C          102.39442000000000        1.42633700000000       -2.00539600000000
N          100.40975700000000        1.12419600000000       -0.97006900000000
C          101.73393299999999        0.78664000000000       -0.88569700000000
C          102.39825900000000        0.01277900000000        0.01207100000000
C          101.60304200000000       -0.66065300000000        1.20503900000000
C          102.10429400000000       -0.99387600000000        2.44680800000000
C          101.06573800000000       -1.64408000000000        3.16160600000000
C           99.96185699999999       -1.68190700000000        2.33569600000000
N          100.27620800000000       -1.01321000000000        1.17943900000000
C           98.57503199999999       -2.37603500000000        2.65038700000000
C           98.58735100000000       -3.53948000000000        3.56459700000000
C           99.06565500000001       -4.77639200000000        3.11692000000000
C           99.09248400000000       -5.87531300000000        3.97847700000000
C           98.64184800000000       -5.74094800000000        5.29660900000000
C           98.66808800000000       -6.86771600000000        6.18215800000000
N           98.68945200000000       -7.77983800000000        6.90180700000000
C           98.16615299999999       -4.50528900000000        5.75007900000000
C           98.14160999999999       -3.40859800000000        4.88593000000000
C           97.43862600000000       -1.93375300000000        2.05146200000000
C           96.15325499999999       -2.56849200000000        2.25971900000000
C           95.24416500000000       -1.91900900000000        1.54063600000000
C           95.90460099999999       -0.83830800000000        0.83701400000000
N           97.22873400000000       -0.90270500000000        1.17911700000000
H           94.52877900000000        2.74199000000000       -0.97125100000000
H           96.51503699999999        4.03128600000000       -2.29384400000000
H           98.01984500000000        0.39587500000000       -0.80151100000000
H           98.22731800000000        1.80289400000000       -4.98423100000000
H           98.17544200000000        3.20621800000000       -7.02550300000000
H           99.82491799999998        6.50501900000000       -4.76623200000000
H           99.86417299999999        5.07534700000000       -2.74084400000000
H          101.68110499999999        2.67550800000000       -3.58649000000000
H          103.43851699999999        1.36886100000000       -2.25383100000000
H          103.10993599999999       -0.81039000000000        2.79373000000000
H          101.12367900000000       -2.05567900000000        4.15785600000000
H           99.61859499999998       -0.77656900000000        0.44219200000000
H           99.41421400000000       -4.86958400000000        2.08982700000000
H           99.46644000000001       -6.82640300000000        3.60863500000000
H           97.81158000000001       -4.38209700000000        6.76995200000000
H           97.77206400000000       -2.44259000000000        5.22575000000000
H           95.95753700000000       -3.42484000000000        2.87953000000000
H           94.20011300000000       -2.17053200000000        1.49753200000000
C          105.72165800000001        0.01277900000000        0.01207100000000
C          106.51689199999998        1.16451000000000       -0.72966500000000
C          106.01572700000000        2.38487700000000       -1.13442600000000
C          107.05428799999999        3.06060300000000       -1.82514400000000
C          108.15806700000000        2.23374700000000       -1.81511900000000
N          107.84366299999999        1.11831600000000       -1.08036200000000
C          109.54489599999999        2.50747700000000       -2.52636600000000
C          109.53276399999999        3.35286200000000       -3.74073000000000
C          109.05610199999998        2.83402600000000       -4.95016600000000
C          109.02948200000000        3.63071000000000       -6.09700600000000
C          109.47870600000000        4.95486500000000       -6.03852600000000
C          109.45262799999999        5.77395100000000       -7.21449900000000
N          109.43134000000001        6.43993200000000       -8.16653000000000
C          109.95281199999999        5.47937500000000       -4.83068600000000
C          109.97717700000000        4.67998200000000       -3.68594500000000
C          110.68127299999999        1.93521800000000       -2.05002600000000
C          111.96669300000001        2.10639700000000       -2.69565000000000
C          112.87577500000000        1.42633700000000       -2.00539600000000
N          110.89111200000001        1.12419600000000       -0.97006900000000
C          112.21528800000000        0.78664000000000       -0.88569700000000
C          112.87961300000001        0.01277900000000        0.01207100000000
C          112.08439600000000       -0.66065300000000        1.20503900000000
C          112.58564800000001       -0.99387600000000        2.44680800000000
C          111.54709299999999       -1.64408000000000        3.16160600000000
C          110.44321200000000       -1.68190700000000        2.33569600000000
N          110.75756199999999       -1.01321000000000        1.17943900000000
C          109.05638699999999       -2.37603500000000        2.65038700000000
C          109.06870600000001       -3.53948000000000        3.56459700000000
C          109.54700899999999       -4.77639200000000        3.11692000000000
C          109.57383799999998       -5.87531300000000        3.97847700000000
C          109.12320300000000       -5.74094800000000        5.29660900000000
C          109.14944199999999       -6.86771600000000        6.18215800000000
N          109.17080600000000       -7.77983800000000        6.90180700000000
C          108.64750700000000       -4.50528900000000        5.75007900000000
C          108.62296400000000       -3.40859800000000        4.88593000000000
C          107.91998000000000       -1.93375300000000        2.05146200000000
C          106.63460899999998       -2.56849200000000        2.25971900000000
C          105.72551900000001       -1.91900900000000        1.54063600000000
C          106.38595500000000       -0.83830800000000        0.83701400000000
N          107.71008800000000       -0.90270500000000        1.17911700000000
H          105.01013299999998        2.74199000000000       -0.97125100000000
H          106.99639100000000        4.03128600000000       -2.29384400000000
H          108.50120000000000        0.39587500000000       -0.80151100000000
H          108.70867199999999        1.80289400000000       -4.98423100000000
H          108.65679700000000        3.20621800000000       -7.02550300000000
H          110.30627299999999        6.50501900000000       -4.76623200000000
H          110.34552699999999        5.07534700000000       -2.74084400000000
H          112.16245999999998        2.67550800000000       -3.58649000000000
H          113.91987099999999        1.36886100000000       -2.25383100000000
H          113.59129000000000       -0.81039000000000        2.79373000000000
H          111.60503400000000       -2.05567900000000        4.15785600000000
H          110.09994899999998       -0.77656900000000        0.44219200000000
H          109.89556899999999       -4.86958400000000        2.08982700000000
H          109.94779400000000       -6.82640300000000        3.60863500000000
H          108.29293400000000       -4.38209700000000        6.76995200000000
H          108.25341800000000       -2.44259000000000        5.22575000000000
H          106.43889100000000       -3.42484000000000        2.87953000000000
H          104.68146700000000       -2.17053200000000        1.49753200000000
C          116.20301300000000        0.01277900000000        0.01207100000000
C          116.99824700000001        1.16451000000000       -0.72966500000000
C          116.49708099999999        2.38487700000000       -1.13442600000000
C          117.53564299999998        3.06060300000000       -1.82514400000000
C          118.63942099999998        2.23374700000000       -1.81511900000000
N          118.32501700000000        1.11831600000000       -1.08036200000000
C          120.02625100000000        2.50747700000000       -2.52636600000000
C          120.01411799999998        3.35286200000000       -3.74073000000000
C          119.53745599999999        2.83402600000000       -4.95016600000000
C          119.51083599999998        3.63071000000000       -6.09700600000000
C          119.96006000000000        4.95486500000000       -6.03852600000000
C          119.93398299999998        5.77395100000000       -7.21449900000000
N          119.91269399999999        6.43993200000000       -8.16653000000000
C          120.43416600000000        5.47937500000000       -4.83068600000000
C          120.45853099999998        4.67998200000000       -3.68594500000000
C          121.16262700000000        1.93521800000000       -2.05002600000000
C          122.44804799999999        2.10639700000000       -2.69565000000000
C          123.35712900000000        1.42633700000000       -2.00539600000000
N          121.37246599999999        1.12419600000000       -0.97006900000000
C          122.69664200000000        0.78664000000000       -0.88569700000000
C          123.36096700000000        0.01277900000000        0.01207100000000
C          122.56574999999998       -0.66065300000000        1.20503900000000
C          123.06700199999999       -0.99387600000000        2.44680800000000
C          122.02844699999999       -1.64408000000000        3.16160600000000
C          120.92456599999998       -1.68190700000000        2.33569600000000
N          121.23891600000000       -1.01321000000000        1.17943900000000
C          119.53774099999998       -2.37603500000000        2.65038700000000
C          119.55006000000000       -3.53948000000000        3.56459700000000
C          120.02836300000000       -4.77639200000000        3.11692000000000
C          120.05519199999999       -5.87531300000000        3.97847700000000
C          119.60455700000000       -5.74094800000000        5.29660900000000
C          119.63079700000000       -6.86771600000000        6.18215800000000
N          119.65216099999999       -7.77983800000000        6.90180700000000
C          119.12886100000000       -4.50528900000000        5.75007900000000
C          119.10431900000000       -3.40859800000000        4.88593000000000
C          118.40133399999999       -1.93375300000000        2.05146200000000
C          117.11596400000001       -2.56849200000000        2.25971900000000
C          116.20687299999999       -1.91900900000000        1.54063600000000
C          116.86730900000001       -0.83830800000000        0.83701400000000
N          118.19144300000001       -0.90270500000000        1.17911700000000
H          115.49148799999999        2.74199000000000       -0.97125100000000
H          117.47774500000000        4.03128600000000       -2.29384400000000
H          118.98255399999999        0.39587500000000       -0.80151100000000
H          119.19002699999999        1.80289400000000       -4.98423100000000
H          119.13815099999998        3.20621800000000       -7.02550300000000
H          120.78762700000000        6.50501900000000       -4.76623200000000
H          120.82688099999999        5.07534700000000       -2.74084400000000
H          122.64381400000001        2.67550800000000       -3.58649000000000
H          124.40122500000000        1.36886100000000       -2.25383100000000
H          124.07264499999999       -0.81039000000000        2.79373000000000
H          122.08638799999999       -2.05567900000000        4.15785600000000
H          120.58130400000000       -0.77656900000000        0.44219200000000
H          120.37692300000001       -4.86958400000000        2.08982700000000
H          120.42914799999998       -6.82640300000000        3.60863500000000
H          118.77428899999998       -4.38209700000000        6.76995200000000
H          118.73477200000001       -2.44259000000000        5.22575000000000
H          116.92024600000001       -3.42484000000000        2.87953000000000
H          115.16282200000001       -2.17053200000000        1.49753200000000
C          126.68436699999999        0.01277900000000        0.01207100000000
C          127.47960100000000        1.16451000000000       -0.72966500000000
C          126.97843499999999        2.38487700000000       -1.13442600000000
C          128.01699700000000        3.06060300000000       -1.82514400000000
C          129.12077500000001        2.23374700000000       -1.81511900000000
N          128.80637100000001        1.11831600000000       -1.08036200000000
C          130.50760500000001        2.50747700000000       -2.52636600000000
C          130.49547200000001        3.35286200000000       -3.74073000000000
C          130.01881100000000        2.83402600000000       -4.95016600000000
C          129.99218999999999        3.63071000000000       -6.09700600000000
C          130.44141400000001        4.95486500000000       -6.03852600000000
C          130.41533699999999        5.77395100000000       -7.21449900000000
N          130.39404800000000        6.43993200000000       -8.16653000000000
C          130.91551999999999        5.47937500000000       -4.83068600000000
C          130.93988500000000        4.67998200000000       -3.68594500000000
C          131.64398199999999        1.93521800000000       -2.05002600000000
C          132.92940200000001        2.10639700000000       -2.69565000000000
C          133.83848300000000        1.42633700000000       -2.00539600000000
N          131.85382000000001        1.12419600000000       -0.97006900000000
C          133.17799600000001        0.78664000000000       -0.88569700000000
C          133.84232100000000        0.01277900000000        0.01207100000000
C          133.04710499999999       -0.66065300000000        1.20503900000000
C          133.54835600000001       -0.99387600000000        2.44680800000000
C          132.50980100000001       -1.64408000000000        3.16160600000000
C          131.40592000000001       -1.68190700000000        2.33569600000000
N          131.72027100000000       -1.01321000000000        1.17943900000000
C          130.01909499999999       -2.37603500000000        2.65038700000000
C          130.03141400000001       -3.53948000000000        3.56459700000000
C          130.50971699999999       -4.77639200000000        3.11692000000000
C          130.53654700000001       -5.87531300000000        3.97847700000000
C          130.08591100000001       -5.74094800000000        5.29660900000000
C          130.11215100000001       -6.86771600000000        6.18215800000000
N          130.13351499999999       -7.77983800000000        6.90180700000000
C          129.61021500000001       -4.50528900000000        5.75007900000000
C          129.58567300000001       -3.40859800000000        4.88593000000000
C          128.88268800000000       -1.93375300000000        2.05146200000000
C          127.59731800000000       -2.56849200000000        2.25971900000000
C          126.68822800000000       -1.91900900000000        1.54063600000000
C          127.34866400000000       -0.83830800000000        0.83701400000000
N          128.67279700000000       -0.90270500000000        1.17911700000000
H          125.97284200000000        2.74199000000000       -0.97125100000000
H          127.95909899999999        4.03128600000000       -2.29384400000000
H          129.46390800000000        0.39587500000000       -0.80151100000000
H          129.67138100000000        1.80289400000000       -4.98423100000000
H          129.61950500000000        3.20621800000000       -7.02550300000000
H          131.26898100000000        6.50501900000000       -4.76623200000000
H          131.30823599999999        5.07534700000000       -2.74084400000000
H          133.12516800000000        2.67550800000000       -3.58649000000000
H          134.88257999999999        1.36886100000000       -2.25383100000000
H          134.55399900000000       -0.81039000000000        2.79373000000000
H          132.56774200000001       -2.05567900000000        4.15785600000000
H          131.06265800000000       -0.77656900000000        0.44219200000000
H          130.85827699999999       -4.86958400000000        2.08982700000000
H          130.91050300000001       -6.82640300000000        3.60863500000000
H          129.25564299999999       -4.38209700000000        6.76995200000000
H          129.21612600000000       -2.44259000000000        5.22575000000000
H          127.40159999999999       -3.42484000000000        2.87953000000000
H          125.64417600000000       -2.17053200000000        1.49753200000000
360
 energy: -624.738897649797 gnorm: 0.966929060209 xtb: 6.5.1 (b24c23e)
C           84.06526536475988       -0.02124219036179        0.08643183433231
C           84.78144068499692        1.32925374059882        0.16397573024874
C           84.17947190791773        2.56510066391804        0.34219957670133
C           85.19785950912049        3.54341809843842        0.29504510035269
C           86.40813441823613        2.89177534373670        0.07952157978508
N           86.13728439658959        1.54140430472198        0.04883845737381
C           87.80676565264318        3.54920231077029       -0.12011669238286
C           87.85849067723075        5.02220256051570       -0.32522685884284
C           88.16455613636174        5.87525512668235        0.74242195258935
C           88.19347288531822        7.25653324123127        0.55638042451121
C           87.91689976791963        7.79910906821813       -0.70458710903090
C           87.94771360962768        9.21975272744158       -0.90064522091421
N           87.97137388381493       10.36341480947129       -1.06399381719601
C           87.61035601039512        6.94896419338748       -1.77455502512623
C           87.58193177314740        5.56783150863239       -1.58348231335670
C           88.95365706795870        2.79831062561911       -0.14580616437242
C           90.25480460638903        3.38528406114344       -0.39846465515974
C           91.16093898514571        2.41004174967240       -0.38204187711770
N           89.14732704727930        1.45102474587333        0.02187943353957
C           90.48171866659571        1.15892772544368       -0.10846517913074
C           91.16161786157282       -0.03667682991664       -0.01637715210894
C           90.38598125953018       -1.36120180347970        0.30355222441811