197
 energy: -375.302226288650 gnorm: 1.598922495366 xtb: 6.5.1 (b24c23e)
Co          32.88355900000000        0.01453900000000        0.00021800000000
C           29.46553400000000       -0.09247600000000        0.08943800000000
C           30.13082600000000       -0.19407000000000        1.24357100000000
C           29.48296400000000       -0.33659900000000        2.54215600000000
C           30.42508900000000       -0.35761400000000        3.46660000000000
C           31.72812700000000       -0.22736400000000        2.80077600000000
N           31.54864800000000       -0.12870100000000        1.38770900000000
C           32.91728400000000       -0.15643300000000        3.43190200000000
C           34.20876900000000        0.00323700000000        2.71431900000000
C           35.49549500000000        0.22005900000000        3.38682500000000
C           36.42998100000000        0.27767200000000        2.46005100000000
N           34.35130500000000       -0.07529100000000        1.42652100000000
C           35.74842900000000        0.09056300000000        1.18492300000000
C           36.34475600000000        0.01009300000000       -0.01599200000000
C           35.58701700000000       -0.19995800000000       -1.27070600000000
C           36.13012400000000       -0.61256500000000       -2.40916800000000
C           35.08632699999999       -0.60085100000000       -3.41474800000000
C           33.97415400000000       -0.17772700000000       -2.82534600000000
C           32.68615800000000        0.04526500000000       -3.53151400000000
C           32.70394400000000        0.18120700000000       -5.00850300000000
C           32.06080100000000       -0.76580700000000       -5.81950200000000
C           32.09626100000000       -0.64338700000000       -7.21131300000000
C           32.78257900000000        0.42522900000000       -7.81581500000000
C           32.82363000000000        0.55927300000000       -9.28865100000000
O           33.50762800000000        1.61939400000000       -9.87824200000000
O           32.24050600000000       -0.28349000000000      -10.02323600000000
C           33.43372400000000        1.36605700000000       -6.99927800000000
C           33.39674200000000        1.24279200000000       -5.60747100000000
C           31.51963900000000        0.12851600000000       -2.86338000000000
C           30.20400500000000        0.38074300000000       -3.44901300000000
C           29.34256200000000        0.33154200000000       -2.45161900000000
C           30.09874000000000        0.06167800000000       -1.23001100000000
N           31.36872100000000       -0.05801600000000       -1.45758500000000
N           34.19980500000000        0.09422700000000       -1.44075100000000
C           32.95703300000000       -0.22811200000000        4.90773800000000
C           32.89281000000000       -1.46908500000000        5.55479000000000
C           32.93212600000000       -1.53755700000000        6.95030800000000
C           33.03749300000000       -0.36386400000000        7.71906700000000
C           33.08003300000000       -0.43063300000000        9.19641100000000
O           33.18321800000000        0.73643300000000        9.94911500000000
O           33.02345700000000       -1.54297500000000        9.78744000000000
C           33.10233700000000        0.87791100000000        7.06267000000000
C           33.06230100000000        0.94455100000000        5.66705000000000
H           28.38228700000000       -0.11110200000000        0.11761600000000
H           28.41952400000000       -0.40482800000000        2.73237300000000
H           30.24098000000000       -0.44441200000000        4.52967600000000
H           35.67048999999999        0.31290700000000        4.45050000000000
H           37.48632100000000        0.42288800000000        2.64298800000000
H           37.16353300000000       -0.88766200000000       -2.57203400000000
H           35.20317800000000       -0.86672300000000       -4.45738800000000
H           31.53503000000000       -1.60080600000000       -5.37268600000000
H           31.58895900000000       -1.38687500000000       -7.81329300000000
H           33.54187100000000        1.72055300000000      -10.88564000000000
H           33.97314900000000        2.19781000000000       -7.43452300000000
H           33.90583500000000        1.97709300000000       -4.99506300000000
H           29.95701600000000        0.57474700000000       -4.48445200000000
H           28.27328200000000        0.47465400000000       -2.53591300000000
H           32.81212300000000       -2.38213900000000        4.97763700000000
H           32.88040700000000       -2.50866000000000        7.42651000000000
H           33.21314200000000        0.70197500000000       10.96113500000000
H           33.18413900000000        1.79872500000000        7.62624500000000
H           33.11361800000000        1.90921800000000        5.17706000000000
Co          65.97658600000000        0.01637800000000       -0.03158100000000
C           69.39461100000000       -0.07963500000000       -0.13254600000000
C           68.72931899999999       -0.04746600000000       -1.29069500000000
C           69.37718099999999       -0.03930200000000       -2.59705200000000
C           68.43505599999999        0.04642200000000       -3.51775300000000
C           67.13201700000000        0.09902600000000       -2.84135200000000
N           67.31149600000001        0.03408800000000       -1.42633400000000
C           65.94286099999999        0.24225900000000       -3.46008900000000
C           64.65137600000000        0.31811900000000       -2.72888000000000
C           63.36465000000000        0.61104200000000       -3.37189800000000
C           62.43016400000000        0.56140300000000       -2.44466300000000
N           64.50883899999999        0.09161700000000       -1.45872800000000
C           63.11171599999999        0.22850600000000       -1.19961700000000
C           62.51538900000000        0.01009300000000       -0.01599200000000
C           63.27312799999999       -0.34324000000000        1.20613100000000
C           62.73002099999999       -0.88437200000000        2.28942000000000
C           63.77381799999999       -0.98869100000000        3.28964400000000
C           64.88599100000000       -0.50042500000000        2.75296400000000
C           66.17398700000000       -0.36034900000000        3.48013500000000
C           66.15620100000000       -0.39562800000000        4.96294700000000
C           66.79934400000000       -1.42984300000000        5.65933500000000
C           66.76388400000000       -1.46873100000000        7.05597800000000
C           66.07756600000000       -0.47695000000000        7.77967100000000
C           66.03651499999999       -0.51363500000000        9.25814000000000
O           65.35251700000001        0.47142800000000        9.96604200000000
O           66.61963900000001       -1.43548200000000        9.89064400000000
C           65.42642100000000        0.55175800000000        7.07706900000000
C           65.46340300000000        0.58980700000000        5.68033300000000
C           67.34050600000000       -0.20061100000000        2.82605800000000
C           68.65613999999999       -0.01759700000000        3.43686900000000
C           69.51758300000000        0.04854200000000        2.44045500000000
C           68.76140500000000       -0.07865700000000        1.19587700000000
N           67.49142399999999       -0.22379400000000        1.40813100000000
N           64.66033899999999       -0.07062600000000        1.40896400000000
C           65.90311199999999        0.34124000000000       -4.93434500000000
C           65.96733500000001       -0.81684300000000       -5.72018000000000
C           65.92801900000001       -0.72393800000000       -7.11428400000000
C           65.82265200000001        0.53057200000000       -7.74257500000000
C           65.78011200000000        0.63460300000000       -9.21776300000000
O           65.67692700000001        1.88068000000000       -9.83087000000000
O           65.83668800000000       -0.40216600000000       -9.93311600000000
C           65.75780800000000        1.68837300000000       -6.94736500000000
C           65.79784400000000        1.59363800000000       -5.55337100000000
H           70.47785700000000       -0.09488700000000       -0.16268300000000
H           70.44062099999999       -0.08514200000000       -2.79386900000000
H           68.61916500000000        0.08278800000000       -4.58374700000000
H           63.18965499999999        0.82592500000000       -4.41777200000000
H           61.37382400000000        0.72674500000000       -2.60963400000000
H           61.69661200000000       -1.17641400000000        2.41947900000000
H           63.65696700000000       -1.37301900000000        4.29467100000000
H           67.32511500000000       -2.20774900000000        5.11921400000000
H           67.27118600000000       -2.27667500000000        7.56821000000000
H           65.31827400000000        0.45574800000000       10.97838400000000
H           64.88699500000000        1.32777400000000        7.60532200000000
H           64.95431000000001        1.38982800000000        5.15668400000000
H           68.90312800000000        0.05571600000000        4.48777200000000
H           70.58686299999999        0.18097900000000        2.54068900000000
H           66.04802200000000       -1.79035900000000       -5.25216200000000
H           65.97973700000000       -1.63365200000000       -7.69928800000000
H           65.64700300000000        1.96314900000000      -10.84011200000000
H           65.67600600000000        2.66803200000000       -7.40100000000000
H           65.74652700000000        2.49536800000000       -4.95541200000000
C           42.27857600000000        0.01140500000000       -0.00756000000000
C           41.06963600000000       -0.00205000000000       -0.01600700000000
C           39.64810700000000        0.00676900000000       -0.02799000000000
C           38.43643800000000        0.01420800000000       -0.01712700000000
C           43.69517999999999        0.00473000000000       -0.00702600000000
C           44.91587600000000        0.01420800000000       -0.01712700000000
C           57.78941000000000        0.01140500000000       -0.00756000000000
C           56.58046999999999       -0.00205000000000       -0.01600700000000
C           55.15894100000000        0.00676900000000       -0.02799000000000
C           53.94727199999999        0.01420800000000       -0.01712700000000
C           59.20601400000000        0.00473000000000       -0.00702600000000
C           60.42671000000000        0.01420800000000       -0.01712700000000
Co          49.41744099999999        0.00690400000000       -0.03420900000000
C           45.96498900000000       -0.02331200000000        0.03587700000000
C           46.62008500000000       -1.19900200000000        0.02728800000000
C           45.97945099999999       -2.51118100000000       -0.07997800000000
C           46.91662699999999       -3.43657600000000       -0.02298600000000
C           48.21359500000000       -2.77183100000000        0.13312700000000
N           48.03525800000000       -1.35333400000000        0.15638800000000
C           49.39865400000000       -3.40734000000000        0.25213700000000
C           50.69305800000000       -2.68963300000000        0.37178900000000
C           51.95729699999999       -3.33776400000000        0.74756600000000
C           52.90995599999999       -2.42739300000000        0.69410300000000
N           50.86336000000000       -1.43226300000000        0.10348900000000
C           52.25946400000000       -1.18863000000000        0.28586400000000
C           52.87714100000000       -0.02331200000000        0.03587700000000
C           52.12745499999999        1.18985500000000       -0.35036600000000
C           52.66061300000000        2.24197700000000       -0.95882000000000
C           51.62735800000000        3.25794900000000       -1.04134700000000
C           50.53553500000000        2.75633300000000       -0.47412100000000
C           49.28193100000000        3.51413200000000       -0.24783100000000
C           49.33936600000000        4.99582400000000       -0.25532000000000
C           50.11485000000000        5.67376700000000        0.69434200000000
C           50.18958799999999        7.06887600000000        0.67621700000000
C           49.49684400000000        7.80881400000000       -0.29971900000000
C           49.56867600000000        9.28575900000000       -0.32038800000000
O           48.93628200000000       10.00748300000000       -1.33307500000000
O           50.19498600000000        9.90519100000000        0.58212700000000
C           48.73185300000000        7.12413800000000       -1.25884800000000
C           48.65553700000000        5.72896700000000       -1.23740200000000
C           48.11275700000000        2.88549500000000       -0.02254500000000
C           46.83862100000000        3.52786600000000        0.28271700000000
C           45.94924399999999        2.55866500000000        0.36140600000000
C           46.64474800000000        1.29057000000000        0.11275200000000
N           47.90967400000000        1.47472600000000       -0.10869000000000
N           50.76127800000000        1.42594800000000       -0.01159000000000
C           49.44016599999999       -4.88775100000000        0.25812900000000
C           48.92770399999999       -5.61031900000000        1.34706800000000
C           48.98784700000000       -7.00705500000000        1.35682800000000
C           49.56650200000000       -7.70321600000000        0.27904700000000
C           49.63608199999999       -9.18142400000000        0.28541700000000
O           50.20660700000000       -9.86148200000000       -0.78749600000000
O           49.18112500000000       -9.83879600000000        1.26015000000000
C           50.08299300000000       -6.97334600000000       -0.80716500000000
C           50.02207500000000       -5.57695500000000       -0.81568400000000
H           44.92477300000000       -2.71948300000000       -0.19664600000000
H           46.73108100000000       -4.50072100000000       -0.08996900000000
H           52.10387399999999       -4.37440000000000        1.02153300000000
H           53.95667800000000       -2.59691700000000        0.91505900000000
H           53.68266200000000        2.34333400000000       -1.29895600000000
H           51.74150500000000        4.25380000000000       -1.45036700000000
H           50.65738200000000        5.12091200000000        1.45145800000000
H           50.79223400000000        7.56718700000000        1.42333600000000
H           48.97800000000000       11.01902200000000       -1.35537000000000
H           48.18991500000000        7.66533300000000       -2.02636200000000
H           48.06762800000000        5.21826100000000       -1.99058600000000
H           46.63690200000000        4.58120700000000        0.42861800000000
H           44.89913299999999        2.69993900000000        0.58068000000000
H           48.48349199999999       -5.09091700000000        2.18852700000000
H           48.58391699999999       -7.54130900000000        2.20875300000000
H           50.25858900000000      -10.87361400000000       -0.79303800000000
H           50.53640200000000       -7.47997300000000       -1.65088800000000
H           50.42685200000000       -5.03141900000000       -1.66038400000000
197
 energy: -375.737224654749 gnorm: 0.440924975042 xtb: 6.5.1 (b24c23e)
Co          32.88091957190645        0.01124967441335       -0.00112343790451
C           29.46676352340830       -0.09080296467755        0.07625789726226
C           30.13836037555620       -0.19381448728289        1.24381124643991
C           29.48286818812133       -0.33636753201039        2.53645992854353
C           30.43277027504589       -0.35741931979522        3.46784327838355
C           31.72748363368908       -0.22736031840775        2.79332139732328
N           31.54183950741053       -0.12894429089828        1.39546797274132
C           32.92977239524158       -0.15505368649007        3.42803232534662
C           34.20224629172598        0.00279581331769        2.72517403377769
C           35.48553046045037        0.21840848539638        3.39372928130186
C           36.43014202461888        0.27721243150742        2.45461534044475
N           34.35658512564495       -0.07058772416269        1.41747714437094
C           35.75732971675461        0.09091999790544        1.18146608247865
C           36.36369028688101        0.00626392648341       -0.02591730754789
C           35.58833269048247       -0.19208571410600       -1.25638294401801
C           36.13175779734391       -0.61530484294975       -2.42568712494896
C           35.10203382463987       -0.60291194359938       -3.41547717035007
C           33.96361830337050       -0.17039900769859       -2.81436877017608
C           32.69613402972468        0.04458669395406       -3.52553178514304
C           32.70813149670229        0.17931167077802       -5.00773241874658
C           32.06196495423547       -0.76235144917673       -5.82239341426930
C           32.09835259109629       -0.63987071891071       -7.21085668650075
C           32.78527817098409        0.42944476857177       -7.81853951552398
C           32.81965842842813        0.55388450837748       -9.30439368538330
O           33.50362759198275        1.61310518398644       -9.87211457604879
O           32.24873220726820       -0.27137996525805      -10.01604962663985
C           33.43279753767483        1.36508356808760       -6.99720532120563
C           33.39641725325396        1.24076574988778       -5.61011183490844
C           31.51942845303454        0.12858067071953       -2.86036752324949
C           30.21043741286264        0.37989832277955       -3.44901042017364
C           29.33654789331888        0.33014851558596       -2.44257321962304
C           30.08694448450570        0.06081804164839       -1.22148323544399
N           31.37547216835368       -0.05289777922926       -1.46002932614493
N           34.20148469011759        0.08715233380855       -1.43631814375810
C           32.95955064113684       -0.22779451372246        4.90974246540192
C           32.89281347809884       -1.46627823719973        5.55905421649014
C           32.93225469634728       -1.53353888408115        6.95088910641481
C           33.03791257810722       -0.35928837004825        7.72243048560588
C           33.07994898121241       -0.43939290963008        9.21108720099060
O           33.18254209842673        0.72992347747970        9.94205972883570
O           33.02431173686998       -1.52751850707132        9.78228811826293
C           33.10214842012077        0.87691354407975        7.06096327311106
C           33.06285627353665        0.94234403972984        5.67014608665570
H           28.38289217691441       -0.11049395370023        0.11478454656635
H           28.41999159992228       -0.40459479833803        2.72762830350662
H           30.24662580197512       -0.44428194725781        4.52975506641955
H           35.66574332937537        0.31245044331965        4.45264290472080
H           37.48572617997575        0.42251414470321        2.63777058129093
H           37.16377650005533       -0.88840222142021       -2.57498024625842
H           35.20565310144807       -0.86746066606774       -4.45694359966365
H           31.53596657559006       -1.59950870571894       -5.37323379456700
H           31.59010262579344       -1.38520220141075       -7.81442468262971
H           33.53592405373544        1.71074676477919      -10.86873893404878
H           33.97259918073553        2.19711830755207       -7.43512443944700
H           33.90523175344567        1.97612358748456       -4.99533545716548
H           29.96229928519998        0.57402469619055       -4.48396844456430
H           28.27164495576882        0.47414935841926       -2.53191685599944
H           32.81234562192512       -2.38059638498355        4.97852387454796
H           32.88060799284563       -2.50686614605822        7.42806821574979
H           33.21195157049502        0.69293335489974       10.94286237371258
H           33.18403171068667        1.79782355966824        7.62690548738800
H           33.11353674295271        1.90797953775272        5.17730401654846
Co          65.97923076016926        0.01294218557335       -0.03063143716183
C           69.39337730862148       -0.07949294096435       -0.11926063559444
C           68.72178189909629       -0.04718714273817       -1.29090525501251
C           69.37728160742105       -0.03972967055480       -2.59137365442807
C           68.42738182611225        0.04675894740466       -3.51896634908980
C           67.13267521860553        0.09816165595506       -2.83390654219221
N           67.31833876356393        0.03474700936840       -1.43412131237036
C           65.93032596300056        0.24318722310297       -3.45606904981919
C           64.65792845626341        0.31894011391948       -2.73974008936927
C           63.37461831691090        0.61019564118901       -3.37896135596608
C           62.42999841959488        0.56032973204518       -2.43934924010279
N           64.50354130617225        0.09523456427034       -1.44916063293097
C           63.10282157632820        0.22847420870924       -1.19622583384473
C           62.49657590969695        0.00508756940558       -0.00666836051687
C           63.27174446243703       -0.33377965271081        1.19281702174462
C           62.72837360902950       -0.88903451332884        2.30559007350752
C           63.75805294304045       -0.99082405147842        3.29011577776110
C           64.89651517513165       -0.49186878355897        2.74286402584838
C           66.16399786059887       -0.36033516463031        3.47410171748336
C           66.15200624764522       -0.39742330226080        4.96196732128884
C           66.79818059541778       -1.42674387549965        5.66260234636247
C           66.76178998254909       -1.46518203879515        7.05593262010969
C           66.07486553116340       -0.47307428072602        7.78285715559611
C           66.04047596904982       -0.52079609547122        9.27318043642702
O           65.35653347196286        0.46587416597731        9.95921914962605
O           66.61141917022573       -1.42262503977050        9.88488971445273
C           65.42734965838943        0.55102905858292        7.07490079904585
C           65.46372565727722        0.58749101490943        5.68271838462347
C           67.34071215192670       -0.20019354596677        2.82306069409874
C           68.64970757797457       -0.01843645257903        3.43676645651785
C           69.52359602050942        0.04819772014297        2.43131040422529
C           68.77319849288604       -0.07852893468270        1.18730446237136
N           67.48466376459066       -0.21897871660067        1.41114362955715
N           64.65861333049848       -0.07710893770811        1.40375395066911
C           65.90058648018511        0.34179041605855       -4.93629489234398
C           65.96733103493725       -0.81356080720177       -5.72409281070640
C           65.92789149598917       -0.71988108321312       -7.11439727209321
C           65.82223237278268        0.53550677631203       -7.74539134946033
C           65.78020453636874        0.62759827219553       -9.23334116032873
O           65.67759588783547        1.87339698155628       -9.82461492071089
O           65.83582331386864       -0.38741454428546       -9.92622365324614
C           65.75799648549000        1.68718844483604       -6.94578398754335
C           65.79728836389103        1.59180352183025       -5.55670218660462
H           70.47725092295407       -0.09460788276646       -0.15980018455309
H           70.44015549513186       -0.08545643092697       -2.78913107194690
H           68.61351910418094        0.08292729824291       -4.58381201987660
H           63.19439647189571        0.82572027130539       -4.41995713943192
H           61.37441280029735        0.72577719977231       -2.60449673943600
H           61.69635866435177       -1.17749586158603        2.42234190373973
H           63.65448346648019       -1.37369871373710        4.29413617500594
H           67.32417872657827       -2.20652518991172        5.11990636889567
H           67.27004188621014       -2.27514309181093        7.56952681045161
H           65.32421217977092        0.44796111720318       10.96046471717347
H           64.88754526984312        1.32701585087080        7.60583875352414
H           64.95491378879458        1.38883452886772        5.15684292229546
H           68.89784340239473        0.05505409666270        4.48720619457386
H           70.58849871989889        0.18093885466806        2.53666115967366
H           66.04780036127487       -1.78872424207703       -5.25286513271453
H           65.97953735326467       -1.63169121355716       -7.70062930927813
H           65.64819885728649        1.95206328857348      -10.82300276153195
H           65.67611384960527        2.66721316817860       -7.40176037930862
H           65.74660833096526        2.49416487877207       -4.95579817128913
C           42.27068610828528        0.01136325129788       -0.00783699223386
C           41.04765796504886       -0.00173961344247       -0.01601093591143
C           39.63832586209084        0.00671865615894       -0.02765043376100
C           38.40516445102786        0.01383212067995       -0.01905596831556
C           43.62226885246903        0.00634762597304       -0.00864104378802
C           44.80075992871220        0.02299743833280       -0.02226062551176
C           57.81070679778365        0.01120276942004       -0.00797138557730
C           56.58709602286509       -0.00144249915498       -0.01678440121717
C           55.22893695711564        0.00776336900333       -0.02881916165948
C           54.04647648245878        0.02717943064078       -0.01965803659483
C           59.21867710107203        0.00498099785973       -0.00693088784463
C           60.45439639997208        0.01367789608372       -0.01492694869116
Co          49.41396790561117        0.00791237473153       -0.03025052942523
C           46.06789398061353       -0.01453234302815        0.04142739386922
C           46.66296167909340       -1.21756077750324        0.02765118296666
C           45.98146249479630       -2.50252095381438       -0.07967810430777
C           46.92549023323042       -3.43953271605077       -0.02212076000059
C           48.21369579969968       -2.76890378757018        0.13273009395914
N           48.03851278397821       -1.36683331839822        0.15202961088539
C           49.41024468679798       -3.40689873171241        0.25386161051755
C           50.68474603050935       -2.70679050129460        0.37210979581788
C           51.94551124986769       -3.34683757815051        0.74630602174506
C           52.90609165564696       -2.42014866225412        0.69198449659828
N           50.85786201577681       -1.43015655813870        0.10931144754117
C           52.22449268058865       -1.20530915252717        0.29166059800714
C           52.78016258610945       -0.01686191762616        0.03397904693872
C           52.09505133315096        1.19062510820898       -0.34614757583395
C           52.65878455128894        2.25764640572119       -0.96262895381227
C           51.64231349034549        3.26000709784696       -1.04395344181750
C           50.52445555339867        2.75095071560800       -0.46555544376565
C           49.29161240972444        3.51001035560447       -0.24844141756814
C           49.34308459210723        4.99534289227156       -0.25777224480079
C           50.11406302963059        5.67755142848880        0.69162921687955
C           50.18685872755432        7.06917542205603        0.67305276562607
C           49.49455994424302        7.81203303483547       -0.30389081829043
C           49.57361491389726        9.30102912237661       -0.31364076604755
O           48.94005749207513       10.00030262670675       -1.32683544567365
O           50.18642892497346        9.89976224877269        0.56901172518805
C           48.73216558513180        7.12187020722878       -1.25791200164330
C           48.65634831576781        5.73091785851186       -1.23505189683824
C           48.11337845233741        2.88606906164104       -0.02290769876542
C           46.84527729853298        3.52838395257740        0.28138774762568
C           45.94454313919970        2.54792207735420        0.36072650041949
C           46.65972533351908        1.29547787827453        0.11572554988660
N           47.92637151923398        1.48389517442614       -0.10462911151662
N           50.75245925688979        1.42678810640675       -0.02100059798536
C           49.44289453821673       -4.88971485523499        0.25946604983690
C           48.92843239770387       -5.61434175565940        1.34395648893073
C           48.98960630935182       -7.00726368361998        1.35301674093047
C           49.56878830749733       -7.70624318178689        0.27476648925531
C           49.63325121092004       -9.19662872817000        0.29266509402766
O           50.20320732689355       -9.85486155595628       -0.78139695453896
O           49.18757387057790       -9.83258276765913        1.24654903220274
C           50.08220961968890       -6.97158176802915       -0.80613192238828
C           50.02193597753047       -5.57992194926087       -0.81326508668978
H           44.92525743927541       -2.71194855306666       -0.19617824288307
H           46.73622477252368       -4.50116625681120       -0.08925886421313
H           52.09945505443091       -4.37696218981031        1.02130146070566
H           53.95446685944445       -2.59010570542550        0.91324592910638
H           53.68163686743171        2.34449509517302       -1.29977882808687
H           51.74425392082502        4.25349192857840       -1.45166365247004