538
 energy: -1038.299195351001 gnorm: 0.000964702396 xtb: 6.5.1 (b24c23e)
C           92.81253819127257       -0.09408114355235        0.03756695456283
C           93.42800301059222       -1.30582014929322        0.32287336080039
C           92.78212279006050       -2.54623830328278        0.58744033950139
C           93.74854254638527       -3.48114972769938        0.82843132670325
C           95.01626765545713       -2.83846413875125        0.73075564246569
N           94.77237934844017       -1.53319381092240        0.41351083848905
C           96.28414813738671       -3.40883000607530        0.89567714512012
C           96.32497264802002       -4.84401190219855        1.25949926173465
C           96.96506885202517       -5.76491127589628        0.42394745890058
C           97.00096755631381       -7.10736173037836        0.75344227160044
C           96.39525881185727       -7.53372471431124        1.93212494909754
N           96.42918188041963       -8.94228873860385        2.28287913263087
O           96.99618250121202       -9.69127779612221        1.52916871534629
O           95.88696308951695       -9.27555175651436        3.30543393040884
C           95.75636219470032       -6.63319495561050        2.77979959552476
C           95.72187381862680       -5.29352267386944        2.43840065009837
C           97.49703211948989       -2.73058987496291        0.74470312119934
C           98.79735957156346       -3.32724109100386        0.99408088552408
C           99.71163671613859       -2.36718040463541        0.74572592401234
N           97.64260917256863       -1.42916478355119        0.37478873593523
C           98.96867168898032       -1.18478332437610        0.35422010405758
C           99.59886077723293        0.02417010606924       -0.00442784944918
C           98.95637234704574        1.22608871648353       -0.35823476831243
C           99.59451225749429        2.43290919470027       -0.74883658468875
C           98.62335736610608        3.36400421818476       -0.99260273275519
C           97.36120448014533        2.75504909840080       -0.74755222994494
N           97.61393340321005        1.46129222186686       -0.37735206023034
C           96.09420597731931        3.33464473347918       -0.88253662636430
C           96.05081670416151        4.76301085536483       -1.26900023764036
C           95.39873796034807        5.15666510964315       -2.44217977670663
C           95.35296123652061        6.48909331897273       -2.80872017589298
C           95.96083731063239        7.43925931958337       -1.99279547490237
N           95.91360001904309        8.84002681949575       -2.37131302823380
O           95.32862740900767        9.12458791705202       -3.38499473946377
O           96.46137728320288        9.63205735027022       -1.64774434288741
C           96.61340761716025        7.06926885902328       -0.82010982384141
C           96.65779395137687        5.73348227772880       -0.46529613697756
C           94.88055574119578        2.66760776260951       -0.67927645386033
C           93.57275820309633        3.30105144778752       -0.76011913264001
C           92.66591376134350        2.33807533937095       -0.50205279057257
C           93.41826748846151        1.12077183514452       -0.25261179095672
N           94.74902812307803        1.35996279559143       -0.35680969916777
H           91.72738037241443       -0.10790294094683        0.04401513546839
H           91.71391685882030       -2.69246038484244        0.58357265670172
H           93.60159621323376       -4.52665188726044        1.04543384612102
H           95.49450793348014       -0.83650121177840        0.26373952217095
H           97.42112430624265       -5.42246507702340       -0.49756371244907
H           97.48871598246436       -7.82876806568600        0.10896783333796
H           95.29747562507718       -6.98938019231697        3.69426813480821
H           95.24025219083698       -4.58113325835813        3.09808237148454
H           98.96615996326399       -4.33746209321704        1.32982465746132
H          100.78551944454500       -2.42557089268408        0.82069021138529
H          100.66129506922283        2.56109075870298       -0.83572905029008
H           98.76637481474361        4.37946847268362       -1.32398535161438
H           96.89484489944968        0.77983560307217       -0.15762771749369
H           94.94128493191771        4.40618996107480       -3.07618673422713
H           94.85549638371494        6.80217098382599       -3.71877673612356
H           97.07408311987395        7.82845035078797       -0.19953082047799
H           97.14912820437232        5.43569341044667        0.45369978448863
H           93.39750255802734        4.34375358437567       -0.97028696583614
H           91.59064482086237        2.41457314851723       -0.46768152128978
C          229.68679446521847        0.05983209210987       -0.06459048901287
C          229.07577689417911        1.24819097743474       -0.44271140546768
C          229.72604287571909        2.44246849086293       -0.86303983091940
C          228.76338374958354        3.37302913672348       -1.13398975207415
C          227.49374781995684        2.78020028364729       -0.87645393801850
N          227.73264170499124        1.49789382320007       -0.47336833400952
C          226.22842503757673        3.36075470733203       -1.02469176515015
C          226.19430597710402        4.77742002062707       -1.45583040969756
C          225.55312339714214        5.13786759713181       -2.64526389591093
C          225.52354027174258        6.45779405500664       -3.05644242559818
C          226.13674732252701        7.42830029627802       -2.26901722226320
N          226.10912818366884        8.81587309045695       -2.69581379808713
O          225.54090870738983        9.07123361369305       -3.72652899950220
O          226.65718814918685        9.62634868310331       -1.99330974525438
C          226.77716415486623        7.09146915765912       -1.07985793044577
C          226.80530726353726        5.76784114234340       -0.68034210426733
C          225.01282159640056        2.70955060810600       -0.79650548411943
C          223.71537530180126        3.35519770796572       -0.89076732260943
C          222.79733371378674        2.41136434006756       -0.59808261888459
N          224.86189829797792        1.40715870837947       -0.43218014390304
C          223.53518448193520        1.19502051052874       -0.31625904662514
C          222.90022935982938       -0.01788359837040        0.01952976665115
C          223.53763720976096       -1.23018461960894        0.34600651199780
C          222.89371945734061       -2.45818473934023        0.65209272154852
C          223.86103582498097       -3.38666216013644        0.91965113441024
C          225.12671359429942       -2.74914705752462        0.79487847995847
N          224.87958875603212       -1.45063577237834        0.43769706922404
C          226.39148249184649       -3.32421803475189        0.96526476896125
C          226.42824467197633       -4.74613467638894        1.37565181444313
C          227.05973760174462       -5.69688417300255        0.56708971902254
C          227.09609961673624       -7.02717776886709        0.94233838109116
C          226.49981934868151       -7.41154225389989        2.14017053764793
N          226.53557216121857       -8.80684477133316        2.53956453765981
O          227.09833244079593       -9.58190338707317        1.80928332820673
O          226.00048304666385       -9.10392741541590        3.57700018855290
C          225.86895117433752       -6.48104367363248        2.96121087096179
C          225.83361620716272       -5.15398736090256        2.57406185354005
C          227.60808521576300       -2.65831313193841        0.77686441595443
C          228.91435759143258       -3.25179234564390        1.02076253238865
C          229.82506455588103       -2.30132305418591        0.73174420375659
C          229.07671351053605       -1.12546630237688        0.32251266276529
N          227.74456666841152       -1.37417876003517        0.37242674318332
H          230.77197016819144        0.06779795445453       -0.07616959853934
H          230.79440573037243        2.55904593971715       -0.94948149208935
H          228.91394656586431        4.37901783166041       -1.49047462486561
H          227.00804494799215        0.82874433982303       -0.23572262782910
H          225.09116221788844        4.37125295889602       -3.25626336322264
H          225.03490758800393        6.74538007476616       -3.97959469469264
H          227.24214262138716        7.86618975444748       -0.48211340187317
H          227.28818554232964        5.49578687917219        0.25103431647181
H          223.55089885120748        4.39280917612587       -1.13174126630286
H          221.72401711064632        2.50560388207793       -0.56091577731095
H          221.82581251051727       -2.60492952344313        0.65748939323744
H          223.71296869536434       -4.42440476093591        1.16982399819528
H          225.60193388803978       -0.76047960719485        0.25979323954505
H          227.50795229836845       -5.38767692186482       -0.36988945281854
H          227.57707572481740       -7.77132168963457        0.31896591108823
H          225.41726554438580       -6.80459027432639        3.89126408837166
H          225.35871465707643       -4.41837203510573        3.21279378834448
H          229.08614243402306       -4.25376317973832        1.37947300328737
H          230.90067721197485       -2.35696484826666        0.78833528539905
C          101.00407707108836        0.04407721524268       -0.01624817169439
C          102.22872623537985        0.05798380580559       -0.02827435841968
C          103.57082334977719        0.06651282663580       -0.03853191456022
C          104.80170550307290        0.06963645409069       -0.04867291525819
C          106.13895836029700        0.07027792437575       -0.05751506387010
C          107.36993478571826        0.06701199730548       -0.06703959688735
C          108.71178663804527        0.06000527166337       -0.07272429792340
C          109.93676537296426        0.04887160597365       -0.07575107848806
C          119.60145601836849        0.02048592116844       -0.02171980715777
C          120.82648453391583        0.01901264081481       -0.00975999415827
C          122.16789420980736        0.01892104844409       -0.00211761458234
C          123.39899743212199        0.01622009544666        0.01018917744343
C          124.73571991922887        0.00916587440451        0.01148017443674
C          125.96686073619944        0.00591068535937        0.00862190468608
C          127.30828293420629        0.00176480253253        0.00434935146417
C          128.53329940054789       -0.01130485790815       -0.00161637581336
C          138.19253150792150       -0.11333520362407       -0.11467779320306
C          139.41754690894913       -0.12249966970465       -0.12387239394452
C          140.75886595592468       -0.12788588691396       -0.13421201317553
C          141.98997834706444       -0.12945097976346       -0.14170866563450
C          143.32662070919181       -0.12967477605220       -0.14703957692387
C          144.55773538461281       -0.12886453363377       -0.14929400436127
C          145.89910295911051       -0.12607210590411       -0.15040971118807
C          147.12417635728761       -0.12490504259727       -0.14774165415323
C          156.78305101452182       -0.14346102517476       -0.16214545765778
C          158.00809867869012       -0.14845324381272       -0.16646637052966
C          159.34943965799292       -0.14981553518363       -0.17200570693139
C          160.58056228912136       -0.14978266691084       -0.17500115475474
C          161.91720197315118       -0.14780961411044       -0.17663830863742
C          163.14831572835323       -0.14385803271401       -0.17683220922567
C          164.48964861302642       -0.13777349059863       -0.17408317732169
C          165.71469126749091       -0.13361627945428       -0.16748416754467
C          175.37359923014685       -0.11248294312735       -0.13753022356282
C          176.59867708440001       -0.11388268971993       -0.13866879292313
C          177.94004076079938       -0.11184628155205       -0.14111382223664
C          179.17116253616294       -0.10850422527271       -0.14274895545916
C          180.50781627678683       -0.10500711589202       -0.14197905491667
C          181.73893293663644       -0.09894229505308       -0.13987064451381
C          183.08026739773550       -0.09042194245636       -0.13468165964854
C          184.30530599898736       -0.08468580234693       -0.12621640477584
C          193.96502347142157       -0.00113185137800       -0.01571717576887
C          195.19005557725004        0.00214205162925       -0.00315967106447
C          196.53145466985291        0.00532256000818        0.00609595343813
C          197.76256598687706        0.00436712231435        0.01273483623970
C          199.09926365731897        0.00055076317165        0.01803640137422
C          200.33038677124949       -0.00574871507982        0.02059414356108
C          201.67181316127744       -0.01419774895042        0.02097624503736
C          202.89684442952952       -0.02627041253982        0.02115415767097
C          212.56203592843727       -0.09163890719848        0.03348081617076
C          213.78700258582643       -0.09314475035900        0.04017854181998
C          215.12895572748445       -0.09030093607166        0.04449377990449
C          216.35986298853672       -0.07906060790381        0.04782821750646
C          217.69722219373190       -0.07454789876770        0.04814407999420
C          218.92804791894704       -0.06213560377400        0.04481195888779
C          220.27021708403410       -0.05009884662922        0.03696461404860
C          221.49483448044703       -0.03378066983513        0.03051545090938
C          111.34099377776182        0.03952377491859       -0.07763132471891
C          111.97357642694308        1.04419477500332       -0.83563694947645
C          111.32967320441081        2.07184185287404       -1.57190031782489
C          112.29741749777047        2.82042955152032       -2.18408826753140
C          113.56093061656591        2.26392243333375       -1.84536239041321
N          113.31505660339640        1.20037848118186       -1.01986675168677
C          114.82445252393363        2.71577135089467       -2.24801780802429
C          114.84708376740903        3.86716035572926       -3.18063120229465
C          115.47719182180073        5.06016470688752       -2.81280232131628
C          115.50325639294239        6.13784361514217       -3.67892071788273
C          114.89765224851129        6.02071439178478       -4.92682356006467
N          114.92478771016998        7.14811574773608       -5.84185920443317
O          114.38143077606611        7.01369681294438       -6.90823223535060
O          115.48872478924376        8.14803085879968       -5.47801670753164
C          114.26645863215670        4.84176693166241       -5.31313773007616
C          114.24143127558116        3.77174112292362       -4.43735082484667
C          116.04758301186024        2.17477065515444       -1.84681069335620
C          117.33628101460177        2.63031803194629       -2.33813255195084
C          118.26854239689449        1.87746564929172       -1.71908930818152
N          116.21748965378394        1.14973401699011       -0.96756946780938
C          117.54776650907961        0.95781969900172       -0.86089309608086
C          118.19769823138199        0.01812596834119       -0.03554129899468
C          117.56501770216659       -0.93617171893004        0.78476169966587
C          118.20867259364098       -1.86799564994213        1.63929212657501
C          117.24104061265069       -2.62616362993968        2.23949340631239
C          115.97792422164751       -2.18381266879176        1.75977664441424
N          116.22401429069768       -1.15362195308642        0.89289717450946
C          114.71484305095903       -2.67702178833591        2.11120533006991
C          114.69518420737963       -3.82871014683899        3.04352995195307
C          115.31216263589280       -5.03336551280264        2.69199407078841
C          115.29826938381332       -6.11014626499559        3.55965571307061
C          114.66643810146218       -5.97988609461907        4.79308766607047
N          114.65475779360268       -7.10548264842106        5.71076456405204
O          114.09224325307183       -6.95908820322498        6.76545117085447
O          115.20932188374022       -8.11561858140400        5.36086102546578
C          114.04724677611588       -4.78928430940911        5.16289147936132
C          114.06226800230547       -3.72030777209738        4.28571977370035
C          113.49171785852424       -2.17648251937498        1.65988243123770
C          112.20385722967649       -2.75716122287354        1.99670948392351
C          111.27138596160032       -1.99794624564012        1.38566164133355
C          111.99123667750857       -0.96339618915835        0.66928832480361
N          113.32159090220252       -1.10301884090210        0.84074288360345
H          110.26246571618825        2.21620227684848       -1.61801062529975
H          112.15010164391454        3.68776502243889       -2.80650917199186
H          114.03383660443518        0.61812282678686       -0.60318544157849
H          115.93454637950612        5.14251684307589       -1.83379392463028
H          115.98429854062420        7.06779064420031       -3.40058723780143
H          113.80673749353176        4.77444814354961       -6.29181821467630
H          113.76571654030693        2.84378228125063       -4.73267848353326
H          117.48592619642241        3.40870102162115       -3.06847692236266
H          119.34104687425192        1.91451429246522       -1.82217417947676
H          119.27551871679036       -1.93897104630711        1.77599312373113
H          117.38827858543578       -3.41471827726832        2.95910587152391
H          115.50553522858587       -0.62732743559820        0.40702194200071
H          115.78936699316449       -5.12701855257808        1.72341780971214
H          115.76830096139462       -7.04921504903091        3.29336314925875
H          113.56545881182382       -4.71248749722550        6.13018300362974
H          113.59531721057634       -2.78373839738579        4.56714798663548
H          112.05515913182636       -3.63462436730576        2.60469714960147
H          110.19927271282167       -2.11070798480526        1.39552999279871
C          129.93703977258244       -0.02271891317613       -0.01498469670974
C          130.56317312593598        0.97484369101410       -0.78775548108066
C          129.91286828332079        2.00413314441339       -1.51605737412956
C          130.87481399101924        2.74924432259918       -2.14139717328768
C          132.14070834636360        2.18763117944143       -1.82057003943540
N          131.90234022003571        1.12553952306001       -0.99086098052801
C          133.40034313091010        2.63207122238772       -2.24283453642792
C          133.41485257815651        3.78716642313401       -3.17099122569357
C          134.05843538857096        4.97442665422885       -2.80803843444993
C          134.07229599910897        6.05788990123243       -3.66722101788906
C          133.44106113321953        5.95222532968461       -4.90336473509899
N          133.45306325079605        7.08668764250358       -5.81011429996222
O          132.88894123538475        6.96160803589987       -6.86673032050815
O          134.02561366843952        8.08273069077490       -5.44920839238292
C          132.79785210184858        4.77845490856550       -5.28552242464000
C          132.78525501313612        3.70255976029347       -4.41667010718035
C          134.62567839981625        2.07974718662351       -1.86449972346716
C          135.90900569408120        2.52352242070185       -2.37972116608812
C          136.84531194402825        1.75859800764920       -1.78190675128606
N          134.80211841387458        1.05093749352158       -0.99092709188878
C          136.13213123097870        0.84468406884208       -0.91124446008658
C          136.78887049037414       -0.10173449389377       -0.09900279746856
C          136.16445075951401       -1.04567427177541        0.73954872151453
C          136.81743580276287       -1.97904697207666        1.58533115737724
C          135.85566518338183       -2.71981188052569        2.21600851806098
C          134.58674943049235       -2.26549600867963        1.76385940884444
N          134.82399999287813       -1.24611493251874        0.88182206194443
C          133.32631801859003       -2.73880865326613        2.15044382079290
C          133.31176055970872       -3.87720957527361        3.09904347329989
C          133.90286622331737       -5.09597161359838        2.75203345236543
C          133.88903202640003       -6.16071771151767        3.63452070101731
C          133.28363360080763       -6.00402255344550        4.87807418088304
N          133.27009245502677       -7.11772867032719        5.81019737706732
O          132.72915196461071       -6.94877602833833        6.87274030432039
O          133.80150338325234       -8.14125874189386        5.46335427851197
C          132.69148658870881       -4.79857434783814        5.24403634769327
C          132.70609764178920       -3.74185704362984        4.35218904004535
C          132.09963614129674       -2.23060119949978        1.71804149786270
C          130.81306610132123       -2.79528342794501        2.08567664546965
C          129.87649189943963       -2.03805360203444        1.47852785815250
C          130.59236924174169       -1.01937042504364        0.73584789378935
N          131.92408618987093       -1.16678694817762        0.88741157250861
H          128.84572302677472        2.15282254578140       -1.54709411716182
H          130.72191782457662        3.61721834024194       -2.76154301331023
H          132.62495092002524        0.54092150686583       -0.58420672334362
H          134.53535736000165        5.04806169203291       -1.83770754868656
H          134.56282468791937        6.98383400051729       -3.39211386085484
H          132.31851908875973        4.71990318203196       -6.25531887425728
H          132.29980070181549        2.77869356611705       -4.70894566071305
H          136.05203623336172        3.30268723436567       -3.11057127652657
H          137.91586203177275        1.78456940536732       -1.90640601212919
H          137.88638180752608       -2.06246756210656        1.69615385339358
H          136.01084265479068       -3.50435357642581        2.93833940123052
H          134.09991911141279       -0.71485322640148        0.40983336185630
H          134.35872840654096       -5.21049550460089        1.77546067990433
H          134.33831516134703       -7.11087728960160        3.37177104091014
H          132.23014204590569       -4.70114402116005        6.21940351051646
H          132.25948320317099       -2.79425584630682        4.62968642786929
H          130.66771508496589       -3.66238798972947        2.70912895475711
H          128.80383096419018       -2.14185031856347        1.50800692487571
C          148.52797178233371       -0.12130046008729       -0.14497934335804
C          149.15264928148559        0.88327167017669       -0.90971876456687
C          148.50028324475323        1.90726400993132       -1.64366851502931
C          149.46190259247453        2.66669730598647       -2.25203465306278
C          150.72983125955821        2.11881542463777       -1.91578304519296
N          150.49254643316695        1.05027793060996       -1.09400716870611
C          151.99011716454976        2.57871418740490       -2.31881850286007
C          152.00610608426197        3.74264894993977       -3.23580089405909
C          152.63536281884959        4.93105856377721       -2.85188768019975
C          152.65084210141353        6.02411152892919       -3.69873230535167
C          152.03591659852833        5.92695560340851       -4.94376571741568
N          152.04972510851599        7.07155496364004       -5.83768438855632
O          151.50179252682238        6.95294291216726       -6.90351585865267
O          152.60703979076320        8.06905130040928       -5.45747115295169
C          151.40756259292417        4.75216615795218       -5.34690422859851
C          151.39303567330799        3.66654908911278       -4.49018216640597
C          153.21591531765242        2.03417893652010       -1.93048397800227
C          154.50044169311764        2.48920498195854       -2.43270954683315
C          155.43682035039188        1.72673201946399       -1.83188371844210
N          153.39198344561683        1.00267148189582       -1.06014113556769
C          154.72270720166023        0.80480659888376       -0.97048390262226
C          155.37930002292950       -0.13773436750818       -0.15370605022657
C          154.75491023611491       -1.08128690340567        0.68534484824186
C          155.40773043165936       -2.00263284271195        1.54431126505328
C          154.44620611048032       -2.74387987158451        2.17483049999648
C          153.17781234592650       -2.30311994963482        1.70812633092306
N          153.41486069729882       -1.29010361874899        0.81872485309004
C          151.91745309747583       -2.78322577252096        2.08645609046277
C          151.90148466278765       -3.90854277841815        3.05046267222941
C          152.50805431634561       -5.12682371916852        2.72959832444868
C          152.49326326972133       -6.17786421402069        3.62840809213379
C          151.87113368260262       -6.00779477398126        4.86190082573107
N          151.85681977071494       -7.10687545122967        5.81122449435645
O          151.30164772766176       -6.92645113552572        6.86449994904878
O          152.40245526688483       -8.13037005112338        5.48714049978949
C          151.26282296078321       -4.80271820351269        5.20164464006776
C          151.27858964485819       -3.75989477328838        4.29367047260560
C          150.69141399500242       -2.29228225754994        1.63285593344537
C          149.40640092362065       -2.86878858085846        1.98730856242095
C          148.46991878574988       -2.12858585578347        1.35940441752440
C          149.18441130467505       -1.10729591736001        0.61889436271743
N          150.51543463312376       -1.23795588091447        0.79030825586060
H          147.43195534353393        2.04320547236510       -1.68922751977785
H          149.30721491696144        3.53538874429871       -2.87072331352718
H          151.21647933556304        0.47328627836458       -0.67887374626286
H          153.09978960815019        4.99761155951473       -1.87499953578739
H          153.13020576015344        6.95090874088471       -3.40730594369685
H          150.94102598103552        4.70043388844182       -6.32330816885476
H          150.91928197477571        2.74196867590920       -4.79891211077816
H          154.64411986544766        3.27300949718497       -3.15846008666005
H          156.50812790162558        1.76011681462700       -1.94775889800401
H          156.47632105791317       -2.07742904814107        1.66432469314162
H          154.60127638640466       -3.52034407059856        2.90584967685160
H          152.69069242989428       -0.76818975042729        0.33652273024185
H          152.97683902349920       -5.25223111581911        1.76051659373959
H          152.95469212269285       -7.12762389833438        3.38604980485271
H          150.78832204538642       -4.69469699790701        6.16955549317463
H          150.81933549782210       -2.81253945381233        4.55064259619739
H          149.26241454639020       -3.73205821376570        2.61638535938173
H          147.39826765930570       -2.24512758035436        1.37414892558447
C          167.11843519130363       -0.12530589091497       -0.15954467050751
C          167.74243580631543        0.88008769718904       -0.92372868177717
C          167.08918216438784        1.89933073585540       -1.66351401736868
C          168.05042974599399        2.66154780160114       -2.26895552110808
C          169.31910847848727        2.12031430143479       -1.92481825003984
N          169.08246545161469        1.05258839931676       -1.10177910246894
C          170.57933726206036        2.58542172101696       -2.32186903391184
C          170.59494946865888        3.74751606866904       -3.24120065041233
C          171.21631699498300        4.93971453868380       -2.85618132690895
C          171.23211161612193        6.03082622069917       -3.70551454207119
C          170.62529409116991        5.92796331164263       -4.95406203005247
N          170.63965474093371        7.07044198689269       -5.85068279476002
O          170.09616886491935        6.94786209754267       -6.91833944352192
O          171.19366309381275        8.06999842983311       -5.47105517975359
C          170.00457979555478        4.74946083805631       -5.35819062660654
C          169.98976340110744        3.66576023654355       -4.49904194265761
C          171.80562621590246        2.04759719086263       -1.92570102684088
C          173.09063618448721        2.50796743455781       -2.42176482493390
C          174.02739984246205        1.75078778149156       -1.81488031003650
N          171.98193238673412        1.01834599778331       -1.05276762401893
C          173.31310155782907        0.82676007951414       -0.95591131917616
C          173.96979505044490       -0.11188070044327       -0.13474919445524
C          173.34534731452518       -1.05667823669554        0.70288294945618
C          173.99789266488554       -1.97370085479171        1.56664296283088
C          173.03649572580957       -2.71837862795797        2.19332531584122