124
 energy: -205.665416552049 gnorm: 0.933857667030 xtb: 6.5.1 (b24c23e)
Zn          11.28909400000000        0.03002600000000       -0.00221600000000
C            7.95455000000000       -0.09613900000000       -0.04387500000000
C            8.61544200000000       -1.25753800000000       -0.04310700000000
C            7.96355700000000       -2.56022000000000        0.00728900000000
C            8.90225100000000       -3.48710900000000       -0.04756600000000
C           10.20713600000000       -2.81910200000000       -0.14681900000000
N           10.03153800000000       -1.40171500000000       -0.13244100000000
C           11.39757400000000       -3.44530700000000       -0.26168200000000
C           11.44881700000000       -4.92595600000000       -0.31096100000000
C           10.97811500000000       -5.58661000000000       -1.37977500000000
C           10.96725500000000       -7.09225000000000       -1.45396700000000
N           11.77091600000000       -7.70971300000000       -0.39584100000000
C           12.21766900000000       -6.98143000000000        0.75248700000000
C           12.06848600000000       -5.66008000000000        0.80911800000000
C           12.68796500000000       -2.71076300000000       -0.33886900000000
C           13.96824500000000       -3.34029600000000       -0.68634400000000
C           14.90275000000000       -2.41282800000000       -0.62606600000000
N           12.83373500000000       -1.44765700000000       -0.07962000000000
C           14.22675100000000       -1.18062600000000       -0.24025500000000
C           14.82276200000000       -0.00094800000000       -0.00066300000000
C           14.05873900000000        1.20833300000000        0.37467600000000
C           14.58287200000000        2.26993900000000        0.97460600000000
C           13.54076300000000        3.27579000000000        1.05793300000000
C           12.45083200000000        2.76205200000000        0.49818000000000
N           12.68897800000000        1.43020800000000        0.04061700000000
C           11.17970700000000        3.50281000000000        0.29756600000000
C           11.21892700000000        4.98670500000000        0.30289700000000
C           10.54226000000000        5.68514300000000        1.22991100000000
C           10.51783100000000        7.19220000000000        1.24118900000000
N           11.52462000000000        7.77532400000000        0.35059900000000
C           12.20090300000000        7.00693300000000       -0.65045800000000
C           12.06234300000000        5.68360500000000       -0.68835000000000
C           10.01836300000000        2.85441500000000        0.08401400000000
C            8.71692400000000        3.46740700000000       -0.17745000000000
C            7.85361700000000        2.47315500000000       -0.26184200000000
C            8.59551700000000        1.22822100000000       -0.06974300000000
N            9.85752900000000        1.43829700000000        0.13252800000000
H            6.87132400000000       -0.12113000000000       -0.02906100000000
H            6.90066100000000       -2.75124900000000        0.08041500000000
H            8.71292000000000       -4.55185200000000       -0.02476300000000
H           10.53108700000000       -5.03653500000000       -2.20001500000000
H           11.36455700000000       -7.40833900000000       -2.44222300000000
H            9.91873700000000       -7.44628600000000       -1.36536800000000
H           11.92173100000000       -8.74260600000000       -0.42259700000000
H           12.69941200000000       -7.50623900000000        1.56801400000000
H           12.42768300000000       -5.11805800000000        1.67616300000000
H           14.13564700000000       -4.37691600000000       -0.94848800000000
H           15.95389800000000       -2.56788800000000       -0.82739800000000
H           15.60430200000000        2.38346000000000        1.31291000000000
H           13.64475200000000        4.27101700000000        1.47107700000000
H            9.94265000000000        5.16305600000000        1.96655700000000
H           10.70278100000000        7.54558600000000        2.27728200000000
H            9.51017100000000        7.53574900000000        0.92568100000000
H           11.66729800000000        8.80912800000000        0.36675900000000
H           12.84172100000000        7.50407100000000       -1.36798100000000
H           12.59077300000000        5.11295900000000       -1.44262700000000
H            8.47877500000000        4.51726800000000       -0.28511800000000
H            6.79119300000000        2.57555700000000       -0.44336700000000
Zn          30.00928800000000       -0.03086700000000       -0.00882900000000
C           33.34383100000000        0.10130000000000       -0.02243600000000
C           32.68294000000000        1.23546600000000        0.22759600000000
C           33.33482400000000        2.49696900000000        0.55642600000000
C           32.39613000000000        3.41403000000000        0.70179700000000
C           31.09124500000000        2.78289500000000        0.46147600000000
N           31.26684400000000        1.39545700000000        0.17129100000000
C           29.90080800000000        3.41916000000000        0.48369900000000
C           29.84956499999999        4.87587700000000        0.75337500000000
C           30.32026700000000        5.75054400000000       -0.14872600000000
C           30.33112700000000        7.23701600000000        0.10198200000000
N           29.52746600000000        7.61297200000000        1.26797900000000
C           29.08071199999999        6.65518600000000        2.23322500000000
C           29.22989500000000        5.35247700000000        2.00492100000000
C           28.61041700000000        2.71830300000000        0.25064800000000
C           27.33013600000000        3.40774600000000        0.04639500000000
C           26.39563200000000        2.48895600000000       -0.09380400000000
N           28.46464700000000        1.42899100000000        0.23274200000000
C           27.07163100000000        1.20266200000000        0.01853500000000
C           26.47562000000000       -0.00094800000000       -0.00066300000000
C           27.23964300000000       -1.26260700000000        0.10636800000000
C           26.71551000000000       -2.42823900000000        0.46445200000000
C           27.75761900000000       -3.42853200000000        0.32994200000000
C           28.84755000000000       -2.80662200000000       -0.10649700000000
N           28.60940300000000       -1.40760800000000       -0.26752800000000
C           30.11867500000000       -3.48705600000000       -0.46143200000000
C           30.07945400000000       -4.93751100000000       -0.77472800000000
C           30.75612100000000       -5.81864500000000       -0.01923200000000
C           30.78055000000000       -7.29299700000000       -0.33169200000000
N           29.77376200000000       -7.67137500000000       -1.32668700000000
C           29.09747900000000       -6.70602600000000       -2.13948500000000
C           29.23603900000000       -5.40540700000000       -1.89245500000000
C           31.28001900000000       -2.80793600000000       -0.53083500000000
C           32.58145700000000       -3.35052100000000       -0.91777800000000
C           33.44476400000000       -2.36132800000000       -0.78679600000000
C           32.70286500000000       -1.18664100000000       -0.33196200000000
N           31.44085200000000       -1.43523700000000       -0.17949600000000
H           34.42705800000000        0.12252900000000       -0.00260300000000
H           34.39772100000000        2.66785000000000        0.66885000000000
H           32.58546200000000        4.44906300000000        0.95260500000000
H           30.76729500000000        5.38934500000000       -1.06791600000000
H           29.93382500000000        7.75785700000000       -0.79539600000000
H           31.37964500000000        7.56378400000000        0.26450700000000
H           29.37665100000000        8.62753500000000        1.46354700000000
H           28.59896900000000        6.99271900000000        3.14238900000000
H           28.87069899999999        4.63698500000000        2.73541800000000
H           27.16273500000000        4.47647200000000        0.01286000000000
H           25.34448400000000        2.68361600000000       -0.25716200000000
H           25.69408000000000       -2.61172800000000        0.77050600000000
H           27.65363000000000       -4.48924100000000        0.51984000000000
H           31.35573200000000       -5.46683900000000        0.81230600000000
H           30.59560000000000       -7.86053500000000        0.60440200000000
H           31.78821000000000       -7.56081900000000       -0.71358600000000
H           29.63108400000000       -8.68455300000000       -1.53279900000000
H           28.45666100000000       -7.03756800000000       -2.94699100000000
H           28.70760900000000       -4.68616200000000       -2.50666900000000
H           32.81960700000000       -4.35280300000000       -1.24827900000000
H           34.50718900000000       -2.42238100000000       -0.98607000000000
C           16.15275000000000        0.01374200000000        0.00961300000000
C           17.61097600000000       -0.00809400000000       -0.00826000000000
C           18.74490399999999       -0.02884800000000       -0.00975100000000
C           20.10628600000000       -0.04143800000000       -0.01194200000000
C           21.38050500000000       -0.03113100000000       -0.01670700000000
C           22.56896700000000       -0.01233300000000       -0.02286400000000
C           23.92132800000000        0.01245100000000       -0.00699600000000
C           25.02159500000000        0.01374200000000        0.00961300000000
124
 energy: -205.874858067600 gnorm: 0.353726007436 xtb: 6.5.1 (b24c23e)
Zn          11.29306332795208        0.02680759005314       -0.00220417233471
C            7.95438897508367       -0.07858107989561       -0.04465120483697
C            8.61991844724349       -1.25916273150627       -0.04317908976153
C            7.96304879636582       -2.55372112529332        0.00713139892782
C            8.91256877123505       -3.48968077323357       -0.04858555831069
C           10.20573572249973       -2.81479874609885       -0.14620478583353
N           10.00945602610391       -1.42355911684568       -0.12925719899340
C           11.41445204233653       -3.44209199009936       -0.26079688205513
C           11.45567574730325       -4.92441524683702       -0.31018984398994
C           10.97833091869698       -5.58767200625509       -1.37275469367242
C           10.96975036176358       -7.09452467726693       -1.44942309672865
N           11.77911156421563       -7.70730254022518       -0.38627285243869
C           12.21150545337424       -6.98636142748584        0.73909604889825
C           12.06732412995176       -5.65522894655899        0.80378755759737
C           12.68169005145698       -2.73277257764775       -0.33914731998975
C           13.95278299095060       -3.35615515057462       -0.68537070419269
C           14.89832341443111       -2.40855578033711       -0.62456223731747
N           12.84772210358306       -1.44819104091813       -0.08806671976866
C           14.21993185402127       -1.19294916173740       -0.24443172531930
C           14.83046023377537        0.01256153671762        0.00713095172960
C           14.04911104180246        1.20782345643408        0.36476953804858
C           14.58481264692473        2.29463474134638        0.98137822423064
C           13.56276380552426        3.28023597076789        1.06090746554395
C           12.44390137513810        2.75377405066096        0.48613886132393
N           12.69666991446488        1.43507649882892        0.04980404311772
C           11.19556628888989        3.49370151294635        0.29398174745389
C           11.22840329023891        4.98051023473405        0.30413280382706
C           10.54445084368198        5.68362335083179        1.22181525250531
C           10.52184748335014        7.19309572804880        1.23718432266879
N           11.53448427781661        7.77213316892776        0.34291094230928
C           12.19133263426981        7.01150895341601       -0.63879558761435
C           12.05979326683119        5.67788349076558       -0.68321259397259
C           10.01683717920147        2.85443473269766        0.08270717833066
C            8.72368362339678        3.46637395474737       -0.17536481650879
C            7.84210542908595        2.46206822865149       -0.26156021989995
C            8.57385624983176        1.22152040258211       -0.06898906138990
N            9.85346072968582        1.45165413377673        0.12690282111050
H            6.87128368980346       -0.11427642601534       -0.03030310572220
H            6.90073103232064       -2.74204172674204        0.08033411913109
H            8.72461942059013       -4.55333809264759       -0.02540325048415
H           10.53290368648216       -5.04224643635179       -2.19981197574352
H           11.36211970091941       -7.41024780301259       -2.43566396064857
H            9.92197870923882       -7.44837712062701       -1.36858863170878
H           11.91851411067213       -8.72322772381268       -0.41884319693346
H           12.69501628283296       -7.51591329674768        1.55572799980562
H           12.42557399619855       -5.11581294947086        1.67286915793362
H           14.12616398844707       -4.38503920928848       -0.94842463816114
H           15.95126857353907       -2.55692914011504       -0.82485942979334
H           15.60489439025782        2.39012296453947        1.31705076099861
H           13.65144558068439        4.27177504196291        1.47437832600246
H            9.94441944652489        5.16846235509392        1.96630875446910
H           10.70173395046393        7.54727866574164        2.27049648792675
H            9.51328629967193        7.53733977402594        0.92925086877859
H           11.66486523073358        8.78949266544387        0.36340820709989
H           12.83470508781076        7.51365843262246       -1.35687223281122
H           12.58838506371425        5.11056772310301       -1.43979184948784
H            8.48954377359506        4.51636810435300       -0.28365984124707
H            6.78564094539574        2.56782904732280       -0.44387999182243
Zn          30.00653219976587       -0.02784911695732       -0.00811083934283
C           33.34396376143389        0.08434345976134       -0.02696456820122
C           32.67842340151604        1.23684840816277        0.22778696832940
C           33.33528723577212        2.49077117871810        0.55488405405231
C           32.38607036718788        3.41677584034902        0.70128473230196
C           31.09242344318688        2.77861231769395        0.46109732543057
N           31.28881618572990        1.41609414409510        0.17922464668405
C           29.88477492390408        3.41622196373903        0.48417725771407
C           29.84273398532960        4.87445618593079        0.75385202958421
C           30.31998759626606        5.75017804909974       -0.14166444194163
C           30.32867220610827        7.23831280970524        0.10691399996632
N           29.51925110810458        7.60858585307973        1.27679583248905
C           29.08683868074944        6.66292452615113        2.22124384643299
C           29.23101383322429        5.34896652486738        1.99868228695812
C           28.61789953968103        2.73928092934000        0.25517170230833
C           27.34368230560571        3.42199098680012        0.05021268114130
C           26.39979177170463        2.48447432975161       -0.09245779136270
N           28.45704475049208        1.43428726503114        0.22388488921576
C           27.08431911800608        1.21163136387036        0.01744776982379
C           26.50738288469328       -0.01269510419748        0.00374184378278
C           27.25292944496426       -1.25749765864459        0.09672589267743
C           26.71323731323723       -2.45358406494676        0.46465169722225
C           27.73461279189544       -3.43306278175242        0.33217999888926
C           28.85481190786426       -2.79586171242889       -0.11643489286476
N           28.60459421109817       -1.41544111622388       -0.25915739729544
C           30.10283212700587       -3.47746872673583       -0.46304278623133
C           30.06994416466678       -4.93182528228252       -0.77216247541960
C           30.75388721331046       -5.81545182060042       -0.02678875036034
C           30.77655982360931       -7.29302853733098       -0.33580434198710
N           29.76389215633579       -7.66661770276136       -1.33350509640438
C           29.10704153396425       -6.71301031117788       -2.12909576604097
C           29.23858785757545       -5.40094862480670       -1.88621374273410
C           31.28146264908511       -2.80765973628029       -0.53212382226696
C           32.57476710772333       -3.34996365838549       -0.91547978607510
C           33.45628720059445       -2.35060105904130       -0.78410715246360
C           32.72461744993315       -1.18013201420323       -0.32969269433050
N           31.44495647200284       -1.44713080986515       -0.18805771051880
H           34.42708633702495        0.11611717538184       -0.00530260234012
H           34.39763967656379        2.65891323237966        0.66681341869545
H           32.57386412401802        4.45066926627534        0.95230720187130
H           30.76548582131393        5.39488542024067       -1.06646220867340
H           29.93626644206298        7.75833067220008       -0.78858149610791
H           31.37642432110150        7.56655978133868        0.26182031222021
H           29.37987727956295        8.60781681466279        1.46306267157449
H           28.60335352297881        7.00484534961506        3.13250251168560
H           28.87283386937051        4.63552659475806        2.73174302479364
H           27.17156115958776        4.48392777514576        0.01461301587368
H           25.34713270028307        2.67267931870964       -0.25701126473407
H           25.69356451588742       -2.61905260749219        0.77304960702049
H           27.64659308102345       -4.49048513402687        0.52302992519747
H           31.35396355906152       -5.47206660017472        0.81088969015712
H           30.59664931982300       -7.86073740596475        0.59740983549710
H           31.78510981410977       -7.56316210318433       -0.71044928381430
H           29.63351846209262       -8.66466075018548       -1.53186160432101
H           28.46366576416878       -7.04932908324033       -2.93820879748725
H           28.71000757554241       -4.68444373737140       -2.50339764003306
H           32.80885638698765       -4.35224259124949       -1.24666200457620
H           34.51274702860305       -2.41474912803343       -0.98491873708868
C           16.19101330070161        0.02717793078148        0.00993143255910
C           17.51250916778001       -0.00550413756492       -0.00786260332308
C           18.78041821613347       -0.02920830093675       -0.00915290271578
C           20.06258954937418       -0.04190607112074       -0.01222719537979
C           21.34579001758085       -0.03081208002812       -0.01646879593045
C           22.56979595156657       -0.00982045940204       -0.02350564488956
C           23.88330403567986        0.00654932378226       -0.00913441607926
C           25.10448430431214       -0.00173723031582        0.01026278090940
124
 energy: -205.941013497357 gnorm: 0.164052825175 xtb: 6.5.1 (b24c23e)
Zn          11.30104378680839        0.02182116417203       -0.00401620861517
C            7.95546031109544       -0.05996083290270       -0.04539362190180
C            8.62282772211076       -1.26207585822537       -0.04175867314647
C            7.96458137499097       -2.54763719051732        0.00660873739622
C            8.92471451598225       -3.49126226612859       -0.04984090143829
C           10.20364602679204       -2.81073015468319       -0.14354998635991
N            9.98331822012237       -1.44892318098686       -0.12437080312573
C           11.43443223554859       -3.43474207838135       -0.25870363214891
C           11.46554837767521       -4.91997896405629       -0.30975248541423
C           10.97798985880882       -5.58776533226535       -1.36448809302357
C           10.97158600268820       -7.09458015296661       -1.44340605231056
N           11.78692170880120       -7.69805443235315       -0.37720333291269
C           12.20413038572076       -6.98749650896843        0.72161291843756
C           12.06821749145099       -5.64884902178212        0.79738561142496
C           12.67784082584649       -2.75359234750797       -0.33908445623235
C           13.93868457348279       -3.37114601526680       -0.68039895179104
C           14.89017429625080       -2.40652672818567       -0.62168865886489
N           12.86794868292684       -1.44434901119482       -0.10407062328247
C           14.21953028177862       -1.19649102047799       -0.24729207761783
C           14.84326851223297        0.02755016306798        0.01875471682401
C           14.05104278495976        1.20714300052790        0.35331702451685
C           14.59120324110085        2.32668646348264        0.98236660537407
C           13.59363529640915        3.28554935519215        1.05639520312891
C           12.44604239800986        2.74497744085334        0.47125938738618
N           12.71519386681722        1.43934151794012        0.06705384507021
C           11.22021776356885        3.47630731219768        0.28815896044916
C           11.24597658333030        4.96733521892666        0.30874697877081
C           10.54850760743437        5.67763715591277        1.21204836920016
C           10.52600713287897        7.18886973832869        1.23102627413125
N           11.54397452802496        7.76068825137837        0.33586344082697
C           12.17946971140161        7.01089395230885       -0.62323585555120
C           12.06062587730997        5.66884581551594       -0.67578311625502
C           10.01556509967607        2.84861839125974        0.07754765578548
C            8.73068793326513        3.45969771478513       -0.17206269257521
C            7.83026562849751        2.45217933458535       -0.25741815216186
C            8.54863183033841        1.21554635731051       -0.06811262278823
N            9.84915640914911        1.46565612697458        0.11471384921827
H            6.87193756237184       -0.10470775629304       -0.03521717494799
H            6.90195952393658       -2.72746140040133        0.07980291012632
H            8.74559909627491       -4.55533570530875       -0.02667858472553
H           10.53588450810170       -5.05257629829295       -2.20021314446194
H           11.36154114463324       -7.41483856675904       -2.42422746853352
H            9.92765507622413       -7.45513243804399       -1.37035257949103
H           11.91366577969748       -8.69918752003765       -0.41205973823152
H           12.68656639163676       -7.53095774337851        1.53256665292134
H           12.42309830603739       -5.11284073003306        1.66836637093684
H           14.11124030876617       -4.39798832234407       -0.94638470652613
H           15.94411285660297       -2.54257729746470       -0.82123350584487
H           15.60858942292650        2.40343687321531        1.32452705408846
H           13.66218466755222        4.27381317501227        1.47839251586782
H            9.94781576255186        5.17665631704574        1.96612150650177
H           10.70355064480358        7.54953558146730        2.25856205816401
H            9.51978636301719        7.54138799039649        0.93134993175382
H           11.66117448443541        8.76378431847455        0.35713882224600
H           12.82078745024807        7.52782961342269       -1.33614150393555
H           12.58647488877999        5.10682742296533       -1.43632251989161
H            8.50834887012251        4.51174349275104       -0.28110878816262
H            6.77615813023065        2.55781717341015       -0.44329376015825
Zn          30.00034269789090       -0.02246731056451       -0.00870990291616
C           33.34307567731439        0.06633856731956       -0.03166631794279
C           32.67589231304069        1.23950663790350        0.22986453232707
C           33.33433030676878        2.48496728719222        0.55311034465937
C           32.37481237028580        3.41880284906992        0.70054863415944
C           31.09560516443814        2.77479776703899        0.46289672175149
N           31.31546758358548        1.44027389552101        0.18940021082547
C           29.86722274598865        3.41125927206790        0.48502878546414
C           29.83415166451205        4.87144499855060        0.75389773183784
C           30.32072599760308        5.74932273841800       -0.13364009981181
C           30.32684858114900        7.23760675567524        0.11274211778854
N           29.51142099647454        7.59783731283180        1.28370749112069
C           29.09412385979364        6.66809754534571        2.20452700067420
C           29.23030513926683        5.34453424542393        1.99125325534705
C           28.62525406555532        2.76458250157890        0.25980384186786
C           27.35976451547468        3.43831100143305        0.05871412550207
C           26.41176411678764        2.48322099871932       -0.09021439571766
N           28.44469601468765        1.43966278093142        0.20684442497081
C           27.09502271981506        1.22235650858353        0.01358323521153
C           26.51293791402642       -0.03188519765519        0.01128146076460
C           27.25970456450621       -1.25852445055269        0.08690516312020
C           26.71013322426997       -2.48570098770895        0.45875860646628
C           27.70503278512383       -3.43858878790780        0.32601494589260
C           28.85519094844071       -2.78695885405645       -0.12888082624557
N           28.59274063421489       -1.42737693537432       -0.24285575101186
C           30.07977811423882       -3.46076253499171       -0.46506372712348
C           30.05305954991863       -4.92072038865687       -0.76517768465791
C           30.75009361046070       -5.80800718984464       -0.03501588179229
C           30.77244309510004       -7.28789237859982       -0.34089586990082
N           29.75439460193328       -7.65404917041344       -1.33794918351831
C           29.11886016832467       -6.71589959757318       -2.11380302414803
C           29.23785724770613       -5.39392116701486       -1.87708359335364
C           31.28340143744160       -2.80134112459383       -0.53593657287581
C           32.56825534461549       -3.34425497361486       -0.91095927973362
C           33.46841852696337       -2.34185034831665       -0.77799485915585
C           32.75005672406009       -1.17456635004691       -0.32761087085268
N           31.44958718578426       -1.45845633596533       -0.20296295517112
H           34.42657042598483        0.10779723402140       -0.01215465499579
H           34.39688477875553        2.64467787381639        0.66317505491859
H           32.55339431462070        4.45310226196212        0.95156769650550
H           30.76264188980485        5.40534858022862       -1.06463008022381
H           29.93679699666931        7.76065488832073       -0.77652087919616
H           31.37080444683292        7.57379480623531        0.26152824105296
H           29.38468253046160        8.58306301996097        1.46458013602170
H           28.61169086843167        7.02469959661162        3.11320983369451
H           28.87541757215154        4.63372746163254        2.72664068862519
H           27.18667092070998        4.49790608016397        0.01966563265201
H           25.35683408594464        2.65622356529579       -0.25616931544884
H           25.69191545767508       -2.63208360566819        0.77681191493732
H           27.63575208117715       -4.49408329466433        0.52627609343969
H           31.35065997671642       -5.48022418172731        0.80897056851114
H           30.59482951968767       -7.86054725284979        0.58532158026971
H           31.77866069295835       -7.56771715373213       -0.70927133744619
H           29.63718048387641       -8.63830042270488       -1.53249386257173
H           28.47753171981264       -7.06769920110296       -2.92103690444053
H           28.71201253468459       -4.68159476443468       -2.49914884137769
H           32.79036920103102       -4.34837610312195       -1.24325229443751
H           34.52247105440335       -2.40504977860271       -0.98220529821293
C           16.24952932082102        0.04400191182031        0.01251665052125
C           17.43826769855702        0.00234426426280       -0.00524885468145
C           18.77017496947141       -0.02558954914514       -0.00880311387200
C           20.00012343202704       -0.03993871954420       -0.01307648384011
C           21.32272101942644       -0.02876499150708       -0.01529422483464
C           22.56901482112751       -0.00622163681627       -0.02388387053257
C           23.88764877250760       -0.00830971031030       -0.01219115893556
C           25.12322608387259       -0.03480231622702        0.01363732195672
124
 energy: -205.961532893181 gnorm: 0.079532593725 xtb: 6.5.1 (b24c23e)
Zn          11.30441547265586        0.01784229834639       -0.00767466784451
C            7.95176254834873       -0.05221349067418       -0.04737782276248
C            8.61795730204588       -1.26698367595146       -0.03895332598358
C            7.96306512145521       -2.54786621338482        0.00670208275397
C            8.92948694136298       -3.49490190165695       -0.04916004733072
C           10.19750571319720       -2.81260588564903       -0.13895295497572
N            9.96589899951886       -1.46446032609440       -0.11796809001724
C           11.43859840211209       -3.43448815586172       -0.25811559163027