      -----------------------------------------------------------      
     |                   =====================                   |     
     |                           x T B                           |     
     |                   =====================                   |     
     |                         S. Grimme                         |     
     |          Mulliken Center for Theoretical Chemistry        |     
     |                    University of Bonn                     |     
      -----------------------------------------------------------      

   * xtb version 6.5.1 (b24c23e) compiled by 'conda@728c89f4b128' on 2022-07-12

   xtb is free software: you can redistribute it and/or modify it under
   the terms of the GNU Lesser General Public License as published by
   the Free Software Foundation, either version 3 of the License, or
   (at your option) any later version.
   
   xtb is distributed in the hope that it will be useful,
   but WITHOUT ANY WARRANTY; without even the implied warranty of
   MERCHANTABILITY or FITNESS FOR A PARTICULAR PURPOSE.  See the
   GNU Lesser General Public License for more details.
   
   Cite this work as:
   * C. Bannwarth, E. Caldeweyher, S. Ehlert, A. Hansen, P. Pracht,
     J. Seibert, S. Spicher, S. Grimme, WIREs Comput. Mol. Sci., 2020, 11,
     e01493. DOI: 10.1002/wcms.1493
   
   for GFN2-xTB:
   * C. Bannwarth, S. Ehlert and S. Grimme., J. Chem. Theory Comput., 2019,
     15, 1652-1671. DOI: 10.1021/acs.jctc.8b01176
   for GFN1-xTB:
   * S. Grimme, C. Bannwarth, P. Shushkov, J. Chem. Theory Comput., 2017,
     13, 1989-2009. DOI: 10.1021/acs.jctc.7b00118
   for GFN0-xTB:
   * P. Pracht, E. Caldeweyher, S. Ehlert, S. Grimme, ChemRxiv, 2019, preprint.
     DOI: 10.26434/chemrxiv.8326202.v1
   for GFN-FF:
   * S. Spicher and S. Grimme, Angew. Chem. Int. Ed., 2020, 59, 15665-15673.
     DOI: 10.1002/anie.202004239
   
   for ALPB and GBSA implicit solvation:
   * S. Ehlert, M. Stahn, S. Spicher, S. Grimme, J. Chem. Theory Comput.,
     2021, 17, 4250-4261. DOI: 10.1021/acs.jctc.1c00471
   
   for DFT-D4:
   * E. Caldeweyher, C. Bannwarth and S. Grimme, J. Chem. Phys., 2017,
     147, 034112. DOI: 10.1063/1.4993215
   * E. Caldeweyher, S. Ehlert, A. Hansen, H. Neugebauer, S. Spicher,
     C. Bannwarth and S. Grimme, J. Chem. Phys., 2019, 150, 154122.
     DOI: 10.1063/1.5090222
   * E. Caldeweyher, J.-M. Mewes, S. Ehlert and S. Grimme, Phys. Chem. Chem. Phys.
     2020, 22, 8499-8512. DOI: 10.1039/D0CP00502A
   
   for sTDA-xTB:
   * S. Grimme and C. Bannwarth, J. Chem. Phys., 2016, 145, 054103.
     DOI: 10.1063/1.4959605
   
   in the mass-spec context:
   * V. Asgeirsson, C. Bauer and S. Grimme, Chem. Sci., 2017, 8, 4879.
     DOI: 10.1039/c7sc00601b
   * J. Koopman and S. Grimme, ACS Omega 2019, 4, 12, 15120-15133.
     DOI: 10.1021/acsomega.9b02011
   
   for metadynamics refer to:
   * S. Grimme, J. Chem. Theory Comput., 2019, 155, 2847-2862
     DOI: 10.1021/acs.jctc.9b00143
   
   for SPH calculations refer to:
   * S. Spicher and S. Grimme, J. Chem. Theory Comput., 2021, 17, 1701-1714
     DOI: 10.1021/acs.jctc.0c01306
   
   with help from (in alphabetical order)
   P. Atkinson, C. Bannwarth, F. Bohle, G. Brandenburg, E. Caldeweyher
   M. Checinski, S. Dohm, S. Ehlert, S. Ehrlich, I. Gerasimov, C. Hölzer
   A. Katbashev, J. Koopman, C. Lavigne, S. Lehtola, F. März, M. Müller,
   F. Musil, H. Neugebauer, J. Pisarek, C. Plett, P. Pracht, F. Pultar,
   J. Seibert, P. Shushkov, S. Spicher, M. Stahn, M. Steiner, T. Strunk,
   J. Stückrath, T. Rose, and J. Unsleber
   
 * started run on 2022/07/30 at 22:10:56.844     

           -------------------------------------------------
          |                Calculation Setup                |
           -------------------------------------------------

          program call               : xtb xtbopt.xyz --gfn 1 --vipea
          hostname                   : cx3-15-17.cx3.hpc.ic.ac.uk
          coordinate file            : xtbopt.xyz
          omp threads                :                     1

   ID    Z sym.   atoms
    1    6 C      1-5, 7-10, 12-23, 26-31, 34-38, 41, 42, 64-68, 70-73,
                  75-86, 89-94, 97-101, 104, 105, 127-155, 157-160, 162-173,
                  176-181, 184-188, 191, 192, 213-217, 219-222, 224-235,
                  238-243, 246-250, 253, 254
    2    7 N      6, 11, 32, 33, 69, 74, 95, 96, 156, 161, 182, 183, 218,
                  223, 244, 245
    3    8 O      24, 25, 39, 40, 87, 88, 102, 103, 174, 175, 189, 190, 236,
                  237, 251, 252
    4    1 H      43-63, 106-126, 193-212, 255-274

           -------------------------------------------------
          |                 I P E A - x T B                 |
           -------------------------------------------------

        Reference                      10.1039/c7sc00601b
      * Hamiltonian:
        H0-scaling (s, p, d)           2.150000    2.300000    2.000000
        zeta-weighting                 0.000000
      * Dispersion:
        s8                             2.400000
        a1                             0.630000
        a2                             5.000000
        s9                             0.000000
      * Repulsion:
        kExp                           1.500000
        rExp                           1.000000
      * Coulomb:
        alpha                          1.000000
        third order                    atomic
        anisotropic                    false
      * Halogen bond correction:
        rad-scale                      1.300000
        damping                        0.440000


          ...................................................
          :                      SETUP                      :
          :.................................................:
          :  # basis functions                1124          :
          :  # atomic orbitals                1124          :
          :  # shells                          740          :
          :  # electrons                       898          :
          :  # halogen bonds                     0          :
          :  max. iterations                   250          :
          :  Hamiltonian                  GFN1-xTB          :
          :  restarted?                      false          :
          :  GBSA solvation                  false          :
          :  PC potential                    false          :
          :  electronic temp.          300.0000000     K    :
          :  accuracy                    1.0000000          :
          :  -> integral cutoff          0.2500000E+02      :
          :  -> integral neglect         0.1000000E-07      :
          :  -> SCF convergence          0.1000000E-05 Eh   :
          :  -> wf. convergence          0.2000000E-04 e    :
          :  Broyden damping             0.4000000          :
          ...................................................

 iter      E             dE          RMSdq      gap      omega  full diag
   1   -575.8083605 -0.575808E+03  0.102E+01    0.78       0.0  T
   2   -576.5137703 -0.705410E+00  0.631E+00    1.24       1.0  T
   3   -568.1918940  0.832188E+01  0.472E+00    0.42       1.0  T
   4   -578.2544558 -0.100626E+02  0.113E+00    1.24       1.0  T
   5   -579.0427346 -0.788279E+00  0.309E-01    1.10       1.0  T
   6   -579.0963682 -0.536336E-01  0.135E-01    1.11       1.0  T
   7   -579.1046664 -0.829814E-02  0.603E-02    1.10       1.0  T
   8   -579.1063284 -0.166200E-02  0.297E-02    1.10       1.0  T
   9   -579.1063952 -0.668779E-04  0.228E-02    1.10       1.0  T
  10   -579.1065968 -0.201551E-03  0.844E-03    1.10       1.0  T
  11   -579.1066300 -0.332364E-04  0.289E-03    1.10       2.1  T
  12   -579.1066337 -0.366651E-05  0.121E-03    1.10       5.0  T
  13   -579.1066344 -0.726623E-06  0.540E-04    1.10      11.2  T
  14   -579.1066345 -0.131839E-06  0.227E-04    1.10      26.6  T
  15   -579.1066346 -0.203029E-07  0.119E-04    1.10      50.9  T
  16   -579.1066346 -0.786952E-08  0.341E-05    1.10     176.9  T

   *** convergence criteria satisfied after 16 iterations ***

         #    Occupation            Energy/Eh            Energy/eV
      -------------------------------------------------------------
         1        2.0000           -1.0622527             -28.9054
       ...           ...                  ...                  ...
       443        2.0000           -0.3999403             -10.8829
       444        2.0000           -0.3983136             -10.8387
       445        2.0000           -0.3977951             -10.8246
       446        2.0000           -0.3847475             -10.4695
       447        2.0000           -0.3806579             -10.3582
       448        2.0000           -0.3776004             -10.2750
       449        2.0000           -0.3721072             -10.1256 (HOMO)
       450                         -0.3316784              -9.0254 (LUMO)
       451                         -0.3238091              -8.8113
       452                         -0.3192083              -8.6861
       453                         -0.3174700              -8.6388
       454                         -0.3154037              -8.5826
       ...                                ...                  ...
      1124                        537.8777805           14636.3994
      -------------------------------------------------------------
                  HL-Gap            0.0404289 Eh            1.1001 eV
             Fermi-level           -0.3518915 Eh           -9.5755 eV

 SCC (total)                   0 d,  0 h,  0 min, 16.195 sec
 SCC setup                      ...        0 min,  0.016 sec (  0.097%)
 Dispersion                     ...        0 min,  0.021 sec (  0.129%)
 classical contributions        ...        0 min,  0.006 sec (  0.036%)
 integral evaluation            ...        0 min,  1.272 sec (  7.856%)
 iterations                     ...        0 min, 12.189 sec ( 75.260%)
 molecular gradient             ...        0 min,  2.530 sec ( 15.622%)
 printout                       ...        0 min,  0.162 sec (  0.999%)

         :::::::::::::::::::::::::::::::::::::::::::::::::::::
         ::                     SUMMARY                     ::
         :::::::::::::::::::::::::::::::::::::::::::::::::::::
         :: total energy            -567.886725146794 Eh    ::
         :: gradient norm              0.112555863832 Eh/a0 ::
         :: HOMO-LUMO gap              1.100125402848 eV    ::
         ::.................................................::
         :: SCC energy              -579.106634574241 Eh    ::
         :: -> electrostatic           0.531014827879 Eh    ::
         :: repulsion energy          11.448821588525 Eh    ::
         :: dispersion energy         -0.228912161079 Eh    ::
         :: halogen bond corr.         0.000000000000 Eh    ::
         :: add. restraining           0.000000000000 Eh    ::
         :: total charge               0.000000000003 e     ::
         :::::::::::::::::::::::::::::::::::::::::::::::::::::

           ------------------------------------------------- 
          |        vertical delta SCC IP calculation        |
           ------------------------------------------------- 
   1   -578.7049568 -0.578705E+03  0.830E-02    1.10       0.0  T
   2   -578.6935552  0.114016E-01  0.121E-01    0.97       1.0  T
   3   -578.7108428 -0.172875E-01  0.472E-02    1.09       1.0  T
   4   -578.7063031  0.453968E-02  0.643E-02    1.07       1.0  T
   5   -578.7120975 -0.579444E-02  0.307E-02    1.09       1.0  T
   6   -578.7130623 -0.964757E-03  0.143E-02    1.09       1.0  T
   7   -578.7129997  0.625773E-04  0.132E-02    1.08       1.0  T
   8   -578.7132507 -0.250972E-03  0.442E-03    1.08       1.4  T
   9   -578.7132688 -0.180868E-04  0.155E-03    1.08       3.9  T
  10   -578.7132697 -0.908349E-06  0.868E-04    1.08       7.0  T
  11   -578.7132703 -0.636406E-06  0.477E-04    1.08      12.7  T
  12   -578.7132707 -0.333769E-06  0.150E-04    1.08      40.1  T
  13   -578.7132707 -0.795694E-08  0.868E-05    1.08      69.6  T
     SCC iter.                  ...        0 min,  9.910 sec
     gradient                   ...        0 min,  2.532 sec
------------------------------------------------------------------------
empirical IP shift (eV):    4.8455
delta SCC IP (eV):    5.8585
------------------------------------------------------------------------
           ------------------------------------------------- 
          |        vertical delta SCC EA calculation        |
           ------------------------------------------------- 
   1   -579.3922410 -0.579392E+03  0.144E-01    0.24       0.0  T
   2   -579.3897264  0.251454E-02  0.147E-01    0.03       1.0  T
   3   -579.4082606 -0.185341E-01  0.852E-02    0.18       1.0  T
   4   -579.4143560 -0.609543E-02  0.550E-02    0.09       1.0  T
   5   -579.4149493 -0.593350E-03  0.321E-02    0.09       1.0  T
   6   -579.4135958  0.135353E-02  0.357E-02    0.10       1.0  T
   7   -579.4135102  0.856500E-04  0.298E-02    0.10       1.0  T
   8   -579.4153556 -0.184546E-02  0.909E-03    0.10       1.0  T
   9   -579.4155068 -0.151156E-03  0.285E-03    0.09       2.1  T
  10   -579.4155110 -0.423762E-05  0.140E-03    0.09       4.3  T
  11   -579.4155122 -0.112839E-05  0.686E-04    0.09       8.8  T
  12   -579.4155125 -0.382459E-06  0.336E-04    0.09      18.0  T
  13   -579.4155126 -0.741272E-07  0.170E-04    0.09      35.6  T
  14   -579.4155126 -0.121378E-07  0.956E-05    0.09      63.2  T
     SCC iter.                  ...        0 min, 10.649 sec
     gradient                   ...        0 min,  2.525 sec
------------------------------------------------------------------------
empirical EA shift (eV):    4.8455
delta SCC EA (eV):    3.5595
------------------------------------------------------------------------
           -------------------------------------------------
          |                Property Printout                |
           -------------------------------------------------

    * Orbital Energies and Occupations

         #    Occupation            Energy/Eh            Energy/eV
      -------------------------------------------------------------
         1        2.0000           -1.0356196             -28.1806
       ...           ...                  ...                  ...
       438        2.0000           -0.3700328             -10.0691
       439        2.0000           -0.3666627              -9.9774
       440        2.0000           -0.3624391              -9.8625
       441        2.0000           -0.3622265              -9.8567
       442        2.0000           -0.3618536              -9.8465
       443        2.0000           -0.3585240              -9.7559
       444        2.0000           -0.3554027              -9.6710
       445        2.0000           -0.3551937              -9.6653
       446        2.0000           -0.3440138              -9.3611
       447        2.0000           -0.3426238              -9.3233
       448        2.0000           -0.3364105              -9.1542
       449        2.0000           -0.3277583              -8.9188
       450        0.8566           -0.2874551              -7.8221 (HOMO)
       451        0.1328           -0.2839743              -7.7273 (LUMO)
       452        0.0090           -0.2812875              -7.6542
       453        0.0011           -0.2792662              -7.5992
       454        0.0005           -0.2785068              -7.5786
       455        0.0000           -0.2747897              -7.4774
       456        0.0000           -0.2719657              -7.4006
       457        0.0000           -0.2712484              -7.3810
       458                         -0.2495133              -6.7896
       459                         -0.2482159              -6.7543
       460                         -0.2473535              -6.7308
       461                         -0.2427551              -6.6057
       ...                                ...                  ...
      1124                        537.9193763           14637.5313
      -------------------------------------------------------------
                  HL-Gap            0.0034808 Eh            0.0947 eV
             Fermi-level           -0.2966882 Eh           -8.0733 eV

  Mulliken/CM5 charges         n(s)   n(p)   n(d)
     1C    -0.02374 -0.06457   1.087  2.937  0.000
     2C     0.06188  0.12227   1.105  2.833  0.000
     3C    -0.03581 -0.08114   1.080  2.955  0.000
     4C    -0.03382 -0.07881   1.075  2.959  0.000
     5C     0.06194  0.12594   1.100  2.838  0.000
     6N    -0.15898 -0.51200   1.312  3.847  0.000
     7C     0.00792  0.01365   1.090  2.902  0.000
     8C     0.05883  0.12691   1.117  2.824  0.000
     9C    -0.03791 -0.08393   1.084  2.954  0.000
    10C    -0.03761 -0.08306   1.091  2.947  0.000
    11N    -0.28548 -0.47199   1.293  3.993  0.000
    12C     0.06494  0.13570   1.130  2.805  0.000
    13C     0.01647  0.02366   1.083  2.900  0.000
    14C     0.06644  0.13131   1.109  2.824  0.000
    15C    -0.03366 -0.07810   1.079  2.955  0.000
    16C    -0.03366 -0.07864   1.074  2.960  0.000
    17C     0.06128  0.12462   1.098  2.841  0.000
    18C     0.00676  0.01255   1.089  2.904  0.000
    19C     0.01492  0.00630   1.093  2.892  0.000
    20C    -0.01795 -0.07113   1.076  2.942  0.000
    21C    -0.01246 -0.06405   1.090  2.922  0.000
    22C     0.00534  0.00185   1.088  2.907  0.000
    23C     0.23286  0.28778   1.194  2.573  0.000
    24O    -0.28097 -0.47752   1.681  4.600  0.000
    25O    -0.33099 -0.38067   1.629  4.702  0.000
    26C    -0.01466 -0.06630   1.087  2.927  0.000
    27C    -0.01833 -0.07165   1.078  2.940  0.000
    28C     0.06026  0.12972   1.120  2.820  0.000
    29C    -0.03837 -0.08441   1.086  2.952  0.000
    30C    -0.03981 -0.08622   1.092  2.948  0.000
    31C     0.05900  0.12465   1.125  2.816  0.000
    32N    -0.28841 -0.47544   1.292  3.997  0.000
    33N    -0.15669 -0.50885   1.314  3.843  0.000
    34C     0.01511  0.00648   1.093  2.892  0.000
    35C    -0.01928 -0.07252   1.076  2.943  0.000
    36C    -0.01492 -0.06655   1.087  2.928  0.000
    37C     0.00560  0.00211   1.088  2.906  0.000
    38C     0.23304  0.28796   1.194  2.573  0.000
    39O    -0.28107 -0.47761   1.681  4.600  0.000
    40O    -0.33034 -0.38003   1.629  4.702  0.000
    41C    -0.01185 -0.06345   1.091  2.921  0.000
    42C    -0.01666 -0.06989   1.079  2.938  0.000
    43H     0.02824  0.08726   0.972  0.000  0.000
    44H     0.03901  0.09570   0.961  0.000  0.000
    45H     0.03059  0.08938   0.969  0.000  0.000
    46H     0.16416  0.37243   0.836  0.000  0.000
    47H     0.02234  0.08107   0.978  0.000  0.000
    48H     0.02606  0.08412   0.974  0.000  0.000
    49H     0.03544  0.09355   0.965  0.000  0.000
    50H     0.03140  0.09015   0.969  0.000  0.000
    51H     0.03188  0.08980   0.968  0.000  0.000
    52H     0.04546  0.10594   0.955  0.000  0.000
    53H     0.24241  0.41822   0.758  0.000  0.000
    54H     0.04559  0.10684   0.954  0.000  0.000
    55H     0.02981  0.08781   0.970  0.000  0.000
    56H     0.02132  0.08007   0.979  0.000  0.000
    57H     0.02941  0.08585   0.971  0.000  0.000
    58H     0.16272  0.37095   0.837  0.000  0.000
    59H     0.03035  0.08830   0.970  0.000  0.000
    60H     0.04558  0.10683   0.954  0.000  0.000
    61H     0.24255  0.41836   0.757  0.000  0.000
    62H     0.04607  0.10655   0.954  0.000  0.000
    63H     0.03193  0.08985   0.968  0.000  0.000
    64C    -0.02382 -0.06464   1.087  2.937  0.000
    65C     0.06184  0.12223   1.105  2.833  0.000
    66C    -0.03589 -0.08122   1.080  2.956  0.000
    67C    -0.03391 -0.07890   1.075  2.959  0.000
    68C     0.06188  0.12588   1.100  2.839  0.000
    69N    -0.15899 -0.51202   1.312  3.847  0.000
    70C     0.00781  0.01354   1.090  2.902  0.000
    71C     0.05879  0.12688   1.117  2.824  0.000
    72C    -0.03794 -0.08396   1.084  2.954  0.000
    73C    -0.03768 -0.08314   1.091  2.947  0.000
    74N    -0.28557 -0.47210   1.293  3.993  0.000
    75C     0.06491  0.13567   1.130  2.805  0.000
    76C     0.01632  0.02352   1.083  2.901  0.000
    77C     0.06631  0.13118   1.109  2.825  0.000
    78C    -0.03384 -0.07828   1.079  2.955  0.000
    79C    -0.03378 -0.07876   1.074  2.960  0.000
    80C     0.06119  0.12453   1.098  2.841  0.000
    81C     0.00665  0.01243   1.089  2.904  0.000
    82C     0.01489  0.00628   1.093  2.892  0.000
    83C    -0.01797 -0.07115   1.076  2.942  0.000
    84C    -0.01251 -0.06410   1.090  2.922  0.000
    85C     0.00529  0.00180   1.088  2.907  0.000
    86C     0.23283  0.28775   1.194  2.573  0.000
    87O    -0.28097 -0.47752   1.681  4.600  0.000
    88O    -0.33108 -0.38076   1.629  4.702  0.000
    89C    -0.01468 -0.06633   1.087  2.927  0.000
    90C    -0.01836 -0.07168   1.078  2.940  0.000
    91C     0.06024  0.12970   1.120  2.820  0.000
    92C    -0.03838 -0.08442   1.086  2.952  0.000
    93C    -0.03982 -0.08623   1.092  2.948  0.000
    94C     0.05898  0.12463   1.125  2.816  0.000
    95N    -0.28849 -0.47552   1.292  3.997  0.000
    96N    -0.15673 -0.50889   1.314  3.843  0.000
    97C     0.01511  0.00648   1.093  2.892  0.000
    98C    -0.01925 -0.07250   1.076  2.943  0.000
    99C    -0.01490 -0.06654   1.087  2.928  0.000
   100C     0.00558  0.00209   1.088  2.906  0.000
   101C     0.23303  0.28795   1.194  2.573  0.000
   102O    -0.28102 -0.47757   1.681  4.600  0.000
   103O    -0.33045 -0.38014   1.629  4.702  0.000
   104C    -0.01192 -0.06351   1.091  2.921  0.000
   105C    -0.01670 -0.06993   1.079  2.938  0.000
   106H     0.02822  0.08724   0.972  0.000  0.000
   107H     0.03897  0.09566   0.961  0.000  0.000
   108H     0.03053  0.08931   0.969  0.000  0.000
   109H     0.16412  0.37240   0.836  0.000  0.000
   110H     0.02226  0.08099   0.978  0.000  0.000
   111H     0.02596  0.08404   0.974  0.000  0.000
   112H     0.03524  0.09333   0.965  0.000  0.000
   113H     0.03125  0.09000   0.969  0.000  0.000
   114H     0.03185  0.08978   0.968  0.000  0.000
   115H     0.04538  0.10586   0.955  0.000  0.000
   116H     0.24239  0.41820   0.758  0.000  0.000
   117H     0.04556  0.10681   0.954  0.000  0.000
   118H     0.02975  0.08775   0.970  0.000  0.000
   119H     0.02130  0.08006   0.979  0.000  0.000
   120H     0.02940  0.08584   0.971  0.000  0.000
   121H     0.16268  0.37091   0.837  0.000  0.000
   122H     0.03040  0.08835   0.970  0.000  0.000
   123H     0.04562  0.10687   0.954  0.000  0.000
   124H     0.24257  0.41838   0.757  0.000  0.000
   125H     0.04593  0.10641   0.954  0.000  0.000
   126H     0.03178  0.08971   0.968  0.000  0.000
   127C    -0.01832 -0.01994   1.091  2.928  0.000
   128C    -0.01945 -0.02021   1.061  2.958  0.000
   129C    -0.01648 -0.01657   1.075  2.941  0.000
   130C    -0.01487 -0.01488   1.077  2.938  0.000
   131C    -0.01774 -0.01775   1.075  2.943  0.000
   132C    -0.01337 -0.01346   1.078  2.935  0.000
   133C    -0.02208 -0.02281   1.059  2.963  0.000
   134C    -0.01524 -0.01680   1.094  2.921  0.000
   135C    -0.01754 -0.01909   1.092  2.926  0.000
   136C    -0.02154 -0.02226   1.060  2.961  0.000
   137C    -0.01590 -0.01599   1.076  2.939  0.000
   138C    -0.01734 -0.01735   1.076  2.941  0.000
   139C    -0.01723 -0.01724   1.076  2.941  0.000
   140C    -0.01593 -0.01602   1.076  2.940  0.000
   141C    -0.02138 -0.02210   1.060  2.961  0.000
   142C    -0.01757 -0.01912   1.092  2.926  0.000
   143C    -0.01538 -0.01694   1.094  2.921  0.000
   144C    -0.02231 -0.02303   1.059  2.963  0.000
   145C    -0.01361 -0.01370   1.078  2.936  0.000
   146C    -0.01790 -0.01791   1.075  2.943  0.000
   147C    -0.01511 -0.01512   1.077  2.938  0.000
   148C    -0.01652 -0.01662   1.075  2.941  0.000
   149C    -0.01964 -0.02040   1.061  2.959  0.000
   150C    -0.01827 -0.01988   1.091  2.927  0.000
   151C     0.01285  0.02011   1.080  2.907  0.000
   152C     0.06598  0.13085   1.109  2.825  0.000
   153C    -0.03594 -0.08040   1.078  2.958  0.000
   154C    -0.03419 -0.07914   1.074  2.960  0.000
   155C     0.05943  0.12287   1.095  2.846  0.000
   156N    -0.15651 -0.50891   1.313  3.843  0.000
   157C     0.01011  0.01572   1.092  2.898  0.000
   158C     0.05718  0.12520   1.115  2.828  0.000
   159C    -0.03885 -0.08485   1.085  2.954  0.000
   160C    -0.03938 -0.08485   1.090  2.950  0.000
   161N    -0.28546 -0.47156   1.292  3.993  0.000
   162C     0.06423  0.13503   1.130  2.806  0.000
   163C     0.01415  0.02140   1.081  2.904  0.000
   164C     0.06591  0.13079   1.109  2.825  0.000
   165C    -0.03561 -0.08005   1.078  2.958  0.000
   166C    -0.03444 -0.07937   1.074  2.961  0.000
   167C     0.05948  0.12287   1.095  2.846  0.000
   168C     0.00983  0.01544   1.091  2.899  0.000
   169C     0.01581  0.00709   1.094  2.890  0.000
   170C    -0.01656 -0.06984   1.078  2.938  0.000
   171C    -0.01204 -0.06364   1.090  2.922  0.000
   172C     0.00549  0.00200   1.088  2.907  0.000
   173C     0.23299  0.28793   1.194  2.573  0.000
   174O    -0.28083 -0.47737   1.681  4.600  0.000
   175O    -0.33122 -0.38093   1.629  4.703  0.000
   176C    -0.01457 -0.06620   1.087  2.927  0.000
   177C    -0.01850 -0.07172   1.076  2.943  0.000
   178C     0.05753  0.12564   1.115  2.827  0.000
   179C    -0.03850 -0.08451   1.085  2.954  0.000
   180C    -0.03943 -0.08491   1.090  2.950  0.000
   181C     0.06425  0.13497   1.130  2.806  0.000
   182N    -0.28601 -0.47213   1.292  3.994  0.000
   183N    -0.15621 -0.50856   1.313  3.843  0.000
   184C     0.01587  0.00715   1.094  2.890  0.000
   185C    -0.01761 -0.07083   1.076  2.941  0.000
   186C    -0.01245 -0.06405   1.090  2.922  0.000
   187C     0.00549  0.00200   1.088  2.907  0.000
   188C     0.23298  0.28792   1.194  2.573  0.000
   189O    -0.28057 -0.47711   1.681  4.600  0.000
   190O    -0.33151 -0.38122   1.629  4.703  0.000
   191C    -0.01417 -0.06581   1.088  2.927  0.000
   192C    -0.01739 -0.07067   1.078  2.939  0.000
   193H     0.03300  0.09104   0.967  0.000  0.000
   194H     0.02975  0.08865   0.970  0.000  0.000
   195H     0.16278  0.37069   0.837  0.000  0.000
   196H     0.02049  0.07929   0.980  0.000  0.000
   197H     0.02389  0.08189   0.976  0.000  0.000
   198H     0.03357  0.09162   0.966  0.000  0.000
   199H     0.02972  0.08855   0.970  0.000  0.000
   200H     0.03119  0.08910   0.969  0.000  0.000
   201H     0.04497  0.10546   0.955  0.000  0.000
   202H     0.24210  0.41789   0.758  0.000  0.000
   203H     0.04564  0.10688   0.954  0.000  0.000
   204H     0.03097  0.08885   0.969  0.000  0.000
   205H     0.02071  0.07957   0.979  0.000  0.000
   206H     0.02362  0.08163   0.976  0.000  0.000
   207H     0.16270  0.37060   0.837  0.000  0.000
   208H     0.03151  0.08940   0.968  0.000  0.000
   209H     0.04468  0.10518   0.955  0.000  0.000
   210H     0.24219  0.41798   0.758  0.000  0.000
   211H     0.04593  0.10717   0.954  0.000  0.000
   212H     0.03073  0.08865   0.969  0.000  0.000
   213C     0.01425  0.02149   1.081  2.904  0.000
   214C     0.06596  0.13084   1.109  2.825  0.000
   215C    -0.03549 -0.07994   1.078  2.958  0.000
   216C    -0.03428 -0.07922   1.074  2.960  0.000
   217C     0.05952  0.12291   1.095  2.845  0.000
   218N    -0.15620 -0.50856   1.313  3.843  0.000
   219C     0.00973  0.01535   1.091  2.899  0.000
   220C     0.05742  0.12554   1.115  2.828  0.000
   221C    -0.03872 -0.08474   1.085  2.954  0.000
   222C    -0.03964 -0.08511   1.090  2.950  0.000
   223N    -0.28606 -0.47222   1.292  3.994  0.000
   224C     0.06411  0.13483   1.130  2.806  0.000
   225C     0.01264  0.01990   1.080  2.908  0.000
   226C     0.06586  0.13072   1.109  2.825  0.000
   227C    -0.03620 -0.08066   1.078  2.959  0.000
   228C    -0.03446 -0.07941   1.074  2.960  0.000
   229C     0.05930  0.12274   1.095  2.846  0.000
   230C     0.01005  0.01567   1.092  2.898  0.000
   231C     0.01585  0.00713   1.094  2.890  0.000
   232C    -0.01645 -0.06971   1.078  2.938  0.000
   233C    -0.01201 -0.06361   1.090  2.922  0.000
   234C     0.00546  0.00197   1.088  2.907  0.000
   235C     0.23295  0.28789   1.194  2.573  0.000
   236O    -0.28099 -0.47754   1.681  4.600  0.000
   237O    -0.33113 -0.38082   1.629  4.703  0.000
   238C    -0.01468 -0.06632   1.087  2.927  0.000
   239C    -0.01854 -0.07178   1.076  2.942  0.000
   240C     0.05724  0.12527   1.115  2.828  0.000
   241C    -0.03866 -0.08468   1.085  2.954  0.000
   242C    -0.03924 -0.08471   1.090  2.949  0.000
   243C     0.06433  0.13512   1.130  2.806  0.000
   244N    -0.28545 -0.47155   1.292  3.993  0.000
   245N    -0.15653 -0.50894   1.313  3.843  0.000
   246C     0.01580  0.00708   1.094  2.890  0.000
   247C    -0.01754 -0.07074   1.076  2.941  0.000
   248C    -0.01240 -0.06399   1.090  2.922  0.000
   249C     0.00546  0.00196   1.088  2.907  0.000
   250C     0.23294  0.28789   1.194  2.573  0.000
   251O    -0.28076 -0.47731   1.681  4.600  0.000
   252O    -0.33141 -0.38110   1.629  4.703  0.000
   253C    -0.01428 -0.06593   1.087  2.927  0.000
   254C    -0.01750 -0.07081   1.078  2.939  0.000
   255H     0.03371  0.09175   0.966  0.000  0.000
   256H     0.02989  0.08873   0.970  0.000  0.000
   257H     0.16265  0.37057   0.837  0.000  0.000
   258H     0.02038  0.07924   0.980  0.000  0.000
   259H     0.02338  0.08139   0.977  0.000  0.000
   260H     0.03272  0.09076   0.967  0.000  0.000
   261H     0.02937  0.08826   0.971  0.000  0.000
   262H     0.03143  0.08933   0.969  0.000  0.000
   263H     0.04513  0.10562   0.955  0.000  0.000
   264H     0.24201  0.41781   0.758  0.000  0.000
   265H     0.04545  0.10670   0.955  0.000  0.000
   266H     0.03082  0.08874   0.969  0.000  0.000
   267H     0.02069  0.07949   0.979  0.000  0.000
   268H     0.02405  0.08205   0.976  0.000  0.000
   269H     0.16278  0.37071   0.837  0.000  0.000
   270H     0.03175  0.08964   0.968  0.000  0.000
   271H     0.04487  0.10536   0.955  0.000  0.000
   272H     0.24205  0.41785   0.758  0.000  0.000
   273H     0.04565  0.10690   0.954  0.000  0.000
   274H     0.03035  0.08830   0.970  0.000  0.000

Wiberg/Mayer (AO) data.
largest (>0.10) Wiberg bond orders for each atom

 ---------------------------------------------------------------------------
     #   Z sym  total        # sym  WBO       # sym  WBO       # sym  WBO
 ---------------------------------------------------------------------------
     1   6 C    3.805 --    31 C    1.386     2 C    1.369    43 H    0.996
     2   6 C    3.923 --     1 C    1.369     3 C    1.242     6 N    1.230
     3   6 C    3.833 --     4 C    1.594     2 C    1.242    44 H    0.992
     4   6 C    3.821 --     3 C    1.594     5 C    1.252    45 H    0.999
     5   6 C    3.895 --     7 C    1.337     4 C    1.252     6 N    1.229
     6   7 N    3.245 --     2 C    1.230     5 C    1.229    46 H    0.961
     7   6 C    3.841 --     8 C    1.369     5 C    1.337    34 C    1.055
     8   6 C    3.923 --     7 C    1.369    11 N    1.353     9 C    1.160
     9   6 C    3.839 --    10 C    1.693     8 C    1.160    47 H    0.998
    10   6 C    3.850 --     9 C    1.693    12 C    1.165    48 H    0.999
    11   7 N    2.558 --    12 C    1.413     8 C    1.353
    12   6 C    3.941 --    11 N    1.413    13 C    1.287    10 C    1.165
    13   6 C    3.837 --    12 C    1.287    14 C    1.282   127 C    1.222
    14   6 C    3.899 --    13 C    1.282    15 C    1.269    33 N    1.250
    15   6 C    3.828 --    16 C    1.579    14 C    1.269    49 H    0.998
    16   6 C    3.812 --    15 C    1.579    17 C    1.260    50 H    0.998
    17   6 C    3.889 --    18 C    1.338    16 C    1.260    33 N    1.222
    18   6 C    3.825 --    28 C    1.358    17 C    1.338    19 C    1.057
    19   6 C    3.896 --    27 C    1.416    20 C    1.416    18 C    1.057
    20   6 C    3.859 --    21 C    1.466    19 C    1.416    51 H    0.988
    21   6 C    3.896 --    20 C    1.466    22 C    1.400    52 H    0.985
    22   6 C    3.898 --    21 C    1.400    26 C    1.399    23 C    1.041
    23   6 C    4.097 --    25 O    1.816    24 O    1.209    22 C    1.041
    24   8 O    2.366 --    23 C    1.209    53 H    0.943    25 O    0.183
    25   8 O    2.030 --    23 C    1.816    24 O    0.183
    26   6 C    3.892 --    27 C    1.465    22 C    1.399    54 H    0.986
    27   6 C    3.863 --    26 C    1.465    19 C    1.416    55 H    0.988
    28   6 C    3.944 --    32 N    1.380    18 C    1.358    29 C    1.152
    29   6 C    3.842 --    30 C    1.708    28 C    1.152    56 H    0.999
    30   6 C    3.862 --    29 C    1.708    31 C    1.146    57 H    0.993
    31   6 C    3.967 --     1 C    1.386    32 N    1.373    30 C    1.146
    32   7 N    2.542 --    28 C    1.380    31 C    1.373
    33   7 N    3.258 --    14 C    1.250    17 C    1.222    58 H    0.960
    34   6 C    3.896 --    35 C    1.417    42 C    1.417     7 C    1.055
    35   6 C    3.860 --    36 C    1.464    34 C    1.417    59 H    0.988
    36   6 C    3.892 --    35 C    1.464    37 C    1.400    60 H    0.986
    37   6 C    3.899 --    41 C    1.400    36 C    1.400    38 C    1.040
    38   6 C    4.098 --    40 O    1.817    39 O    1.209    37 C    1.040
    39   8 O    2.365 --    38 C    1.209    61 H    0.943    40 O    0.184
    40   8 O    2.031 --    38 C    1.817    39 O    0.184
    41   6 C    3.896 --    42 C    1.465    37 C    1.400    62 H    0.985
    42   6 C    3.864 --    41 C    1.465    34 C    1.417    63 H    0.988
    43   1 H    1.032 --     1 C    0.996
    44   1 H    1.016 --     3 C    0.992
    45   1 H    1.031 --     4 C    0.999
    46   1 H    1.082 --     6 N    0.961
    47   1 H    1.034 --     9 C    0.998
    48   1 H    1.032 --    10 C    0.999
    49   1 H    1.029 --    15 C    0.998
    50   1 H    1.031 --    16 C    0.998
    51   1 H    1.046 --    20 C    0.988
    52   1 H    1.031 --    21 C    0.985
    53   1 H    0.980 --    24 O    0.943
    54   1 H    1.022 --    26 C    0.986
    55   1 H    1.049 --    27 C    0.988
    56   1 H    1.035 --    29 C    0.999
    57   1 H    1.019 --    30 C    0.993
    58   1 H    1.086 --    33 N    0.960
    59   1 H    1.046 --    35 C    0.988
    60   1 H    1.022 --    36 C    0.986
    61   1 H    0.980 --    39 O    0.943
    62   1 H    1.031 --    41 C    0.985
    63   1 H    1.049 --    42 C    0.988
    64   6 C    3.805 --    94 C    1.386    65 C    1.369   106 H    0.996
    65   6 C    3.923 --    64 C    1.369    66 C    1.242    69 N    1.230
    66   6 C    3.833 --    67 C    1.594    65 C    1.242   107 H    0.992
    67   6 C    3.820 --    66 C    1.594    68 C    1.253   108 H    0.999
    68   6 C    3.894 --    70 C    1.337    67 C    1.253    69 N    1.229
    69   7 N    3.246 --    65 C    1.230    68 C    1.229   109 H    0.961
    70   6 C    3.841 --    71 C    1.369    68 C    1.337    97 C    1.055
    71   6 C    3.923 --    70 C    1.369    74 N    1.353    72 C    1.160
    72   6 C    3.839 --    73 C    1.693    71 C    1.160   110 H    0.998
    73   6 C    3.850 --    72 C    1.693    75 C    1.165   111 H    0.999
    74   7 N    2.558 --    75 C    1.413    71 C    1.353
    75   6 C    3.941 --    74 N    1.413    76 C    1.287    73 C    1.165
    76   6 C    3.836 --    75 C    1.287    77 C    1.282   150 C    1.221
    77   6 C    3.899 --    76 C    1.282    78 C    1.270    96 N    1.249
    78   6 C    3.828 --    79 C    1.578    77 C    1.270   112 H    0.998
    79   6 C    3.811 --    78 C    1.578    80 C    1.261   113 H    0.998
    80   6 C    3.888 --    81 C    1.338    79 C    1.261    96 N    1.222
    81   6 C    3.824 --    91 C    1.358    80 C    1.338    82 C    1.057
    82   6 C    3.896 --    90 C    1.416    83 C    1.416    81 C    1.057
    83   6 C    3.859 --    84 C    1.466    82 C    1.416   114 H    0.988
    84   6 C    3.896 --    83 C    1.466    85 C    1.400   115 H    0.985
    85   6 C    3.897 --    84 C    1.400    89 C    1.399    86 C    1.041
    86   6 C    4.097 --    88 O    1.816    87 O    1.209    85 C    1.041
    87   8 O    2.366 --    86 C    1.209   116 H    0.943    88 O    0.183
    88   8 O    2.030 --    86 C    1.816    87 O    0.183
    89   6 C    3.892 --    90 C    1.465    85 C    1.399   117 H    0.986
    90   6 C    3.863 --    89 C    1.465    82 C    1.416   118 H    0.988
    91   6 C    3.944 --    95 N    1.380    81 C    1.358    92 C    1.151
    92   6 C    3.842 --    93 C    1.708    91 C    1.151   119 H    0.999
    93   6 C    3.862 --    92 C    1.708    94 C    1.146   120 H    0.993
    94   6 C    3.967 --    64 C    1.386    95 N    1.373    93 C    1.146
    95   7 N    2.541 --    91 C    1.380    94 C    1.373
    96   7 N    3.258 --    77 C    1.249    80 C    1.222   121 H    0.960
    97   6 C    3.896 --    98 C    1.417   105 C    1.417    70 C    1.055
    98   6 C    3.860 --    99 C    1.464    97 C    1.417   122 H    0.988
    99   6 C    3.892 --    98 C    1.464   100 C    1.400   123 H    0.986
   100   6 C    3.899 --   104 C    1.400    99 C    1.400   101 C    1.040
   101   6 C    4.098 --   103 O    1.817   102 O    1.209   100 C    1.040
   102   8 O    2.366 --   101 C    1.209   124 H    0.943   103 O    0.184
   103   8 O    2.031 --   101 C    1.817   102 O    0.184
   104   6 C    3.897 --   105 C    1.466   100 C    1.400   125 H    0.985
   105   6 C    3.864 --   104 C    1.466    97 C    1.417   126 H    0.988
   106   1 H    1.032 --    64 C    0.996
   107   1 H    1.016 --    66 C    0.992
   108   1 H    1.031 --    67 C    0.999
   109   1 H    1.082 --    69 N    0.961
   110   1 H    1.035 --    72 C    0.998
   111   1 H    1.032 --    73 C    0.999
   112   1 H    1.029 --    78 C    0.998
   113   1 H    1.031 --    79 C    0.998
   114   1 H    1.046 --    83 C    0.988
   115   1 H    1.031 --    84 C    0.985
   116   1 H    0.980 --    87 O    0.943
   117   1 H    1.022 --    89 C    0.986
   118   1 H    1.049 --    90 C    0.988
   119   1 H    1.035 --    92 C    0.999
   120   1 H    1.019 --    93 C    0.993
   121   1 H    1.086 --    96 N    0.960
   122   1 H    1.046 --    98 C    0.988
   123   1 H    1.022 --    99 C    0.986
   124   1 H    0.980 --   102 O    0.943
   125   1 H    1.031 --   104 C    0.985
   126   1 H    1.049 --   105 C    0.988
   127   6 C    3.753 --   128 C    2.461    13 C    1.222   130 C    0.166
   128   6 C    3.807 --   127 C    2.461   129 C    1.364
   129   6 C    3.800 --   130 C    2.342   128 C    1.364   132 C    0.160
   130   6 C    3.837 --   129 C    2.342   131 C    1.392   127 C    0.166
   131   6 C    3.835 --   132 C    2.340   130 C    1.392   134 C    0.165
   132   6 C    3.802 --   131 C    2.340   133 C    1.366   129 C    0.160
   133   6 C    3.803 --   134 C    2.455   132 C    1.366
   134   6 C    3.755 --   133 C    2.455   151 C    1.227   131 C    0.165
   135   6 C    3.753 --   136 C    2.447   163 C    1.234   138 C    0.164
   136   6 C    3.802 --   135 C    2.447   137 C    1.373
   137   6 C    3.801 --   138 C    2.330   136 C    1.373   140 C    0.159
   138   6 C    3.834 --   137 C    2.330   139 C    1.400   135 C    0.164
   139   6 C    3.834 --   140 C    2.330   138 C    1.400   142 C    0.164
   140   6 C    3.801 --   139 C    2.330   141 C    1.373   137 C    0.159
   141   6 C    3.802 --   142 C    2.447   140 C    1.373
   142   6 C    3.753 --   141 C    2.447   213 C    1.234   139 C    0.164
   143   6 C    3.755 --   144 C    2.456   225 C    1.226   146 C    0.165
   144   6 C    3.803 --   143 C    2.456   145 C    1.366
   145   6 C    3.802 --   146 C    2.341   144 C    1.366   148 C    0.160
   146   6 C    3.835 --   145 C    2.341   147 C    1.392   143 C    0.165
   147   6 C    3.837 --   148 C    2.343   146 C    1.392   150 C    0.166
   148   6 C    3.800 --   147 C    2.343   149 C    1.363   145 C    0.160
   149   6 C    3.807 --   150 C    2.461   148 C    1.363
   150   6 C    3.753 --   149 C    2.461    76 C    1.221   147 C    0.166
   151   6 C    3.820 --   181 C    1.282   152 C    1.277   134 C    1.227
   152   6 C    3.902 --   151 C    1.277   153 C    1.273   156 N    1.251
   153   6 C    3.824 --   154 C    1.574   152 C    1.273   193 H    0.998
   154   6 C    3.816 --   153 C    1.574   155 C    1.265   194 H    0.999
   155   6 C    3.883 --   157 C    1.334   154 C    1.265   156 N    1.220
   156   7 N    3.247 --   152 C    1.251   155 C    1.220   195 H    0.961
   157   6 C    3.833 --   158 C    1.374   155 C    1.334   184 C    1.052
   158   6 C    3.922 --   157 C    1.374   161 N    1.348   159 C    1.161
   159   6 C    3.838 --   160 C    1.690   158 C    1.161   196 H    0.999
   160   6 C    3.847 --   159 C    1.690   162 C    1.168   197 H    0.999
   161   7 N    2.545 --   162 C    1.418   158 C    1.348
   162   6 C    3.941 --   161 N    1.418   163 C    1.278   160 C    1.168
   163   6 C    3.819 --   162 C    1.278   164 C    1.274   135 C    1.234
   164   6 C    3.901 --   165 C    1.275   163 C    1.274   183 N    1.252
   165   6 C    3.824 --   166 C    1.572   164 C    1.275   198 H    0.998
   166   6 C    3.815 --   165 C    1.572   167 C    1.266   199 H    0.999
   167   6 C    3.883 --   168 C    1.332   166 C    1.266   183 N    1.221
   168   6 C    3.831 --   178 C    1.376   167 C    1.332   169 C    1.052
   169   6 C    3.897 --   177 C    1.419   170 C    1.417   168 C    1.052
   170   6 C    3.864 --   171 C    1.465   169 C    1.417   200 H    0.988
   171   6 C    3.896 --   170 C    1.465   172 C    1.400   201 H    0.985
   172   6 C    3.899 --   176 C    1.400   171 C    1.400   173 C    1.040
   173   6 C    4.098 --   175 O    1.817   174 O    1.210   172 C    1.040
   174   8 O    2.366 --   173 C    1.210   202 H    0.943   175 O    0.183
   175   8 O    2.030 --   173 C    1.817   174 O    0.183
   176   6 C    3.892 --   177 C    1.463   172 C    1.400   203 H    0.986
   177   6 C    3.860 --   176 C    1.463   169 C    1.419   204 H    0.988
   178   6 C    3.923 --   168 C    1.376   182 N    1.349   179 C    1.160
   179   6 C    3.838 --   180 C    1.692   178 C    1.160   205 H    0.999
   180   6 C    3.848 --   179 C    1.692   181 C    1.167   206 H    0.999
   181   6 C    3.942 --   182 N    1.416   151 C    1.282   180 C    1.167
   182   7 N    2.542 --   181 C    1.416   178 C    1.349
   183   7 N    3.249 --   164 C    1.252   167 C    1.221   207 H    0.961
   184   6 C    3.897 --   192 C    1.419   185 C    1.417   157 C    1.052
   185   6 C    3.860 --   186 C    1.465   184 C    1.417   208 H    0.988
   186   6 C    3.896 --   185 C    1.465   187 C    1.400   209 H    0.985
   187   6 C    3.899 --   186 C    1.400   191 C    1.400   188 C    1.040
   188   6 C    4.098 --   190 O    1.816   189 O    1.210   187 C    1.040
   189   8 O    2.367 --   188 C    1.210   210 H    0.943   190 O    0.184
   190   8 O    2.030 --   188 C    1.816   189 O    0.184
   191   6 C    3.893 --   192 C    1.463   187 C    1.400   211 H    0.986
   192   6 C    3.864 --   191 C    1.463   184 C    1.419   212 H    0.988
   193   1 H    1.029 --   153 C    0.998
   194   1 H    1.031 --   154 C    0.999
   195   1 H    1.083 --   156 N    0.961
   196   1 H    1.036 --   159 C    0.999
   197   1 H    1.033 --   160 C    0.999
   198   1 H    1.029 --   165 C    0.998
   199   1 H    1.031 --   166 C    0.999
   200   1 H    1.049 --   170 C    0.988
   201   1 H    1.031 --   171 C    0.985
   202   1 H    0.980 --   174 O    0.943
   203   1 H    1.022 --   176 C    0.986
   204   1 H    1.046 --   177 C    0.988
   205   1 H    1.037 --   179 C    0.999
   206   1 H    1.033 --   180 C    0.999
   207   1 H    1.083 --   183 N    0.961
   208   1 H    1.046 --   185 C    0.988
   209   1 H    1.031 --   186 C    0.985
   210   1 H    0.980 --   189 O    0.943
   211   1 H    1.022 --   191 C    0.986
   212   1 H    1.049 --   192 C    0.988
   213   6 C    3.819 --   243 C    1.278   214 C    1.274   142 C    1.234
   214   6 C    3.901 --   215 C    1.275   213 C    1.274   218 N    1.252
   215   6 C    3.824 --   216 C    1.572   214 C    1.275   255 H    0.998
   216   6 C    3.815 --   215 C    1.572   217 C    1.266   256 H    0.999
   217   6 C    3.883 --   219 C    1.331   216 C    1.266   218 N    1.221
   218   7 N    3.249 --   214 C    1.252   217 C    1.221   257 H    0.961
   219   6 C    3.831 --   220 C    1.375   217 C    1.331   246 C    1.053
   220   6 C    3.923 --   219 C    1.375   223 N    1.349   221 C    1.160
   221   6 C    3.838 --   222 C    1.692   220 C    1.160   258 H    0.999
   222   6 C    3.847 --   221 C    1.692   224 C    1.167   259 H    0.999
   223   7 N    2.542 --   224 C    1.416   220 C    1.349
   224   6 C    3.942 --   223 N    1.416   225 C    1.282   222 C    1.167
   225   6 C    3.819 --   224 C    1.282   226 C    1.277   143 C    1.226
   226   6 C    3.902 --   225 C    1.277   227 C    1.273   245 N    1.251
   227   6 C    3.823 --   228 C    1.573   226 C    1.273   260 H    0.998
   228   6 C    3.816 --   227 C    1.573   229 C    1.265   261 H    0.999
   229   6 C    3.883 --   230 C    1.333   228 C    1.265   245 N    1.220
   230   6 C    3.833 --   240 C    1.374   229 C    1.333   231 C    1.053
   231   6 C    3.897 --   239 C    1.418   232 C    1.418   230 C    1.053
   232   6 C    3.864 --   233 C    1.465   231 C    1.418   262 H    0.988
   233   6 C    3.896 --   232 C    1.465   234 C    1.400   263 H    0.985
   234   6 C    3.899 --   233 C    1.400   238 C    1.400   235 C    1.040
   235   6 C    4.098 --   237 O    1.817   236 O    1.209   234 C    1.040
   236   8 O    2.366 --   235 C    1.209   264 H    0.944   237 O    0.183
   237   8 O    2.031 --   235 C    1.817   236 O    0.183
   238   6 C    3.892 --   239 C    1.463   234 C    1.400   265 H    0.986
   239   6 C    3.860 --   238 C    1.463   231 C    1.418   266 H    0.988
   240   6 C    3.922 --   230 C    1.374   244 N    1.348   241 C    1.161
   241   6 C    3.838 --   242 C    1.690   240 C    1.161   267 H    0.999
   242   6 C    3.847 --   241 C    1.690   243 C    1.168   268 H    0.999
   243   6 C    3.941 --   244 N    1.418   213 C    1.278   242 C    1.168
   244   7 N    2.545 --   243 C    1.418   240 C    1.348
   245   7 N    3.247 --   226 C    1.251   229 C    1.220   269 H    0.961
   246   6 C    3.897 --   254 C    1.418   247 C    1.418   219 C    1.053
   247   6 C    3.859 --   248 C    1.465   246 C    1.418   270 H    0.988
   248   6 C    3.896 --   247 C    1.465   249 C    1.400   271 H    0.985
   249   6 C    3.899 --   248 C    1.400   253 C    1.400   250 C    1.040
   250   6 C    4.098 --   252 O    1.816   251 O    1.210   249 C    1.040
   251   8 O    2.366 --   250 C    1.210   272 H    0.943   252 O    0.184
   252   8 O    2.030 --   250 C    1.816   251 O    0.184
   253   6 C    3.893 --   254 C    1.464   249 C    1.400   273 H    0.986
   254   6 C    3.864 --   253 C    1.464   246 C    1.418   274 H    0.988
   255   1 H    1.029 --   215 C    0.998
   256   1 H    1.031 --   216 C    0.999
   257   1 H    1.083 --   218 N    0.961
   258   1 H    1.037 --   221 C    0.999
   259   1 H    1.033 --   222 C    0.999
   260   1 H    1.029 --   227 C    0.998
   261   1 H    1.031 --   228 C    0.999
   262   1 H    1.049 --   232 C    0.988
   263   1 H    1.031 --   233 C    0.985
   264   1 H    0.980 --   236 O    0.944
   265   1 H    1.022 --   238 C    0.986
   266   1 H    1.046 --   239 C    0.988
   267   1 H    1.037 --   241 C    0.999
   268   1 H    1.033 --   242 C    0.999
   269   1 H    1.083 --   245 N    0.961
   270   1 H    1.046 --   247 C    0.988
   271   1 H    1.031 --   248 C    0.985
   272   1 H    0.980 --   251 O    0.943
   273   1 H    1.022 --   253 C    0.986
   274   1 H    1.049 --   254 C    0.988
 ---------------------------------------------------------------------------

Topologies differ in total number of bonds
Writing topology from bond orders to xtbtopo.mol

 dipole moment from electron density (au)
     X       Y       Z   
-138.2556   0.0418  -0.0898  total (Debye):  351.411


           -------------------------------------------------
          | TOTAL ENERGY             -568.195603192116 Eh   |
          | GRADIENT NORM               0.116348369772 Eh/α |
          | HOMO-LUMO GAP               0.094716223138 eV   |
           -------------------------------------------------
########################################################################
[WARNING] Runtime exception occurred
-1- restart_readRestart: Dimension missmatch in restart file.
########################################################################

------------------------------------------------------------------------
 * finished run on 2022/07/30 at 22:11:42.697     
------------------------------------------------------------------------
 total:
 * wall-time:     0 d,  0 h,  0 min, 45.853 sec
 *  cpu-time:     0 d,  0 h,  0 min, 45.559 sec
 * ratio c/w:     0.994 speedup
 SCF:
 * wall-time:     0 d,  0 h,  0 min, 44.764 sec
 *  cpu-time:     0 d,  0 h,  0 min, 44.480 sec
 * ratio c/w:     0.994 speedup

