274
 energy: -506.752284527385 gnorm: 1.541456699182 xtb: 6.5.1 (b24c23e)
C           40.29181100000000        0.01952500000000        0.08406400000000
C           41.02220799999999       -1.35806700000000        0.05485000000000
C           40.41692200000000       -2.59067200000000        0.14514400000000
C           41.43988800000000       -3.56645200000000        0.02163800000000
C           42.63571200000000       -2.89490300000000       -0.14463800000000
N           42.37476899999999       -1.54937700000000       -0.06943600000000
C           44.05777600000000       -3.54480500000000       -0.40444200000000
C           45.18678700000000       -2.78774100000000       -0.35605700000000
C           46.49073400000000       -3.33944100000000       -0.66243000000000
C           47.39089400000000       -2.36859800000000       -0.56251000000000
N           45.38153400000000       -1.46373200000000       -0.06373700000000
C           46.71146300000000       -1.14937800000000       -0.17073000000000
C           47.37773400000000        0.02031900000000        0.02109600000000
C           46.60040900000000        1.32467700000000        0.48251800000000
C           47.14254300000000        2.39906100000000        1.15989200000000
C           46.11695700000000        3.36337500000000        1.32333700000000
C           44.97424900000000        2.84610000000000        0.75194100000000
C           43.56293900000000        3.56300100000000        0.66276500000000
C           43.52632600000000        5.03768300000000        0.76877800000000
C           43.83608600000000        5.83171300000000       -0.34125600000000
C           43.80963300000000        7.22497900000000       -0.24013800000000
C           43.47426899999999        7.83307200000000        0.97656600000000
C           43.45639900000000        9.31421700000000        1.04101000000000
O           43.12908200000000        9.78517300000000        2.25952100000000
O           43.70177800000000       10.08252900000000        0.12827800000000
C           43.16624000000000        7.04127900000000        2.09053800000000
C           43.19389800000000        5.64883600000000        1.98420200000000
C           42.43855700000000        2.82202100000000        0.48486500000000
C           41.11549800000000        3.41178800000000        0.38168200000000
C           40.23156400000000        2.43020500000000        0.22804100000000
C           40.95518000000000        1.18282200000000        0.22113600000000
N           42.27618499999999        1.47022000000000        0.36545600000000
N           45.26538700000000        1.58441000000000        0.28903600000000
C           44.09590200000000       -4.98410900000000       -0.75197600000000
C           43.82909800000000       -5.39770100000000       -2.06235500000000
C           43.84760000000000       -6.75534400000000       -2.39196400000000
C           44.13678899999999       -7.70946000000000       -1.40733400000000
C           44.16815399999999       -9.16084200000000       -1.70829800000000
O           43.90151199999999       -9.43872500000000       -2.99825100000000
O           44.40280800000000      -10.05877400000000       -0.91911100000000
C           44.40557300000000       -7.29876300000000       -0.09529200000000
C           44.38207500000000       -5.94040900000000        0.22956300000000
H           39.21376799999999        0.02479700000000       -0.02234900000000
H           39.35953499999999       -2.76764200000000        0.26777800000000
H           41.31329500000000       -4.63881700000000        0.02774600000000
H           43.07434800000000       -0.81199500000000       -0.10541900000000
H           46.70445800000000       -4.35613400000000       -0.93936800000000
H           48.44347900000000       -2.49115500000000       -0.74157800000000
H           48.16584399999999        2.48806800000000        1.49121100000000
H           46.20442100000000        4.32706800000000        1.80123300000000
H           44.09375200000000        5.34999600000000       -1.28235700000000
H           44.05004799999999        7.82529400000000       -1.11375300000000
H           43.15986600000000       10.75503100000000        2.13878800000000
H           42.90142900000000        7.48939600000000        3.04319300000000
H           42.95338999999999        5.02280100000000        2.84140600000000
H           40.88374100000000        4.46046100000000        0.42033000000000
H           39.16767800000000        2.53981300000000        0.12205600000000
H           44.58141800000000        0.93087400000000       -0.08324800000000
H           43.60889600000000       -4.64733200000000       -2.81880000000000
H           43.63560900000000       -7.04926700000000       -3.41568800000000
H           43.96069800000000      -10.41445500000000       -3.03242600000000
H           44.63485000000000       -8.02621600000000        0.67929900000000
H           44.58875900000000       -5.61019400000000        1.24504700000000
C          107.07131299999999       -0.00720400000000        0.07773600000000
C          106.34091599999999        1.23726000000000        0.66928100000000
C          106.94620199999999        2.29854300000000        1.30264100000000
C          105.92323600000000        3.22612200000000        1.62974600000000
C          104.72741200000000        2.70040700000000        1.18002300000000
N          104.98835600000000        1.46398800000000        0.64396300000000
C          103.30534900000001        3.39781000000000        1.23918700000000
C          102.17633800000000        2.69941300000000        0.94299900000000
C          100.87238999999998        3.32991700000000        0.91650700000000
C           99.97223099999999        2.41732500000000        0.57053300000000
N          101.98158999999998        1.38487800000000        0.61065700000000
C          100.65166100000000        1.15186300000000        0.37407800000000
C           99.98539099999999        0.02031900000000        0.02109600000000
C          100.76271499999999       -1.35246900000000       -0.15128300000000
C          100.22058199999999       -2.61651700000000       -0.02752100000000
C          101.24616699999999       -3.55175400000000       -0.31378500000000
C          102.38887600000000       -2.83319500000000       -0.59260300000000
C          103.80018600000000       -3.43401700000000       -0.99374400000000
C          103.83679900000000       -4.79969700000000       -1.56017200000000
C          103.52703800000000       -5.01174800000000       -2.90839100000000
C          103.55349099999998       -6.30246000000000       -3.44269100000000
C          103.88885500000001       -7.39152800000000       -2.62778100000000
C          103.90672499999998       -8.74434800000000       -3.23426400000000
O          104.23404200000000       -9.71164600000000       -2.35625300000000
O          103.66134599999999       -9.02187400000000       -4.39459200000000
C          104.19688400000000       -7.18324200000000       -1.27704500000000
C          104.16922599999998       -5.89092600000000       -0.74777800000000
C          104.92456799999999       -2.69192500000000       -0.82053400000000
C          106.24762600000000       -3.17282800000000       -1.17719200000000
C          107.13155999999999       -2.22655000000000       -0.87442200000000
C          106.40794500000000       -1.10847700000000       -0.32131800000000
N          105.08694000000000       -1.43007600000000       -0.32117400000000
N          102.09773699999998       -1.49788200000000       -0.44068100000000
C          103.26722299999999        4.84015700000000        1.57386900000000
C          103.53402599999998        5.79736900000000        0.58802100000000
C          103.51552399999998        7.15868600000000        0.90211300000000
C          103.22633500000001        7.57005700000000        2.21001500000000
C          103.19497099999998        9.00231800000000        2.59173900000000
O          103.46161200000000        9.82906900000000        1.56330200000000
O          102.96031599999999        9.45109800000000        3.69975300000000
C          102.95755199999999        6.61468700000000        3.19864700000000
C          102.98104999999998        5.25486600000000        2.87998800000000
H          108.14935699999999        0.03579500000000       -0.01974500000000
H          108.00359000000000        2.40174400000000        1.49160400000000
H          106.04982899999999        4.18192000000000        2.11601100000000
H          104.28877700000000        0.82100900000000        0.28118700000000
H          100.65866699999999        4.36285900000000        1.12480900000000
H           98.91964599999999        2.60716100000000        0.46542300000000
H           99.19728000000001       -2.84462600000000        0.22872300000000
H          101.15870299999999       -4.62742400000000       -0.31869800000000
H          103.26937300000000       -4.15921200000000       -3.53361400000000
H          103.31307600000000       -6.44736000000000       -4.49273200000000
H          104.20325800000001      -10.52442400000000       -2.89901500000000
H          104.46169499999999       -8.01092500000000       -0.62643000000000
H          104.40973500000000       -5.71567900000000        0.29912600000000
H          106.47938300000000       -4.12751600000000       -1.61283000000000
H          108.19544600000000       -2.27700400000000       -1.01830100000000
H          102.78170599999999       -0.74679900000000       -0.48042900000000
H          103.75422899999998        5.46580900000000       -0.42456500000000
H          103.72751599999999        7.88040700000000        0.11883700000000
H          103.40242600000001       10.71655100000000        1.97023300000000
H          102.72827499999998        6.91762700000000        4.21717800000000
H          102.77436500000000        4.50439900000000        3.63962600000000
C           50.15715400000000        0.03500900000000        0.03137200000000
C           51.61538000000000        0.01317300000000        0.01349900000000
C           52.74930799999999       -0.00758100000000        0.01200800000000
C           54.11068999999999       -0.02017100000000        0.00981700000000
C           55.38490899999999       -0.00986400000000        0.00505200000000
C           56.57337099999999        0.00893400000000       -0.00110400000000
C           57.92573200000000        0.03371800000000        0.01476400000000
C           59.02599900000000        0.03500900000000        0.03137200000000
C           69.18512099999998        0.03500900000000        0.03137200000000
C           70.64334700000001        0.01317300000000        0.01349900000000
C           71.77727500000000       -0.00758100000000        0.01200800000000
C           73.13865699999998       -0.02017100000000        0.00981700000000
C           74.41287600000000       -0.00986400000000        0.00505200000000
C           75.60133800000000        0.00893400000000       -0.00110400000000
C           76.95369900000000        0.03371800000000        0.01476400000000
C           78.05396600000000        0.03500900000000        0.03137200000000
C           88.21308800000000        0.03500900000000        0.03137200000000
C           89.67131499999999        0.01317300000000        0.01349900000000
C           90.80524300000000       -0.00758100000000        0.01200800000000
C           92.16662499999998       -0.02017100000000        0.00981700000000
C           93.44084300000000       -0.00986400000000        0.00505200000000
C           94.62930600000000        0.00893400000000       -0.00110400000000
C           95.98166700000000        0.03371800000000        0.01476400000000
C           97.08193400000000        0.03500900000000        0.03137200000000
C           60.57986800000000       -0.02742300000000       -0.02750900000000
C           61.37424899999999        0.76558300000000       -1.14561300000000
C           60.86994600000000        1.22878100000000       -2.34379300000000
C           61.90751400000000        1.94878000000000       -2.98964400000000
C           63.01452400000000        1.89668600000000       -2.16871000000000
N           62.70196599999999        1.11141500000000       -1.08745400000000
C           64.40306400000000        2.61563200000000       -2.41564300000000
C           65.53855900000001        2.11444800000000       -1.86257800000000
C           66.82517100000000        2.76337800000000       -2.01026800000000
C           67.73356800000001        2.04543400000000       -1.35856400000000
N           65.74710700000000        1.00319200000000       -1.09410600000000
C           67.07180300000000        0.90236200000000       -0.76280100000000
C           67.73599699999998       -0.02742300000000       -0.02750900000000
C           66.94132000000000       -1.24750400000000        0.59681000000000
C           67.44412199999999       -2.50110300000000        0.88019600000000
C           66.40614200000000       -3.24340000000000        1.49968300000000
C           65.30069399999999       -2.42175100000000        1.56908800000000
C           63.91307999999999       -2.76777800000000        2.24750300000000
C           63.92559099999999       -3.72866400000000        3.37365200000000
C           63.48722200000000       -5.04625500000000        3.19004700000000
C           63.51386700000000       -5.95294100000000        4.25242800000000
C           63.98375899999999       -5.54692400000000        5.50806400000000
C           63.99583600000000       -6.54051500000000        6.60846600000000
O           64.46000500000000       -6.03830700000000        7.76860900000000
O           63.63800699999999       -7.70300200000000        6.53764300000000
C           64.42660100000001       -4.23107300000000        5.69462600000000
C           64.39765300000001       -3.32777000000000        4.62905400000000
C           62.77706500000000       -2.15096600000000        1.82894200000000
C           61.49116100000000       -2.38745100000000        2.45232400000000
C           60.58260500000000       -1.64052500000000        1.83428200000000
C           61.24380499999999       -0.88962900000000        0.78617300000000
N           62.56782900000000       -1.23477700000000        0.83607400000000
N           65.61402800000000       -1.23840500000000        0.94883200000000
C           64.39467200000000        3.85809400000000       -3.22067200000000
C           63.92466100000000        5.05324400000000       -2.66397800000000
C           63.90176199999999        6.22454900000000       -3.42534200000000
C           64.34780000000001        6.20647900000000       -4.75313000000000
C           64.30697800000000        7.47132200000000       -5.52569300000000
O           64.75494000000000        7.33336700000000       -6.78838000000000
O           63.92075199999999        8.55424600000000       -5.12287700000000
C           64.81563000000000        5.01164900000000       -5.31519700000000
C           64.83609300000001        3.84299200000000       -4.55007900000000
H           59.86275500000000        1.08539200000000       -2.70461900000000
H           61.84741300000000        2.46382600000000       -3.93649100000000
H           63.36136600000000        0.79892900000000       -0.38062900000000
H           67.02126699999999        3.67555700000000       -2.54458000000000
H           68.77808400000001        2.28975100000000       -1.29280100000000
H           68.45042799999999       -2.83891600000000        0.68422000000000
H           66.46475900000000       -4.25530900000000        1.87124200000000
H           63.12207599999999       -5.35113300000000        2.21110600000000
H           63.16630799999999       -6.96988900000000        4.09185200000000
H           64.40442299999999       -6.79937300000000        8.38016900000000
H           64.79612000000000       -3.89319600000000        6.65799600000000
H           64.74039900000000       -2.30359300000000        4.76426400000000
H           61.29534600000000       -3.04522200000000        3.27996800000000
H           59.53835999999999       -1.60927200000000        2.08652500000000
H           64.95528700000000       -0.49308600000000        0.74242100000000
H           63.57906300000000        5.05836400000000       -1.63197700000000
H           63.53494400000000        7.14302200000000       -2.97500000000000
H           64.66639700000000        8.23565000000000       -7.15521900000000
H           65.16704300000001        4.97288700000000       -6.34166200000000
H           65.19923600000000        2.90937200000000       -4.97591200000000
C           79.60783600000001       -0.02742300000000       -0.02750900000000
C           80.40221599999998        0.76558300000000       -1.14561300000000
C           79.89791300000000        1.22878100000000       -2.34379300000000
C           80.93548100000000        1.94878000000000       -2.98964400000000
C           82.04249100000000        1.89668600000000       -2.16871000000000
N           81.72993300000000        1.11141500000000       -1.08745400000000
C           83.43103199999999        2.61563200000000       -2.41564300000000
C           84.56652699999999        2.11444800000000       -1.86257800000000
C           85.85313899999998        2.76337800000000       -2.01026800000000
C           86.76153599999999        2.04543400000000       -1.35856400000000
N           84.77507400000000        1.00319200000000       -1.09410600000000
C           86.09977000000001        0.90236200000000       -0.76280100000000
C           86.76396399999999       -0.02742300000000       -0.02750900000000
C           85.96928699999998       -1.24750400000000        0.59681000000000
C           86.47208900000000       -2.50110300000000        0.88019600000000
C           85.43410900000001       -3.24340000000000        1.49968300000000
C           84.32866100000000       -2.42175100000000        1.56908800000000
C           82.94104700000000       -2.76777800000000        2.24750300000000
C           82.95355799999999       -3.72866400000000        3.37365200000000
C           82.51519000000000       -5.04625500000000        3.19004700000000
C           82.54183500000001       -5.95294100000000        4.25242800000000
C           83.01172699999999       -5.54692400000000        5.50806400000000
C           83.02380300000000       -6.54051500000000        6.60846600000000
O           83.48797199999998       -6.03830700000000        7.76860900000000
O           82.66597399999999       -7.70300200000000        6.53764300000000
C           83.45456799999999       -4.23107300000000        5.69462600000000
C           83.42562000000000       -3.32777000000000        4.62905400000000
C           81.80503199999998       -2.15096600000000        1.82894200000000
C           80.51912799999998       -2.38745100000000        2.45232400000000
C           79.61057300000000       -1.64052500000000        1.83428200000000
C           80.27177200000000       -0.88962900000000        0.78617300000000
N           81.59579700000000       -1.23477700000000        0.83607400000000
N           84.64199499999999       -1.23840500000000        0.94883200000000
C           83.42263899999999        3.85809400000000       -3.22067200000000
C           82.95262800000000        5.05324400000000       -2.66397800000000
C           82.92972999999999        6.22454900000000       -3.42534200000000
C           83.37576799999999        6.20647900000000       -4.75313000000000
C           83.33494600000000        7.47132200000000       -5.52569300000000
O           83.78290699999999        7.33336700000000       -6.78838000000000
O           82.94871899999998        8.55424600000000       -5.12287700000000
C           83.84359700000000        5.01164900000000       -5.31519700000000
C           83.86406100000001        3.84299200000000       -4.55007900000000
H           78.89072200000000        1.08539200000000       -2.70461900000000
H           80.87538100000000        2.46382600000000       -3.93649100000000
H           82.38933400000001        0.79892900000000       -0.38062900000000
H           86.04923400000000        3.67555700000000       -2.54458000000000
H           87.80605199999998        2.28975100000000       -1.29280100000000
H           87.47839499999999       -2.83891600000000        0.68422000000000
H           85.49272600000000       -4.25530900000000        1.87124200000000
H           82.15004399999999       -5.35113300000000        2.21110600000000
H           82.19427500000000       -6.96988900000000        4.09185200000000
H           83.43239100000000       -6.79937300000000        8.38016900000000
H           83.82408699999999       -3.89319600000000        6.65799600000000
H           83.76836600000000       -2.30359300000000        4.76426400000000
H           80.32331400000000       -3.04522200000000        3.27996800000000
H           78.56632800000000       -1.60927200000000        2.08652500000000
H           83.98325500000000       -0.49308600000000        0.74242100000000
H           82.60702999999999        5.05836400000000       -1.63197700000000
H           82.56291200000000        7.14302200000000       -2.97500000000000
H           83.69436399999999        8.23565000000000       -7.15521900000000
H           84.19500999999998        4.97288700000000       -6.34166200000000
H           84.22720400000000        2.90937200000000       -4.97591200000000
274
 energy: -507.239294070323 gnorm: 0.603718583018 xtb: 6.5.1 (b24c23e)
C           40.30782820271915       -0.00445399677533        0.08353166612973
C           41.01797337652041       -1.34315209153696        0.05583986280538
C           40.42001369229412       -2.59513831135615        0.14277448706513
C           41.43701184089947       -3.56466625634014        0.01954651642358
C           42.65109577535119       -2.89898114046794       -0.14652179204927
N           42.37514749182584       -1.54913607825018       -0.07085277560892
C           44.03317332554830       -3.53043232861059       -0.39993305112881
C           45.18974865242799       -2.78284153553870       -0.35647802134969
C           46.49215511882192       -3.34450008843486       -0.66377990883335
C           47.39713123013670       -2.36859405476876       -0.56306130893149
N           45.37447854176784       -1.45983372938068       -0.06318156583208
C           46.71143438818849       -1.14834188448761       -0.16915887338921
C           47.34902296777359        0.04406127796017        0.02939297238633
C           46.60631078626328        1.30786490318079        0.48086632680284
C           47.14119261184515        2.40300882242517        1.15815429054693
C           46.12083482407405        3.36171761596237        1.32101843321874
C           44.95931402141510        2.85012799983124        0.74971878479769
C           43.58662609535702        3.54796678385086        0.66314316243105
C           43.53149749623162        5.03366631761385        0.77030482836467
C           43.83647809855820        5.83192926525665       -0.33952829606721
C           43.80913377394908        7.22095280176192       -0.23959697177395
C           43.47467060784053        7.83179585283614        0.97515173769690
C           43.45669059667037        9.31469337575332        1.04042027094189
O           43.12986640405355        9.78759466610484        2.25633131187103
O           43.70107754461472       10.07584023970255        0.13076339056512
C           43.16638879729479        7.03851020878024        2.08855170919978
C           43.19388310558782        5.64963339045432        1.98259374477675
C           42.43641968554396        2.81735448041404        0.48272737656088
C           41.11399155845314        3.41803864259794        0.38218265834720
C           40.22681306027545        2.43345551206060        0.22780664203921
C           40.95985414952381        1.18517573394553        0.22028926450826
N           42.28372197030146        1.46520385706567        0.36553269009050
N           45.26547614778455        1.58504720391477        0.28693127403113
C           44.09080680116958       -4.98043553551535       -0.74958759795429
C           43.82876156704773       -5.39878485160861       -2.06056933886622
C           43.84827688140378       -6.75283866197453       -2.38956048876446
C           44.13702771396873       -7.70838184246544       -1.40572057423209
C           44.16829828702499       -9.16148103140366       -1.70769118180491
O           43.90231410692431       -9.44164436759517       -2.99550970103326
O           44.40201310591817      -10.05175968421542       -0.92061880210630
C           44.40562413490525       -7.29471871247674       -0.09532867836461
C           44.38210685039801       -5.94033329709203        0.22814192378949
H           39.22111242061322        0.01800267887324       -0.02082725696430
H           39.36135331280936       -2.76939363040468        0.26760321300570
H           41.31224296378955       -4.63754746262257        0.02795298822319
H           43.07362696580686       -0.81278397911577       -0.10554559833875
H           46.70261807629603       -4.36026839442905       -0.94000500365586
H           48.44814547405164       -2.48781840823236       -0.74130312388450
H           48.16471001102182        2.48914588709987        1.49089221537268
H           46.20570273301625        4.32574089134779        1.80077758767896
H           44.09356729727455        5.35143722577084       -1.28092580268030
H           44.04940174486788        7.82517925711033       -1.11155063327461
H           43.15891290898734       10.75529367772737        2.14243616391744
H           42.90208479149071        7.48966968899242        3.04111603859821
H           42.95394723510412        5.02474823114006        2.84030092205221
H           40.88536181735675        4.46522308879869        0.42096868238977
H           39.16396837277410        2.53894391029596        0.12172494007997
H           44.58246203446952        0.93195608008019       -0.08318261250181
H           43.60900247927056       -4.64938590514463       -2.81792702330041
H           43.63624515425010       -7.04978950788043       -3.41349031316042
H           43.95985614211390      -10.41409741691166       -3.03612025377344
H           44.63421396308232       -8.02577424539106        0.67707778372452
H           44.58835555000206       -5.61142571278928        1.24367118887764
C          107.05526339350344        0.01459594712528        0.08807447463615
C          106.34519943402316        1.22336211900227        0.66342372159110
C          106.94310402637549        2.30365558850911        1.30253147782438
C          105.92617002637749        3.22543568046490        1.62707071715191
C          104.71195104492033        2.70487094821224        1.18011135900730
N          104.98794734898057        1.46440786290867        0.64260288266252
C          103.32993228997962        3.38280183918308        1.23675999866416
C          102.17333959884823        2.69495778738449        0.94039050594693
C          100.87096399087183        3.33500976898398        0.91755018338889
C           99.96588454737039        2.41779468106259        0.57006382822861
N          101.98804596479880        1.38076160246987        0.60916223877189
C          100.65029940143583        1.15006001485196        0.37462322298200
C          100.00973881180163       -0.00433340507232        0.01889286719472
C          100.75564336799486       -1.33665528825153       -0.14563528714111
C          100.22180208464084       -2.61934084944683       -0.03087646448981
C          101.24231433951928       -3.54919225736304       -0.31510254771953
C          102.40370718198247       -2.83570586905891       -0.59626941311517
C          103.77654524514618       -3.42070338119112       -0.98659054963397
C          103.83160876569026       -4.79677239367313       -1.55702463911082
C          103.52664584827271       -5.01272192150004       -2.90694882378199
C          103.55398675500396       -6.29910648094663       -3.44040620400561
C          103.88845317895482       -7.38975570654256       -2.62847385083044
C          103.90644079946850       -8.74450399109690       -3.23500118146091
O          104.23325228922977       -9.71238123726656       -2.36018964490262
O          103.66203762314841       -9.01701159411782       -4.38937581716202
C          104.19673895063254       -7.17987238987596       -1.27758001207680
C          104.16923461319803       -5.89090555951260       -0.74958041330406
C          104.92668109596082       -2.68680594701520       -0.82033291072397
C          106.24914098236532       -3.17865544299486       -1.17955189107627
C          107.13629230916396       -2.22936544801058       -0.87609120200193
C          106.40315250873439       -1.11021732413154       -0.32311845873719
N          105.07944940231191       -1.42556120123300       -0.31889678033463
N          102.09720166926945       -1.49721521414198       -0.44280340473281
C          103.27230535473862        4.83578242925781        1.57434362433756
C          103.53435791124112        5.79754345477603        0.59011404004532
C          103.51485320527803        7.15537316107220        0.90313116237246
C          103.22609612741610        7.56837966021958        2.21097539773822
C          103.19483790737591        9.00259094506267        2.59256262151266
O          103.46080223752512        9.83045950685159        1.56705479995977
O          102.96109681754568        9.44551722433098        3.69526962492963
C          102.95749781704494        6.61108750677234        3.19680691053663
C          102.98101892035568        5.25544294170827        2.87867327632840
H          108.14200054077735        0.04119883232875       -0.01532319645577
H          108.00177192886329        2.40339902600125        1.49224039094670
H          106.05089007299047        4.18068282597189        2.11562794555397