201
 energy: -387.462599327895 gnorm: 0.000861132170 xtb: 6.5.1 (b24c23e)
Cu          27.61120375128206       -0.02786424182471       -0.69368890173544
C           24.25945678355432       -0.21343930726179       -0.11133327106449
C           24.83261616557458        1.04803092800892       -0.05804172774727
C           24.11137471995630        2.26363079599014        0.19148253820112
C           25.01661324201095        3.27250363642878        0.16469581966777
C           26.30168181596030        2.68021275933586       -0.09230099714428
N           26.15797308672551        1.33009502039438       -0.22957049884510
C           27.50299823544748        3.38357700768978       -0.20627473455793
C           27.45954113551187        4.85164120933970        0.01272361717996
C           27.07995299436641        5.36977118281544        1.24742594697090
C           27.04531657055685        6.74809668206191        1.45567216037157
C           26.63869743431401        7.23863315252482        2.79656719051478
O           26.64866488986046        8.57521188253959        2.90415655777676
O           26.32444830604566        6.52552069945111        3.71491646070475
C           27.38734006196360        7.62005515109889        0.42219365004651
C           27.76219726035026        7.10643677283409       -0.80939714070651
C           27.80090129329344        5.73439982936923       -1.01446424721350
C           28.74282452314705        2.81490779935390       -0.50247875905186
C           29.98422766090668        3.53411864535066       -0.55785018217935
C           30.95410907752370        2.63182883542390       -0.85153970372332
N           28.97787114517332        1.48915036244769       -0.75460777353411
C           30.31460767041662        1.35547806923354       -0.97080811574592
C           30.98947574802453        0.15595305357127       -1.26088369474254
C           30.38744324552597       -1.11099754074102       -1.34899504900386
C           31.08555640945491       -2.31396442846808       -1.69072238739737
C           30.17456383038435       -3.31957252193205       -1.66694675739919
C           28.91410968096617       -2.73758371784896       -1.29989615758210
N           29.07484558221895       -1.38900878376691       -1.12223599289465
C           27.71618517183175       -3.44170775577914       -1.16617185782139
C           27.75950457554400       -4.91306993359481       -1.36165669902802
C           28.52372817860083       -5.71877640318323       -0.51491346950486
C           28.55866023184294       -7.09531430055524       -0.69015699697016
C           27.83418900730477       -7.68393865181024       -1.71303577147946
C           27.06806815606327       -6.88915076102064       -2.56713052432810
C           26.30500736602145       -7.55713849323443       -3.65104006694681
O           25.59453680262265       -6.70907625468456       -4.40922120514710
O           26.30592265520280       -8.74499779464979       -3.85021492034317
C           27.03122409354585       -5.50755453953309       -2.38975373637125
C           26.47779228680125       -2.87247754688522       -0.85888412794013
C           25.25449299523220       -3.60450483395387       -0.66906315899612
C           24.28874759609464       -2.69831972505167       -0.37836765443735
C           24.91444615502916       -1.40684671143086       -0.37588893951373
N           26.24185753039737       -1.54179187381979       -0.66827529728783
H           23.19224581314813       -0.27329934176823        0.07570956041990
H           23.04721103831766        2.32333204711886        0.35673983656558
H           24.83647256786420        4.32723864679829        0.29652278396926
H           26.82262394704801        4.70657501725551        2.06606959315624
H           26.37336934845813        8.81394480222347        3.80422433665776
H           27.35832764525570        8.69057067042342        0.58514417579460
H           28.02607723385863        7.77848471272086       -1.61814591175185
H           28.08499932273893        5.33942632744207       -1.98348089445182
H           30.09787988699520        4.59104121067570       -0.37882326763943
H           32.01146914204914        2.80521074989481       -0.97138775186279
H           32.13650413758648       -2.36947869933455       -1.92564939415178
H           30.33495592428344       -4.36188618021661       -1.89044481783066
H           29.08090449061872       -5.26121944649315        0.29494380475538
H           29.15267847593631       -7.70839436111059       -0.02201374838039
H           27.84972159627683       -8.75745849475730       -1.86358808137002
H           25.12829790938357       -7.22139789189399       -5.08965244028946
H           26.44561767407513       -4.89134554627298       -3.06170756822069
H           25.15638735353433       -4.67586345735518       -0.73881406547387
H           23.24502250102366       -2.87548831732674       -0.17196958432763
Cu          63.04044356625622        0.15556903136048       -0.50427080023743
C           66.41041371144962        0.04852462844812       -0.01578767493154
C           65.78872620174509       -1.14531404327664       -0.34787234089577
C           66.46785341182384       -2.39664088065225       -0.52772112600248
C           65.52291499667513       -3.31774400159234       -0.83840699902734
C           64.25579057748035       -2.63810319518950       -0.84322149540774
N           64.44857452256157       -1.31912609988071       -0.54781888022997
C           63.02655213211199       -3.23405213747180       -1.13158069614968
C           63.01966917678450       -4.69739853332308       -1.38330902898479
C           63.40985801675388       -5.58434957222669       -0.38419671474381
C           63.40059695780415       -6.95930542930798       -0.61548135670791
C           63.82237918583914       -7.85321950960134        0.49200619621538
O           63.76281797725941       -9.15644024876595        0.18174289560164
O           64.18850437025358       -7.46958247629473        1.57319977831569
C           63.00337406283973       -7.45655706747649       -1.85660361390566
C           62.61774825585486       -6.57509359291510       -2.85423187831060
C           62.62289085699777       -5.20680964064186       -2.62171877293712
C           61.80394705965102       -2.56326844936299       -1.19499835025909
C           60.53548899912804       -3.18848735992137       -1.43970574078307
C           59.59638038709821       -2.20905508262920       -1.40797500079263
N           61.61676055157001       -1.21882204839545       -1.00909685539782
C           60.28230773040323       -0.98240066691462       -1.13521908520657
C           59.64873006111647        0.26704188194133       -1.01278024401999
C           60.29747126124565        1.47396076711837       -0.69601156785060
C           59.63915788619435        2.74196486798753       -0.60492712762679
C           60.58538929615843        3.65541246033549       -0.26934696363356
C           61.82834141926570        2.94836458728259       -0.14777793704537
N           61.62216743199936        1.62169230106920       -0.42077189716118
C           63.05293315119128        3.53625213797881        0.17436794066440
C           63.05366583967984        4.98792279086023        0.48745176173700
C           62.33951331743511        5.47329177575488        1.58512894204057
C           62.34163640694749        6.82794472394677        1.88746261534974
C           63.05301850112127        7.71467229614029        1.09671764640760
C           63.76888026000969        7.24214271041259       -0.00431347137940
C           64.51753969159564        8.22446197942723       -0.82763867285926
O           65.18155052113130        7.67107855078160       -1.85309371547341
O           64.54333585039252        9.40966628001745       -0.61492776505288
C           63.76936173936286        5.88160118258214       -0.30595782352190
C           64.27599530331049        2.86502644628634        0.23009390397485
C           65.53033354619753        3.45995940849255        0.60436112572368
C           66.46869568145964        2.48320594146995        0.54318921142876
C           65.79482767554036        1.28055655079017        0.14506130250870
N           64.46635011840617        1.53976682678836       -0.03869459055309
H           67.48370019604802        0.01418854514079        0.13984580041025
H           67.53310204247830       -2.53613826046183       -0.43256501139286
H           65.66469755305673       -4.36386944817726       -1.05702002624969
H           63.71038473441740       -5.21595408915705        0.59057802082223
H           64.05176361953978       -9.67028858558673        0.95317961590311
H           62.99871991810728       -8.52491159320489       -2.03549891669986
H           62.31147091718694       -6.95462027095928       -3.82248711775768
H           62.33063259563725       -4.52249826984005       -3.41032466269408
H           60.38417327074278       -4.24373540913330       -1.59961089457416
H           58.53108476350425       -2.30077602564681       -1.54705105627026
H           58.58817116504328        2.90410684713737       -0.78294476313450
H           60.45945206632612        4.71699994410577       -0.13067468523681
H           61.79172470337669        4.77877394802319        2.21223403818946
H           61.78647641392449        7.18926422269626        2.74558404931067
H           63.06523995658426        8.77587344916961        1.31823068101567
H           65.64074385038809        8.37576844476011       -2.33826414360853
H           64.31565071499890        5.51908892580798       -1.16869223251634
H           65.66653795120450        4.49140856713698        0.88699900468849
H           67.52350415744172        2.55390366724899        0.75704946546405
C           32.38053159247043        0.23755300127542       -1.45124260409546
C           33.59289868015320        0.34713185236968       -1.57731187936947
C           34.92589452743650        0.50133669203223       -1.66070916364049
C           36.14084463850338        0.68577533012162       -1.68729599719320
C           37.45984388379586        0.92971542524856       -1.63893172333528
C           38.65733751176470        1.18346408895357       -1.55884437234706
C           39.95706470491455        1.54541923484359       -1.30505495522635
C           40.95077993029103        2.41862247859939       -1.65959109630668
C           49.34904752803723        0.55317484174785       -1.49256053796370
C           50.57157633063764        0.51806769988472       -1.57205325047159
C           51.91150192067354        0.47738859536612       -1.62028472420942
C           53.14248271488362        0.44442506182522       -1.61139690589455
C           54.47811845087763        0.40810326062394       -1.56100435658307
C           55.70589277026505        0.37714616382667       -1.47534895603604
C           57.04170938501293        0.34167733478226       -1.34953658133900
C           58.25707542973255        0.30938519703754       -1.20120254422997
Cu          44.53321495880103        0.75624628046969       -0.90786701110191
C           41.12677013121338        0.92765479535281       -0.73761753865735
C           41.67956651583761       -0.33234294849684       -1.03785619553192
C           40.91486119374862       -1.48999888690378       -1.35186220042070
C           41.81010095165539       -2.48994845468405       -1.59483868136689
C           43.11629016075623       -1.93358944899059       -1.42940773169557
N           43.00429056790601       -0.61607618224069       -1.05307894354591
C           44.31099853967159       -2.59499032170129       -1.73458262203678
C           44.20767496236423       -4.03111444225699       -2.09337262486769
C           43.69876289524703       -4.95031457417375       -1.18027398738035
C           43.60347466963326       -6.30052420172030       -1.51464236794473
C           43.05633292121064       -7.23219309737339       -0.49659473055641
O           43.01315787822998       -8.50840744373353       -0.90618946804204
O           42.68029088289860       -6.89894270352128        0.59803158663694
C           44.01331836650252       -6.73971859946873       -2.77352185923661
C           44.51508397600399       -5.82549468857703       -3.68650405597399
C           44.61423931552363       -4.48254216231153       -3.35145714924203
C           45.58180801197293       -2.02023673070193       -1.76355363324620
C           46.80020561047836       -2.72918193140896       -2.02392770445748
C           47.81319964056227       -1.82786425941153       -1.92967353949902
N           45.87231706975805       -0.70044089857671       -1.51435437019820
C           47.21881241201879       -0.57208121656623       -1.59188499609556
C           47.95769985591565        0.60419621316414       -1.32153415891705
C           47.41436302358479        1.79118142161997       -0.80978601500125
C           48.17897775108783        2.97140144209338       -0.51509859792623
C           47.33124347354438        3.85905436502253        0.05807519971638
C           46.03421839797544        3.23588315510125        0.09390852948677
N           46.11740624650923        1.98087466279648       -0.44318736031365
C           44.87549807009314        3.80824910777315        0.61199600679850
C           44.99762106180407        5.05298315173251        1.39897265298734
C           44.21183453324418        6.16986972891170        1.09583821945841
C           44.32807683386583        7.34005645194192        1.83192656827108
C           45.22830263748851        7.41488170040124        2.88197157152727
C           46.01950344377084        6.30850469161779        3.19610525101463
C           46.97081274566579        6.42568553106839        4.32957581365471
O           47.68426647614501        5.31173480311189        4.54937277529436
O           47.10751963448133        7.41541714382685        5.00222493032268
C           45.90403525355948        5.13405151674257        2.45653194705041
C           43.58820837973215        3.26833234003067        0.42418445661878
C           42.42281736915882        3.69739529525278        1.16820648862093
C           41.36912778262557        3.01552028563025        0.69515734536406
C           41.85115520188633        2.18661218323165       -0.42578703077040
N           43.26091920131003        2.31831545957324       -0.47005994484420
H           39.83818256751362       -1.52820147990491       -1.39480637851872
H           41.59691930939253       -3.50397107770363       -1.89195645217767
H           43.38547057749437       -4.62800379124721       -0.19329887369453
H           42.64639856976765       -9.04979593974483       -0.18840149028587
H           43.93649455301470       -7.78877203258158       -3.03236829172321
H           44.83099513452263       -6.15930816347538       -4.66840556677610
H           44.99502729061595       -3.77073395831999       -4.07530225823498
H           46.87497052066245       -3.78443288175473       -2.23114750497501
H           48.87097396232064       -1.99741800079279       -2.05178656918726
H           49.23166662392402        3.08811176487602       -0.71760592297964
H           47.54450781991122        4.86292383786882        0.38817538034966
H           43.51884661813832        6.12262785236968        0.26309289426603
H           43.71441547375940        8.19760208608926        1.58027314208974
H           45.33128674347474        8.32141798088555        3.46748223473573
H           48.27779694392515        5.46924242092972        5.30145711927900
H           46.50628333050941        4.27153056346485        2.71651489298117
H           42.44340788302584        4.40603642920625        1.98075733003057
H           40.33408468549186        3.05284109516142        0.99284785300667
