248
 energy: -423.940652222423 gnorm: 0.000370509733 xtb: 6.5.1 (b24c23e)
Fe          37.97859356557598        0.39302654412759        0.26339915115756
C           34.58973397573541        0.32456001674086        0.23196494315937
C           35.25819299594530       -0.87621407342965        0.35196417324587
C           34.59888599769820       -2.13967085205285        0.49104478141982
C           35.56717961160263       -3.08577821100729        0.47739229966794
C           36.81712714543713       -2.39895120043062        0.31929436838512
N           36.61633663846080       -1.04492624182330        0.28371918354914
C           38.04422536744729       -3.03752995280049        0.18157077057883
C           38.07568837472336       -4.51827263664474        0.12917362234323
C           37.44932548559290       -5.19913415969682       -0.84432788301282
C           37.45796205475769       -6.70175503747041       -0.92502723499912
N           38.44254901842148       -7.28166560990328       -0.01038827520654
C           38.93684557715543       -6.57823635151020        1.05047115478056
C           38.81681751463726       -5.24031310450876        1.14971535771987
C           39.24515137125038       -2.34644974297839        0.09054458128799
C           40.51835933454699       -2.97929182185771       -0.08754624832800
C           41.45206364326528       -1.99883414574119       -0.04541372741198
N           39.40022780106363       -0.98534917432207        0.19710650006262
C           40.74685732850548       -0.77017775898583        0.14665383969917
C           41.38717293464602        0.46145700648428        0.31503764600528
C           40.69286389647429        1.66695124949456        0.45736355962702
C           41.34213350062564        2.92415843370110        0.66193395176994
C           40.36953712760718        3.86694965292174        0.66444049971434
C           39.12877311292928        3.18228516331633        0.45275264254261
N           39.34111118755226        1.82783608863588        0.36196498118437
C           37.90399296134389        3.82387118474047        0.32525024257803
C           37.87533427038660        5.30504779531599        0.36702987845353
C           37.20172679589825        5.96685284696760        1.32192312792749
C           37.14827292497153        7.46916343352251        1.39053029294933
N           38.13154585001572        8.08111502289898        0.49562736896162
C           38.67626212350073        7.39121792942460       -0.54936188973835
C           38.61003616849037        6.04909630167993       -0.64227140075889
C           36.70683078926227        3.13551195372519        0.16635015541954
C           35.43329299677885        3.77039255471115       -0.01827959394823
C           34.50394490172224        2.78612847272360       -0.03928563725928
C           35.21103654854475        1.55114408136782        0.11931235326613
N           36.55994583777344        1.77470209724014        0.20847295025478
H           33.50565868497988        0.30269101012544        0.22347105450821
H           33.53187915347645       -2.26608627790937        0.58600698087533
H           35.45789220208678       -4.15412217539231        0.57159569140858
H           36.89413891026339       -4.69342730845942       -1.62569327043998
H           37.70614384831584       -7.02496014463302       -1.94612614031830
H           36.45314058135344       -7.10117962107926       -0.69485636728358
H           38.39039828893477       -8.28466355752601        0.08469296645247
H           39.49248657723331       -7.17075754883505        1.77021089830753
H           39.25186642394033       -4.69784299335238        1.97690016589425
H           40.66794597554343       -4.03764280609155       -0.22717934958093
H           42.52317282432822       -2.08354833147662       -0.13539762214022
H           42.40551717070457        3.05246473747059        0.78548100863696
H           40.47242982690063        4.93155642764716        0.79865217340009
H           36.65059742641264        5.44465520832161        2.09526041366339
H           37.35783337950821        7.80960166724133        2.41462882720143
H           36.13430714224351        7.82618344670395        1.13228971736224
H           38.04377958197327        9.08090194035383        0.39322155339188
H           39.22489721012919        8.00056730402022       -1.26037505237390
H           39.08438729691672        5.51886315373936       -1.45567049697597
H           35.28296487475292        4.83275279572067       -0.12299070943633
H           33.43443803922673        2.86895839466855       -0.15238494046595
Fe          85.86757737319270        0.27011507716834        0.22419865862689
C           89.25028612898684        0.36931337315635        0.20303847380626
C           88.57177486855305        1.52260703600700        0.54071024135610
C           89.21430178871255        2.74444863307335        0.92107833259976
C           88.23698762058207        3.67260419394816        1.05250710549863
C           86.99871434134526        3.02035507847822        0.73571172307091
N           87.21380972331387        1.69319870105960        0.47537880764208
C           85.77386982845097        3.67044285775897        0.63351352144786
C           85.72511890196932        5.13998462827419        0.81263826202519
C           86.41663231024275        5.97095576480039        0.01548251492530
C           86.39290388429990        7.46660742585584        0.17994341461978
N           85.32204351175123        7.88908961787581        1.08381466604461
C           84.75607540834929        7.02288122112585        1.97542125334613
C           84.89212208414618        5.68707548043879        1.87074959063957
C           84.58865879909271        2.99617194993088        0.36775706829307
C           83.32101785388735        3.64019301498108        0.19097504546121
C           82.39580366505459        2.65763839300729        0.07035106044535
N           84.44171150145570        1.63211975287092        0.30110943486964
C           83.10051276140877        1.41741025943892        0.16643901573029
C           82.46575323289403        0.17273189635057        0.23405105039979
C           83.16939754012279       -1.03387840698184        0.29446833196595
C           82.53653619996729       -2.31170541855112        0.39633624863254
C           83.51622293770414       -3.24044952929862        0.27881895628740
C           84.74505193981652       -2.52598881127609        0.09731761827226
N           84.52029778736899       -1.17223513338914        0.15569687997450
C           85.96749328197446       -3.13227679881306       -0.16330692972470
C           86.00881353716183       -4.60493679278742       -0.31787966376338
C           86.75075438189893       -5.37551926018433        0.49455759953623
C           86.82140316846704       -6.87257790393472        0.36062975879825
N           85.79199601004701       -7.37878657288245       -0.54831273485001
C           85.17079532330442       -6.56584328069761       -1.45252142343969
C           85.21504631648099       -5.22232392975869       -1.36702981370504
C           87.15141132748394       -2.41251468402223       -0.28106228857788
C           88.42219078946188       -2.99441324819767       -0.60637896878487
C           89.34431789229106       -2.00850107006738       -0.49951943478339
C           88.63581910633351       -0.82281767028726       -0.12173757454361
N           87.29106904967669       -1.07245680110317       -0.03674754322756
H           90.33408358990017        0.40102909352694        0.19541905846793
H           90.27724092811216        2.85814506887078        1.06516800521181
H           88.33365278917222        4.70706443369679        1.34026387305079
H           87.03901973304399        5.60013400539009       -0.79048885807769
H           86.23188341697472        7.95243362321131       -0.79291331698327
H           87.36730642740304        7.82294670902523        0.56200167971253
H           85.34996880874284        8.86379902072868        1.34280561475137
H           84.13241125096145        7.49008550924018        2.73079982000182
H           84.40088666145220        5.01749175398776        2.56226820908955
H           83.16890202237711        4.70704628443610        0.16336104657335
H           81.33025789700285        2.74896913047221       -0.06680889222132
H           81.47774495342848       -2.46195674161455        0.53452985723823
H           83.42528982987768       -4.31415186224595        0.31076879509684
H           87.34799567400340       -4.95050610441606        1.29280168046374
H           86.67736383368607       -7.34806745252043        1.34144839209569
H           87.82114593035266       -7.17531710674755       -0.00135155712106
H           85.88591060064880       -8.35335986503633       -0.79146556389015
H           84.58375793664480       -7.08524820595967       -2.20315293131117
H           84.68192021727107       -4.59791910115656       -2.06966449828846
H           88.57613501599764       -4.02474429789650       -0.88383113449257
H           90.41015297934139       -2.06080296310454       -0.65695612413929
C           46.58543942134605        0.59805371513340        0.43561640207953
C           45.35777399649342        0.55712038445214        0.40103129129406
C           44.01448967387562        0.52162217641649        0.36763428296100
C           42.79095922145205        0.49078694641240        0.34142820027557
C           47.92781905147663        0.64423177037032        0.47947212167384
C           49.15054728718108        0.69258081972891        0.52509214095904
C           62.54888430356629        0.48533133865834        0.41233151167009
C           61.31869603578816        0.48800145363716        0.40789854191083
C           59.97741035961551        0.51652053508363        0.42529762759782
C           58.75323459973801        0.56653299041678        0.45975287788527
C           63.89012204372700        0.50893495272747        0.43911699087426
C           65.11428928643305        0.55103344630715        0.48324845835472
C           78.49412026613246        0.15575327661515        0.32024875949938
C           77.26711774211982        0.20040259464537        0.36565551674079
C           75.92627172141451        0.27661575432619        0.42512156194833
C           74.70731312777610        0.37290488579412        0.48710916852781
C           79.83798864201214        0.13628640897434        0.28082629755598
C           81.06163249812964        0.14132408737158        0.25246742325494
Fe          53.95582268942047        0.81245787157844        0.64462190857229
C           50.55141691012307        0.74308013351244        0.57733639511600
C           51.21742627881635        1.71499698896602       -0.18111930076658
C           50.54836132515342        2.72733551322876       -0.93500233148606
C           51.50870870047460        3.40969432942751       -1.60653481134714
C           52.75854069993464        2.78893395028544       -1.28295667006143
N           52.56622628026614        1.78714670718565       -0.36239619543610
C           53.96440858769021        3.08011267047403       -1.90915514482365
C           53.98295537741641        4.08110026791010       -2.99942424254623
C           53.24305049255540        3.92473865670487       -4.10993575350630
C           53.28454998860354        4.89422286062435       -5.25934779686278
N           53.95786167285311        6.13886710171812       -4.88543474878155
C           54.80418738983786        6.20011020928595       -3.81492055108090
C           54.83818845637094        5.24823264415211       -2.86310601208438
C           55.15719344879594        2.44419134816411       -1.58092575092605
C           56.38564691913648        2.61941366217846       -2.29575615442432
C           57.32955178259022        1.90711840795534       -1.63232571461681
N           55.34287857829279        1.59872767583655       -0.51640231668278
C           56.67540282665170        1.30630439453360       -0.51266142310275
C           57.35598006334764        0.64213709779485        0.51511279817767
C           56.69834676900674        0.10156155399546        1.62927167847231
C           57.37894917048111       -0.44911649203805        2.75828456080273
C           56.42316294474513       -0.93232506628184        3.58988971467861
C           55.16302770714955       -0.70340192983544        2.94788562505106
N           55.34896911293588       -0.01796685063620        1.77062245656329
C           53.95016823900670       -1.21072714749083        3.39559850866714
C           53.92740143614565       -2.05288741816255        4.61278706796249
C           54.62957754466176       -3.19478319074197        4.69758644716710
C           54.62433466623006       -4.06522252253857        5.92509346972994
N           53.55924320448360       -3.67892314752565        6.85214169091102
C           52.98063285959164       -2.44260208185840        6.80042926012426
C           53.09841992124289       -1.63320695418132        5.73081657522680
C           52.74785957829658       -0.98668585232489        2.73081670107858
C           51.50863873208144       -1.61424906064736        3.07927085803764
C           50.56324895818208       -1.09740927430699        2.25657563819528
C           51.22612693643457       -0.14796403877657        1.41841660181497
N           52.56584131851586       -0.12319151709640        1.68163947529103
H           49.48234515963140        2.88912722810125       -0.93490667764132
H           51.38956199026800        4.25508169861036       -2.26445788402912
H           52.62810284516400        3.04577119101686       -4.26427917106291
H           53.79558033594794        4.43628005871113       -6.12635406112930
H           52.26287993951881        5.14039287414180       -5.58187979876047
H           54.14464804840184        6.76336486766322       -5.65562030896173
H           55.39221800114272        7.11011851516065       -3.75236753050166
H           55.46680615757496        5.35009894609670       -1.99006345069273
H           56.50038972613319        3.20652566453919       -3.19266767378246
H           58.37759884028227        1.79933652966744       -1.86152301898951
H           58.44910724888070       -0.45040279350425        2.88985873559901
H           56.55252751999505       -1.40259144353898        4.55104517256800
H           55.24356991591339       -3.54832295914518        3.87757071263735
H           55.60354112196875       -4.00794945833802        6.43504605400437
H           54.46919343241819       -5.11639496066153        5.64344217347137
H           53.60556222998201       -4.12724865118632        7.75483199850617
H           52.36259947642262       -2.19332406360520        7.65698897887019
H           52.59514705949131       -0.67774178816186        5.69142781769367
H           51.38846035814662       -2.35781552876118        3.85043315685710
H           49.50820997105894       -1.31667055831343        2.22044626912220
Fe          69.91523208822741        0.76278138463560        0.70045668680313
C           66.51118713621184        0.62454530735991        0.55546780421979
C           67.18169866598372        1.50170699161859       -0.30867189498472
C           66.50690961308204        2.40099160570048       -1.19064635086281
C           67.46837169980790        3.10083374049541       -1.84106320642127
C           68.72796481303450        2.59439829723206       -1.38353490947860
N           68.53228527782846        1.64019081305181       -0.41280207879112
C           69.95544040607156        2.95333884845743       -1.92273044537511
C           69.99929058310140        3.94700502283472       -3.02009915547017
C           69.38761076988131        3.73176351900445       -4.19619247682798
C           69.47026683922489        4.70131976193249       -5.34374812711767
N           69.98653058379784        6.00029525487413       -4.90903114196173
C           70.72458865518146        6.12570854041468       -3.76552617803386
C           70.74554220995002        5.17673631424202       -2.81075035685809
C           71.15730101902108        2.38149170447172       -1.51625296167899
C           72.40567949961159        2.59593279319652       -2.18439233249230
C           73.33389737585583        1.86195400222463       -1.52351877707858
N           71.32044781086270        1.51683304540730       -0.46507864064095
C           72.65310692692110        1.22080927960985       -0.44252858101994
C           73.31194667975456        0.50467695379909        0.56200187572764
C           72.64859540707209       -0.01009098228590        1.68303903557780
C           73.32919703663701       -0.56073380263820        2.81202670729852
C           72.37327902252571       -0.92429705502277        3.70177102944712
C           71.10994890042855       -0.63441151455523        3.09184928655589
N           71.29875188520671       -0.03429457164751        1.87007738774632
C           69.88168659474788       -1.00561406396325        3.62502562435143
C           69.84464885835821       -1.71721443646738        4.92361886872192
C           70.44531609731052       -2.90494359479972        5.10146477357656
C           70.42161343976944       -3.63985339438319        6.41468282045997
N           69.42745959975517       -3.07277813628909        7.32747458778810
C           68.95924844486726       -1.79900004972514        7.16925034591920
C           69.10540692513239       -1.11286232430235        6.02000383831886
C           68.67511169908211       -0.78290044804463        2.97054252163435
C           67.42081003077298       -1.31690047371140        3.40958885322489
C           66.48756533182585       -0.90929510136166        2.51538641522959
C           67.17153901475621       -0.11034864372119        1.54726585268482
N           68.50881444762085       -0.06539727633238        1.81292078021945
H           65.43574100880211        2.48847550571074       -1.27682504690554
H           67.34403887180355        3.88654724474377       -2.56826040081684
H           68.86128944282198        2.80738425731420       -4.40345959591570
H           70.11185865629668        4.29018553321620       -6.14512979712760
H           68.47298339616795        4.85755366826809       -5.77833905822132
H           70.19613954935100        6.63972318723786       -5.66110795085627
H           71.22876507977803        7.08006361041139       -3.65237178196590
H           71.28202374874031        5.32354154360947       -1.88425073429465
H           72.54136280182108        3.21620319644311       -3.05565079850824
H           74.38808601425588        1.76619133243689       -1.72827836866971
H           74.40065711519188       -0.63444566775534        2.90707696913422
H           72.50507799275944       -1.35226082748194        4.68207522305977
H           70.98656983573731       -3.39581160902337        4.30121530010286
H           71.42194266735409       -3.61018129997138        6.88458998924198
H           70.17320858754930       -4.69810757948988        6.25234415524357
H           69.47054704533609       -3.43216227614581        8.26932868041334
H           68.39965784882919       -1.41151902984337        8.01454557493857
H           68.68644414479870       -0.12420811057352        5.89844489830617
H           67.28433673914957       -1.93456757155046        4.28241745962792
H           65.42829301598532       -1.11013887508409        2.50779121693554
