248
 energy: -422.650705761243 gnorm: 0.751578062872 xtb: 6.5.1 (b24c23e)
Fe          39.10989600000000        0.43633300000000        0.32986300000000
C           35.77535300000000        0.31016700000000        0.28820500000000
C           36.43624400000000       -0.85123200000000        0.28897200000000
C           35.78436000000000       -2.15391400000000        0.33936900000000
C           36.72305400000000       -3.08080300000000        0.28451400000000
C           38.02793900000000       -2.41279500000000        0.18526100000000
N           37.85234000000000       -0.99540900000000        0.19963800000000
C           39.21837599999999       -3.03900100000000        0.07039800000000
C           39.26961900000000       -4.51965000000000        0.02111800000000
C           38.79891700000000       -5.18030400000000       -1.04769500000000
C           38.78805700000000       -6.68594400000000       -1.12188700000000
N           39.59171799999999       -7.30340700000000       -0.06376100000000
C           40.03847200000000       -6.57512400000000        1.08456700000000
C           39.88928900000000       -5.25377400000000        1.14119800000000
C           40.50876800000000       -2.30445700000000       -0.00679000000000
C           41.78904800000000       -2.93399000000000       -0.35426500000000
C           42.72355199999999       -2.00652200000000       -0.29398600000000
N           40.65453699999999       -1.04135100000000        0.25245900000000
C           42.04755399999999       -0.77432000000000        0.09182500000000
C           42.64356400000000        0.40535800000000        0.33141700000000
C           41.87954100000000        1.61463900000000        0.70675500000000
C           42.40367400000000        2.67624500000000        1.30668600000000
C           41.36156600000000        3.68209600000000        1.39001300000000
C           40.27163500000000        3.16835800000000        0.83025900000000
N           40.50978100000000        1.83651400000000        0.37269700000000
C           39.00050900000000        3.90911700000000        0.62964500000000
C           39.03973000000000        5.39301100000000        0.63497700000000
C           38.36306299999999        6.09144900000000        1.56199100000000
C           38.33863400000000        7.59850600000000        1.57326900000000
N           39.34542199999999        8.18163100000000        0.68267900000000
C           40.02170600000000        7.41323900000000       -0.31837800000000
C           39.88314500000000        6.08991100000000       -0.35627000000000
C           37.83916500000000        3.26072100000000        0.41609400000000
C           36.53772699999999        3.87371300000000        0.15462900000000
C           35.67442000000000        2.87946100000000        0.07023800000000
C           36.41631999999999        1.63452700000000        0.26233600000000
N           37.67833200000000        1.84460400000000        0.46460800000000
H           34.69212700000000        0.28517600000000        0.30301900000000
H           34.72146299999999       -2.34494300000000        0.41249400000000
H           36.53372200000000       -4.14554600000000        0.30731600000000
H           38.35189000000000       -4.63022900000000       -1.86793500000000
H           39.18536000000000       -7.00203200000000       -2.11014300000000
H           37.73954000000000       -7.03998000000000       -1.03328800000000
H           39.74253400000000       -8.33630000000000       -0.09051700000000
H           40.52021500000000       -7.09993300000000        1.90009400000000
H           40.24848500000000       -4.71175200000000        2.00824200000000
H           41.95644899999999       -3.97061000000000       -0.61640900000000
H           43.77470000000000       -2.16158200000000       -0.49531900000000
H           43.42510400000000        2.78976700000000        1.64499000000000
H           41.46555400000000        4.67732400000000        1.80315600000000
H           37.76345200000000        5.56936200000000        2.29863700000000
H           38.52358400000000        7.95189200000000        2.60936200000000
H           37.33097400000000        7.94205500000000        1.25776000000000
H           39.48810000000000        9.21543400000000        0.69883900000000
H           40.66252300000000        7.91037700000000       -1.03590100000000
H           40.41157500000000        5.51926500000000       -1.11054700000000
H           36.29957699999999        4.92357400000000        0.04696100000000
H           34.61199599999999        2.98186300000000       -0.11128700000000
Fe          84.74982199999999        0.37544000000000        0.32325100000000
C           88.08436500000001        0.50760600000000        0.30964400000000
C           87.42347400000000        1.64177200000000        0.55967600000000
C           88.07535799999999        2.90327500000000        0.88850600000000
C           87.13666399999998        3.82033600000000        1.03387700000000
C           85.83177900000000        3.18920100000000        0.79355600000000
N           86.00737799999999        1.80176300000000        0.50337100000000
C           84.64134099999998        3.82546600000000        0.81577900000000
C           84.59009900000000        5.28218300000000        1.08545400000000
C           85.06080100000000        6.15685000000000        0.18335400000000
C           85.07166099999999        7.64332300000000        0.43406200000000
N           84.26800000000000        8.01927800000000        1.60005900000000
C           83.82124599999999        7.06149200000000        2.56530400000000
C           83.97042900000000        5.75878300000000        2.33700100000000
C           83.35095000000000        3.12460900000000        0.58272800000000
C           82.07067000000001        3.81405200000000        0.37847400000000
C           81.13616600000000        2.89526200000000        0.23827600000000
N           83.20518100000000        1.83529700000000        0.56482100000000
C           81.81216400000000        1.60896800000000        0.35061500000000
C           81.21615299999999        0.40535800000000        0.33141700000000
C           81.98017700000000       -0.85630100000000        0.43844700000000
C           81.45604400000001       -2.02193300000000        0.79653200000000
C           82.49815200000000       -3.02222600000000        0.66202100000000
C           83.58808300000000       -2.40031600000000        0.22558300000000
N           83.34993700000000       -1.00130200000000        0.06455100000000
C           84.85920900000001       -3.08075000000000       -0.12935200000000
C           84.81998800000000       -4.53120400000000       -0.44264800000000
C           85.49665500000000       -5.41233800000000        0.31284800000000
C           85.52108399999999       -6.88669100000000        0.00038800000000
N           84.51429600000000       -7.26506900000000       -0.99460700000000
C           83.83801200000001       -6.29971900000000       -1.80740600000000
C           83.97657300000000       -4.99910000000000       -1.56037500000000
C           86.02055300000001       -2.40163000000000       -0.19875500000000
C           87.32199100000000       -2.94421400000000       -0.58569800000000
C           88.18529800000000       -1.95502200000000       -0.45471700000000
C           87.44339799999999       -0.78033500000000        0.00011700000000
N           86.18138599999999       -1.02893100000000        0.15258400000000
H           89.16759100000000        0.52883500000000        0.32947600000000
H           89.13825500000000        3.07415700000000        1.00092900000000
H           87.32599599999999        4.85536900000000        1.28468400000000
H           85.50782800000000        5.79565200000000       -0.73583700000000
H           84.67435800000000        8.16416300000000       -0.46331600000000
H           86.12017799999998        7.97009100000000        0.59658700000000
H           84.11718399999999        9.03384100000000        1.79562700000000
H           83.33950299999999        7.39902500000000        3.47446900000000
H           83.61123300000000        5.04329200000000        3.06749800000000
H           81.90326799999998        4.88277800000000        0.34494000000000
H           80.08501800000001        3.08992200000000        0.07491800000000
H           80.43461299999998       -2.20542200000000        1.10258500000000
H           82.39416400000000       -4.08293500000000        0.85192000000000
H           86.09626500000000       -5.06053300000000        1.14438600000000
H           85.33613400000000       -7.45422800000000        0.93648200000000
H           86.52874400000000       -7.15451300000000       -0.38150700000000
H           84.37161699999999       -8.27824700000000       -1.20072000000000
H           83.19719499999999       -6.63126100000000       -2.61491100000000
H           83.44814300000000       -4.27985600000000       -2.17458900000000
H           87.56014100000000       -3.94649600000000       -0.91619900000000
H           89.24772199999998       -2.01607500000000       -0.65399000000000
C           48.13663800000000        0.40646100000000        0.33990700000000
C           46.92769800000000        0.39300600000000        0.33145900000000
C           45.50617000000000        0.40182500000000        0.31947600000000
C           44.29450000000000        0.40926400000000        0.33033900000000
C           49.55324200000000        0.39978600000000        0.34044000000000
C           50.77393800000000        0.40926400000000        0.33033900000000
C           62.53370300000000        0.40646100000000        0.33990700000000
C           61.32476399999999        0.39300600000000        0.33145900000000
C           59.90323500000000        0.40182500000000        0.31947600000000
C           58.69156500000000        0.40926400000000        0.33033900000000
C           63.95030700000000        0.39978600000000        0.34044000000000
C           65.17100300000000        0.40926400000000        0.33033900000000
C           76.93076799999999        0.40646100000000        0.33990700000000
C           75.72182900000000        0.39300600000000        0.33145900000000
C           74.30029999999999        0.40182500000000        0.31947600000000
C           73.08862999999999        0.40926400000000        0.33033900000000
C           78.34737199999999        0.39978600000000        0.34044000000000
C           79.56806799999998        0.40926400000000        0.33033900000000
Fe          54.44044700000000        0.08273000000000       -0.22397900000000
C           51.60679600000000       -0.47709100000000       -0.38939000000000
C           51.92602500000000        0.56823100000000       -1.15438800000000
C           51.72186400000000        1.96873400000000       -0.77978700000000
C           52.53101600000000        2.72047600000000       -1.50753700000000
C           53.39599100000000        1.83003900000000       -2.28520200000000
N           52.98121600000000        0.47863800000000       -2.10448200000000
C           54.62852600000000        2.16785300000000       -2.70311200000000
C           54.97319200000000        3.58385400000000       -3.00124600000000
C           54.17963999999999        4.31653300000000       -3.80089900000000
C           54.48818700000000        5.74667900000000       -4.16255000000000
N           55.61654100000000        6.28726100000000       -3.39858700000000
C           56.47470700000000        5.46644000000000       -2.60443800000000
C           56.18469499999999        4.18529400000000       -2.40769100000000
C           55.72918900000000        1.20104000000000       -2.51019100000000
C           56.85914400000000        1.00157200000000       -3.41940600000000
C           57.75616899999999        0.26355300000000       -2.78216600000000
N           55.93987900000000        0.64667400000000       -1.35913900000000
C           57.21676200000000        0.02829500000000       -1.44467900000000
C           57.88025100000000       -0.47709100000000       -0.38939000000000
C           57.27798400000000       -0.52567400000000        0.96607200000000
C           57.95622400000000       -0.53125400000000        2.11033300000000
C           56.98201000000000       -0.58824300000000        3.19235800000000
C           55.77401399999999       -0.62402000000000        2.63510700000000
N           55.87677300000000       -0.58268500000000        1.21023100000000
C           54.48556000000000       -0.76784900000000        3.37484000000000
C           54.49983800000000       -1.20020300000000        4.79535100000000
C           55.07876900000000       -2.36126700000000        5.13978000000000
C           55.14886500000000       -2.82334100000000        6.57205400000000
N           54.20658499999999       -2.10515100000000        7.42874000000000
C           53.67972100000000       -0.82492400000000        7.06365900000000
C           53.82060499999999       -0.37868800000000        5.81521700000000
C           53.31077100000000       -0.60110800000000        2.73514300000000
C           51.98019699999999       -0.99747300000000        3.20248400000000
C           51.17977699999999       -0.92455100000000        2.14730900000000
C           51.97628100000000       -0.43109700000000        1.02532000000000
N           53.20908700000000       -0.25542700000000        1.36516400000000
H           51.04253900000000        2.33746100000000       -0.02336300000000
H           52.63211700000000        3.79114000000000       -1.39984600000000
H           53.30383000000000        3.86486200000000       -4.24942300000000
H           54.72213900000000        5.79916800000000       -5.24892000000000
H           53.58756100000000        6.36801500000000       -3.96485800000000
H           55.85800800000000        7.29251500000000       -3.51464400000000
H           57.35457600000000        5.89433200000000       -2.14762700000000
H           56.83740000000000        3.58885500000000       -1.78374200000000
H           56.96458900000000        1.40068600000000       -4.42048200000000
H           58.71434000000000       -0.04228600000000       -3.18060100000000
H           59.03050699999999       -0.48630800000000        2.22287000000000
H           57.20408100000000       -0.61918400000000        4.25227200000000
H           55.56521599999999       -2.96576100000000        4.38895700000000
H           56.17836300000000       -2.66424500000000        6.95123200000000
H           54.91866300000000       -3.90900400000000        6.61030400000000
H           54.04568999999999       -2.45526400000000        8.40000600000000
H           53.13732599999999       -0.24075300000000        7.78879500000000
H           53.40236200000000        0.58670700000000        5.54869900000000
H           51.70136800000000       -1.36526900000000        4.17997700000000
H           50.13944600000000       -1.20961800000000        2.12520900000000
Fe          68.83751200000000        0.08273000000000       -0.22397900000000
C           66.00386100000000       -0.47709100000000       -0.38939000000000
C           66.32308999999999        0.56823100000000       -1.15438800000000
C           66.11892899999999        1.96873400000000       -0.77978700000000
C           66.92808100000001        2.72047600000000       -1.50753700000000
C           67.79305600000001        1.83003900000000       -2.28520200000000
N           67.37828100000000        0.47863800000000       -2.10448200000000
C           69.02559200000000        2.16785300000000       -2.70311200000000
C           69.37025700000000        3.58385400000000       -3.00124600000000
C           68.57670500000000        4.31653300000000       -3.80089900000000
C           68.88525199999999        5.74667900000000       -4.16255000000000
N           70.01360599999998        6.28726100000000       -3.39858700000000
C           70.87177200000001        5.46644000000000       -2.60443800000000
C           70.58176100000000        4.18529400000000       -2.40769100000000
C           70.12625400000000        1.20104000000000       -2.51019100000000
C           71.25620900000000        1.00157200000000       -3.41940600000000
C           72.15323400000000        0.26355300000000       -2.78216600000000
N           70.33694400000000        0.64667400000000       -1.35913900000000
C           71.61382699999999        0.02829500000000       -1.44467900000000
C           72.27731599999998       -0.47709100000000       -0.38939000000000
C           71.67504899999999       -0.52567400000000        0.96607200000000
C           72.35328900000000       -0.53125400000000        2.11033300000000
C           71.37907499999999       -0.58824300000000        3.19235800000000
C           70.17107900000001       -0.62402000000000        2.63510700000000
N           70.27383799999998       -0.58268500000000        1.21023100000000
C           68.88262600000000       -0.76784900000000        3.37484000000000
C           68.89690400000001       -1.20020300000000        4.79535100000000
C           69.47583400000001       -2.36126700000000        5.13978000000000
C           69.54593000000000       -2.82334100000000        6.57205400000000
N           68.60365000000000       -2.10515100000000        7.42874000000000
C           68.07678600000000       -0.82492400000000        7.06365900000000
C           68.21767000000000       -0.37868800000000        5.81521700000000
C           67.70783600000000       -0.60110800000000        2.73514300000000
C           66.37726200000000       -0.99747300000000        3.20248400000000
C           65.57684200000000       -0.92455100000000        2.14730900000000
C           66.37334600000000       -0.43109700000000        1.02532000000000
N           67.60615199999999       -0.25542700000000        1.36516400000000
H           65.43960400000000        2.33746100000000       -0.02336300000000
H           67.02918200000001        3.79114000000000       -1.39984600000000
H           67.70089500000000        3.86486200000000       -4.24942300000000
H           69.11920399999998        5.79916800000000       -5.24892000000000
H           67.98462600000001        6.36801500000000       -3.96485800000000
H           70.25507299999998        7.29251500000000       -3.51464400000000
H           71.75164100000001        5.89433200000000       -2.14762700000000
H           71.23446499999999        3.58885500000000       -1.78374200000000
H           71.36165399999999        1.40068600000000       -4.42048200000000
H           73.11140500000000       -0.04228600000000       -3.18060100000000
H           73.42757200000000       -0.48630800000000        2.22287000000000
H           71.60114600000000       -0.61918400000000        4.25227200000000
H           69.96228099999999       -2.96576100000000        4.38895700000000
H           70.57542800000000       -2.66424500000000        6.95123200000000
H           69.31572799999999       -3.90900400000000        6.61030400000000
H           68.44275500000001       -2.45526400000000        8.40000600000000
H           67.53439100000000       -0.24075300000000        7.78879500000000
H           67.79942699999998        0.58670700000000        5.54869900000000
H           66.09843300000000       -1.36526900000000        4.17997700000000
H           64.53651200000000       -1.20961800000000        2.12520900000000
248
 energy: -422.951096807407 gnorm: 0.476222886032 xtb: 6.5.1 (b24c23e)
Fe          39.12029504531365        0.42792022821897        0.32942288893432
C           35.77632967804229        0.32673285722894        0.28708443139948
C           36.44314532964778       -0.85012690751247        0.28862320661369
C           35.78548967934107       -2.14586341222474        0.33952124209316
C           36.73472165103190       -3.08108142231590        0.28370947843947
C           38.02930071452694       -2.40368186588998        0.18606015329768
N           37.84139470378283       -1.00251592907625        0.20411565589825
C           39.23444282788269       -3.03355402986456        0.07143988252066
C           39.27597247480301       -4.51733644269464        0.02208497016027
C           38.79901835366741       -5.18097760345886       -1.04092940057723
C           38.79060655426443       -6.68793308207000       -1.11766421167878
N           39.59956486737033       -7.30131847969087       -0.05430550510535
C           40.03254706441452       -6.58002781169169        1.07152435363498
C           39.88811014791091       -5.24876453568083        1.13603887876965
C           40.50171306465133       -2.31659704370090       -0.00604550353858
C           41.77547781606619       -2.94450297380211       -0.35228817903515
C           42.72159167635326       -2.00153646245142       -0.29204869055182
N           40.66300644944056       -1.03071822014285        0.24137052197580
C           42.05448061203675       -0.77255183776621        0.09189675623421
C           42.66770663814648        0.41587664626355        0.33915858411947
C           41.88050353063549        1.60427151251433        0.69230734377728
C           42.40675454552066        2.69604403838891        1.31082567802695
C           41.38045167152782        3.68335717909974        1.39171063188819
C           40.26374120951606        3.15656813012840        0.81708165944609
N           40.50918986653399        1.82773231883940        0.38926403629892
C           39.01532516549164        3.89958467306716        0.62633499524092
C           39.04837351414771        5.38700821501164        0.63568163457189
C           38.36503561599606        6.08994322610005        1.55427368577489
C           38.34249647267208        7.59938904474325        1.56959705919807
N           39.35498135830656        8.17889164249378        0.67508405427364
C           40.01251457887817        7.41794873382036       -0.30713736132848
C           39.88061185174311        6.08439679883598       -0.35141673211911
C           37.84037544316651        3.25684556495985        0.41537054684058
C           36.54588392691888        3.87132551695333        0.15652345582371
C           35.66561612093312        2.86736953091819        0.07154614334383
C           36.39987760959979        1.62530566461264        0.26269904967239
N           37.68352077485583        1.84789089139018        0.45592757942835
H           34.69271083650489        0.29126212446002        0.30202790851359
H           34.72256730745444       -2.33599874892977        0.41246025015736
H           36.54519176644995       -4.14560868316984        0.30673556379973
H           38.35352968925849       -4.63540220180472       -1.86779459767856
H           39.18305166243886       -7.00368216486361       -2.10404630195506
H           37.74269968191038       -7.04162481956024       -1.03624743983772
H           39.73945232915575       -8.31797106322104       -0.08715617394891
H           40.51614601477391       -7.10870657116449        1.88884194524740
H           40.24653579219905       -4.70969283896407        2.00524216966791
H           41.94714610400111       -3.97565296854564       -0.61568122350689
H           43.77307079101654       -2.15289506884662       -0.49322415285249
H           43.42561941545781        2.79584534641646        1.64841853992336
H           41.47047575831047        4.67630698914573        1.80551218381588
H           37.76502180354014        5.57429838341764        2.29843061110032
H           38.52255853673917        7.95339671530340        2.60309882134360
H           37.33392004510152        7.94335669256420        1.26109719206251
H           39.48571013968201        9.19693930910238        0.69582647853849
H           40.65612392703824        7.91915551503599       -1.02577867065791
H           40.40934908032933        5.51712563243973       -1.10796630137784
H           36.30998401867641        4.92184249763752        0.04850367883200
H           34.60829496852291        2.97412774519792       -0.11145321587538
Fe          84.73930744791092        0.38378939592275        0.32460809132454
C           88.08341129683757        0.49171212964314        0.30498130214459
C           87.41659169005160        1.64071767606648        0.55904510892716
C           88.07419080278488        2.89533049413062        0.88691899556400
C           87.12495711596769        3.82075390462207        1.03315026659428
C           85.83035878855074        3.18026595432843        0.79229900974186
N           86.01805852159127        1.80736511792816        0.50933452509785
C           84.62548790894019        3.81997519654922        0.81566244973367
C           84.58380880578723        5.27969992310906        1.08595107581886
C           85.06071470176921        6.15605354528531        0.19011786434778
C           85.06910143414591        7.64435481593159        0.43861549237070
N           84.26014524558656        8.01522568170470        1.60882142027534
C           83.82715541948086        7.06904824570735        2.55363036183087
C           83.97160527926646        5.75499632878417        2.33088759660758
C           83.35782900104222        3.13632386879191        0.58607211367019
C           82.08435705939505        3.82393816385508        0.38263820199060
C           81.13820491619801        2.88992317723290        0.23910588233680
N           83.19662795784664        1.82746844342138        0.55169877296630
C           81.80520594798747        1.60742095979181        0.35003226882597
C           81.19064094668882        0.39409910611266        0.33723165700983
C           81.97877473084962       -0.84282416959546        0.42675805806037
C           81.45291192575317       -2.04182915776292        0.79633474069911
C           82.47950464335970       -3.02376764563972        0.66338777948607
C           83.59592678721049       -2.38599241075394        0.21518487012463
N           83.35050980870292       -0.99595965910303        0.08272828515952
C           84.84447253388079       -3.07079208166615       -0.13056759410625
C           84.81136367512259       -4.52549402251313       -0.44073507586373
C           85.49472656011794       -5.40922228449597        0.30561567813352
C           85.51718433178033       -6.88676167844387       -0.00338425654672
N           84.50475991161714       -7.26074002821254       -1.00146581975368
C           83.84720368085453       -6.30675990703092       -1.79741956856349
C           83.97911529298429       -4.99474864846005       -1.55445357780857
C           86.01936377417543       -2.39778015375491       -0.19859738531648
C           87.31384173606975       -2.94231237669309       -0.58334360203460
C           88.19410794975315       -1.94351489689096       -0.45085748634904
C           87.45983963903443       -0.77146491931913        0.00241825117013
N           86.17631826582740       -1.03031884307767        0.14350736385794
H           89.16701676436539        0.52311666625260        0.32722465883156
H           89.13712701678402        3.06541137385242        0.99897664556151
H           87.31452681505776        4.85553568472423        1.28413380817261
H           85.50619416987007        5.80067758635977       -0.73458686022246
H           84.67666853431453        8.16447700408787       -0.45701428943520
H           86.11701513019442        7.97233007743551        0.59404972952428
H           84.12028199947125        9.01522416062470        1.79498324186064
H           83.34357660806390        7.41000219292222        3.46537096141697
H           83.61318121279774        5.04192959185868        3.06412153055579
H           81.91262266707257        4.88757450975750        0.34672597697975
H           80.08667705815650        3.08092461728465        0.07514773168793
H           80.43412569588791       -2.21204364437454        1.10463830161844
H           82.38932667924900       -4.08240363320647        0.85444132977511
H           86.09469750248560       -5.06531055878660        1.14313319670295
H           85.33715600219654       -7.45435312321555        0.93003892408939
H           86.52577854512400       -7.15648099977389       -0.37852058548473
H           84.37398876475062       -8.25952778267700       -1.19968363499025
H           83.20360045602703       -6.64200650816316       -2.60689519843640
H           83.45036475595145       -4.27832315710831       -2.17159926010526
H           87.54973948760471       -3.94514520680784       -0.91432737244993
H           89.25142582979234       -2.00848462484775       -0.65249770092657
C           48.12592240912751        0.41612492318195        0.34205623350571
C           46.89646109930644        0.39682963617128        0.33148031293202
C           45.49300360636531        0.40057619990101        0.32024908393168
C           44.25949832681980        0.41764806252290        0.33057586982610
C           49.48710566390169        0.39815119026612        0.35539772183306
C           50.72491598753659        0.38308186103104        0.34893017362058
C           62.54491287487675        0.42047286346295        0.34024123844633
C           61.31443505745553        0.40826921365148        0.34663209817714
C           59.96932113565313        0.40964719968813        0.31282204180670
C           58.72744169796474        0.40779447726180        0.29786792671932
C           63.88772401228783        0.39767639637392        0.35521655512820
C           65.12957946061827        0.38051538326941        0.35031712767712
C           76.96387547964896        0.41098404079728        0.34004451169784
C           75.73388955822601        0.40576107258374        0.34793924993024
C           74.37142502203864        0.40891343629233        0.30837961889719
C           73.13404622234577        0.41303897514786        0.29471463187674
C           78.36469204073360        0.39626414578653        0.33756707922558
C           79.59998987300581        0.39896627265033        0.32940764331503