418
 energy: -685.098718201620 gnorm: 5.688851846251 xtb: 6.5.1 (b24c23e)
C           82.00321699999999       -0.00606600000000       -0.05930200000000
C           82.73171000000001       -1.26424400000000        0.50530200000000
C           82.12310100000001       -2.42876300000000        0.91501500000000
C           83.14488899999999       -3.28002600000000        1.40986300000000
C           84.34295800000000       -2.60263100000000        1.29201100000000
N           84.08435099999998       -1.39550100000000        0.69232200000000
C           85.76544699999999       -3.10474400000000        1.78154200000000
C           86.89527799999999       -2.42951800000000        1.43670000000000
C           88.19991699999999       -2.82575700000000        1.92589100000000
C           89.10228200000000       -1.97549800000000        1.45058900000000
N           87.09155500000000       -1.32325400000000        0.65223200000000
C           88.42310699999999       -0.99846300000000        0.62224100000000
C           89.09075199999998        0.00404300000000       -0.00885300000000
C           88.31310200000000        1.03691800000000       -0.92954800000000
C           88.85349299999999        1.77230400000000       -1.96651300000000
C           87.82870100000000        2.60593800000000       -2.47936300000000
C           86.68845500000000        2.34858200000000       -1.74868700000000
C           85.27915600000000        3.05429800000000       -1.93210000000000
C           85.25191000000000        4.39261400000000       -2.56497700000000
C           84.87923399999998        4.53779200000000       -3.90727600000000
C           84.86829000000000        5.79980200000000       -4.50421300000000
C           85.23304800000000        6.92424200000000       -3.76268100000000
C           85.60843100000000        6.78755800000000       -2.42548200000000
C           85.61871200000000        5.52512600000000       -1.82900700000000
C           84.15352799999999        2.43300500000000       -1.49288100000000
C           82.83164900000000        3.02175900000000       -1.61596000000000
C           81.94583299999998        2.16964100000000       -1.10853600000000
C           82.66745600000000        1.01487000000000       -0.63253200000000
N           83.98854799999999        1.22268300000000       -0.87858300000000
N           86.97911999999999        1.35461400000000       -0.84405500000000
C           85.80291200000001       -4.29657600000000        2.66239200000000
C           85.55055500000000       -4.16810700000000        4.03332900000000
C           85.57511999999998       -5.29102100000000        4.86256500000000
C           85.85117700000001       -6.54901000000000        4.32490300000000
C           86.10293799999999       -6.68532700000000        2.95899600000000
C           86.07795500000000       -5.56227000000000        2.13004100000000
H           80.92538199999998        0.04230100000000        0.03882400000000
H           81.06473600000000       -2.63551200000000        0.87794700000000
H           83.01770199999999       -4.26680100000000        1.82901500000000
H           84.78556500000001       -0.70611000000000        0.43254400000000
H           88.41099199999999       -3.65721600000000        2.57449400000000
H           90.15581699999998       -2.02580600000000        1.65595000000000
H           89.87540799999999        1.72637400000000       -2.31074300000000
H           87.91321300000000        3.31764600000000       -3.28676000000000
H           84.59499999999998        3.65394500000000       -4.47445900000000
H           84.57400500000000        5.89791600000000       -5.54410900000000
H           85.22425600000000        7.90580600000000       -4.22563700000000
H           85.89346300000000        7.65716600000000       -1.84204700000000
H           85.90973900000000        5.40782300000000       -0.78736500000000
H           82.60380099999999        3.98233900000000       -2.04168600000000
H           80.88232900000000        2.31396500000000       -1.05074000000000
H           86.29582300000000        0.89321300000000       -0.24910900000000
H           85.33823500000000       -3.18232400000000        4.44153800000000
H           85.37987400000000       -5.17673100000000        5.92397000000000
H           85.87183600000000       -7.42157600000000        4.96997900000000
H           86.32073900000000       -7.65984600000000        2.53403800000000
H           86.27590100000000       -5.65514000000000        1.06436800000000
C          170.37206199999997       -0.03726300000000       -0.03953100000000
C          169.64356900000001        1.01042000000000       -0.93627500000000
C          170.25217900000001        1.87805300000000       -1.81444500000000
C          169.23038999999997        2.68894400000000       -2.37299400000000
C          168.03232100000000        2.29319300000000       -1.81073600000000
N          168.29092799999998        1.23557600000000       -0.97513300000000
C          166.60983200000001        2.95022800000000       -2.05581800000000
C          165.48000099999999        2.35013500000000       -1.59242200000000
C          164.17536300000000        2.96166300000000       -1.74190800000000
C          163.27299700000000        2.16887500000000       -1.17592300000000
N          165.28372399999998        1.16848000000000       -0.92691300000000
C          163.95217199999996        1.00270800000000       -0.64600800000000
C          163.28452699999997        0.00404300000000       -0.00885300000000
C          164.06217699999999       -1.26947200000000        0.53213500000000
C          163.52178599999996       -2.52113400000000        0.75447000000000
C          164.54657800000001       -3.34078000000000        1.28939100000000
C          165.68682400000000       -2.57016500000000        1.36858700000000
C          167.09612299999998       -3.03729300000000        1.92846800000000
C          167.12336900000000       -4.18092600000000        2.86853500000000
C          167.49604499999998       -5.45674400000000        2.42679800000000
C          167.50698899999998       -6.53530200000000        3.31320400000000
C          167.14223100000001       -6.34475300000000        4.64659400000000
C          166.76684800000001       -5.07717200000000        5.09383500000000
C          166.75656699999999       -3.99885300000000        4.20684900000000
C          168.22175100000001       -2.37487900000000        1.55413400000000
C          169.54363000000001       -2.73751700000000        2.03400200000000
C          170.42944600000001       -1.91488700000000        1.48004900000000
C          169.70782299999999       -0.99146900000000        0.63899300000000
N          168.38673100000000       -1.30268800000000        0.72188000000000
N          165.39615900000001       -1.32778500000000        0.85592500000000
C          166.57236700000001        4.25556900000000       -2.75756100000000
C          166.82472400000000        5.44046500000000       -2.05613900000000
C          166.80015900000001        6.66971200000000       -2.71759300000000
C          166.52410200000000        6.72053400000000       -4.08471900000000
C          166.27234100000001        5.54353600000000       -4.79109100000000
C          166.29732400000000        4.31448400000000       -4.12938800000000
H          171.44989699999999        0.03082500000000        0.04609700000000
H          171.31054300000000        1.93279200000000       -2.01723300000000
H          169.35757699999996        3.48923500000000       -3.08640100000000
H          167.58971399999999        0.70636000000000       -0.46261400000000
H          163.96428700000001        3.90314200000000       -2.21691100000000
H          162.21946199999996        2.37606000000000       -1.13374800000000
H          162.49987100000001       -2.81281500000000        0.56598400000000
H          164.46206599999999       -4.37473600000000        1.58831500000000
H          167.78027899999998       -5.59233700000000        1.38540600000000
H          167.80127399999998       -7.51756500000000        2.95800100000000
H          167.15102399999998       -7.18243000000000        5.33658700000000
H          166.48181600000001       -4.92080500000000        6.12928700000000
H          166.46554100000000       -3.00681900000000        4.54544500000000
H          169.77147799999997       -3.53256900000000        2.72091400000000
H          171.49295000000001       -1.92423300000000        1.63523400000000
H          166.07945599999999       -0.59280500000000        0.69266000000000
H          167.03704400000001        5.38878200000000       -0.99043200000000
H          166.99540499999998        7.58075100000000       -2.16113100000000
H          166.50344300000000        7.67637200000000       -4.59840100000000
H          166.05453999999997        5.57526500000000       -5.85376200000000
H          166.09937800000000        3.39044000000000       -4.66830200000000
C           92.44856900000001        0.01677400000000       -0.00632800000000
C           91.19629900000000       -0.00240700000000       -0.01067600000000
C           93.76223700000000        0.01600800000000       -0.00439500000000
C           95.26537099999999       -0.00240700000000       -0.01067600000000
C          105.64850500000000        0.01677400000000       -0.00632800000000
C          104.39623499999999       -0.00240700000000       -0.01067600000000
C          106.96217299999999        0.01600800000000       -0.00439500000000
C          108.46530700000000       -0.00240700000000       -0.01067600000000
C          118.84844099999998        0.01677400000000       -0.00632800000000
C          117.59616999999999       -0.00240700000000       -0.01067600000000
C          120.16210899999999        0.01600800000000       -0.00439500000000
C          121.66524300000000       -0.00240700000000       -0.01067600000000
C          132.04837699999999        0.01677400000000       -0.00632800000000
C          130.79610600000001       -0.00240700000000       -0.01067600000000
C          133.36204499999999        0.01600800000000       -0.00439500000000
C          134.86517799999999       -0.00240700000000       -0.01067600000000
C          145.24831199999997        0.01677400000000       -0.00632800000000
C          143.99604199999999       -0.00240700000000       -0.01067600000000
C          146.56198099999997        0.01600800000000       -0.00439500000000
C          148.06511399999999       -0.00240700000000       -0.01067600000000
C          158.44824800000001        0.01677400000000       -0.00632800000000
C          157.19597799999997       -0.00240700000000       -0.01067600000000
C          159.76191599999999        0.01600800000000       -0.00439500000000
C          161.26505000000000       -0.00240700000000       -0.01067600000000
C           96.21081399999998       -0.00144000000000        0.00451900000000
C           97.00446599999999        1.10838300000000        0.81047900000000
C           96.49773999999999        1.93312600000000        1.79437300000000
C           97.53463900000000        2.82182400000000        2.17761200000000
C           98.64408000000000        2.50702300000000        1.42136900000000
N           98.33312800000000        1.41624800000000        0.64856800000000
C          100.03370600000000        3.26713500000000        1.43001200000000
C          101.16851400000000        2.61329300000000        1.06636000000000
C          102.45544499999998        3.27460900000000        1.00042100000000
C          103.36340700000000        2.38632200000000        0.61074200000000
N          101.37654499999998        1.31463900000000        0.69143200000000
C          102.70105300000000        1.11338700000000        0.40825500000000
C          103.36485100000000       -0.00144000000000        0.00451900000000
C          102.57121500000000       -1.35736300000000       -0.20235900000000
C          103.07798199999999       -2.63557400000000       -0.08239900000000
C          102.04107999999998       -3.53707100000000       -0.43447700000000
C          100.93159799999998       -2.78159400000000       -0.75096500000000
C           99.54194500000000       -3.32831600000000       -1.27903800000000
C           99.55107199999999       -4.60653600000000       -2.02886600000000
C          100.02913299999999       -4.64679000000000       -3.34375100000000
C          100.05413799999998       -5.85178200000000       -4.04877100000000
C           99.60335000000001       -7.02470400000000       -3.44174300000000
C           99.12840700000000       -6.99420000000000       -2.13006000000000
C           99.10435000000000       -5.78915200000000       -1.42546500000000
C           98.40714699999999       -2.60761700000000       -1.07812400000000
C           97.12020999999999       -3.03165300000000       -1.58986300000000
C           96.21225200000001       -2.12592000000000       -1.24266000000000
C           96.87461200000000       -1.07817500000000       -0.49194300000000
N           98.19912399999998       -1.42035600000000       -0.43199900000000
N          101.24253299999998       -1.46254600000000       -0.53384800000000
C          100.02446000000000        4.70340400000000        1.79501600000000
C           99.54619700000001        5.65611900000000        0.88799500000000
C           99.52087700000000        7.00878900000000        1.23343400000000
C           99.97155400000000        7.41656200000000        2.48963800000000
C          100.44672700000000        6.47304100000000        3.40122300000000
C          100.47110300000000        5.12062600000000        3.05544100000000
H           95.48930799999999        1.91493300000000        2.17875400000000
H           97.47403400000000        3.61546400000000        2.90708200000000
H           98.99423299999999        0.89363700000000        0.08123500000000
H          102.65008300000000        4.30968800000000        1.21753000000000
H          104.40784899999998        2.59711500000000        0.47103000000000
H          104.08644199999999       -2.89282000000000        0.20369400000000
H          102.10171099999999       -4.61431700000000       -0.47356400000000
H          100.37944799999998       -3.72756500000000       -3.80826500000000
H          100.42588099999999       -5.86739400000000       -5.06829600000000
H           99.62213099999998       -7.96087800000000       -3.99049200000000
H           98.77542600000000       -7.90189600000000       -1.65136700000000
H           98.73484899999998       -5.75313700000000       -0.40280500000000
H           96.92556700000000       -3.92048900000000       -2.16300800000000
H           95.16780900000001       -2.17764400000000       -1.49020000000000
H          100.58140799999998       -0.69205400000000       -0.56994500000000
H           99.19592900000001        5.32865900000000       -0.08850700000000
H           99.14894900000000        7.73639000000000        0.51920200000000
H           99.95249099999998        8.46817300000000        2.75731600000000
H          100.79960500000000        6.78234100000000        4.37972700000000
H          100.84073899999999        4.37630500000000        3.75759000000000
C          109.41074999999999       -0.00144000000000        0.00451900000000
C          110.20440200000000        1.10838300000000        0.81047900000000
C          109.69767500000000        1.93312600000000        1.79437300000000
C          110.73457399999999        2.82182400000000        2.17761200000000
C          111.84401600000000        2.50702300000000        1.42136900000000
N          111.53306400000000        1.41624800000000        0.64856800000000
C          113.23364200000000        3.26713500000000        1.43001200000000
C          114.36845000000000        2.61329300000000        1.06636000000000
C          115.65538100000001        3.27460900000000        1.00042100000000
C          116.56334299999999        2.38632200000000        0.61074200000000
N          114.57648100000000        1.31463900000000        0.69143200000000
C          115.90098900000000        1.11338700000000        0.40825500000000
C          116.56478699999998       -0.00144000000000        0.00451900000000
C          115.77115100000000       -1.35736300000000       -0.20235900000000
C          116.27791799999999       -2.63557400000000       -0.08239900000000
C          115.24101599999999       -3.53707100000000       -0.43447700000000
C          114.13153300000000       -2.78159400000000       -0.75096500000000
C          112.74188099999999       -3.32831600000000       -1.27903800000000
C          112.75100699999999       -4.60653600000000       -2.02886600000000
C          113.22906900000000       -4.64679000000000       -3.34375100000000
C          113.25407400000000       -5.85178200000000       -4.04877100000000
C          112.80328500000000       -7.02470400000000       -3.44174300000000
C          112.32834300000000       -6.99420000000000       -2.13006000000000
C          112.30428600000000       -5.78915200000000       -1.42546500000000
C          111.60708300000000       -2.60761700000000       -1.07812400000000
C          110.32014599999999       -3.03165300000000       -1.58986300000000
C          109.41218799999999       -2.12592000000000       -1.24266000000000
C          110.07454799999999       -1.07817500000000       -0.49194300000000
N          111.39906000000001       -1.42035600000000       -0.43199900000000
N          114.44246900000000       -1.46254600000000       -0.53384800000000
C          113.22439600000000        4.70340400000000        1.79501600000000
C          112.74613299999999        5.65611900000000        0.88799500000000
C          112.72081299999999        7.00878900000000        1.23343400000000
C          113.17148999999999        7.41656200000000        2.48963800000000
C          113.64666199999999        6.47304100000000        3.40122300000000
C          113.67103899999999        5.12062600000000        3.05544100000000
H          108.68924400000000        1.91493300000000        2.17875400000000
H          110.67396900000000        3.61546400000000        2.90708200000000
H          112.19416800000000        0.89363700000000        0.08123500000000
H          115.85001800000001        4.30968800000000        1.21753000000000
H          117.60778499999999        2.59711500000000        0.47103000000000
H          117.28637800000000       -2.89282000000000        0.20369400000000
H          115.30164699999999       -4.61431700000000       -0.47356400000000
H          113.57938400000000       -3.72756500000000       -3.80826500000000
H          113.62581599999999       -5.86739400000000       -5.06829600000000
H          112.82206700000000       -7.96087800000000       -3.99049200000000
H          111.97536200000000       -7.90189600000000       -1.65136700000000
H          111.93478399999998       -5.75313700000000       -0.40280500000000
H          110.12550299999999       -3.92048900000000       -2.16300800000000
H          108.36774500000000       -2.17764400000000       -1.49020000000000
H          113.78134300000001       -0.69205400000000       -0.56994500000000
H          112.39586499999999        5.32865900000000       -0.08850700000000
H          112.34888500000000        7.73639000000000        0.51920200000000
H          113.15242700000000        8.46817300000000        2.75731600000000
H          113.99954099999999        6.78234100000000        4.37972700000000
H          114.04067400000000        4.37630500000000        3.75759000000000
C          122.61068600000000       -0.00144000000000        0.00451900000000
C          123.40433699999998        1.10838300000000        0.81047900000000
C          122.89761099999998        1.93312600000000        1.79437300000000
C          123.93451000000000        2.82182400000000        2.17761200000000
C          125.04395199999999        2.50702300000000        1.42136900000000
N          124.73299999999999        1.41624800000000        0.64856800000000
C          126.43357800000000        3.26713500000000        1.43001200000000
C          127.56838599999999        2.61329300000000        1.06636000000000
C          128.85531700000001        3.27460900000000        1.00042100000000
C          129.76327900000001        2.38632200000000        0.61074200000000
N          127.77641700000000        1.31463900000000        0.69143200000000
C          129.10092499999999        1.11338700000000        0.40825500000000
C          129.76472300000000       -0.00144000000000        0.00451900000000
C          128.97108700000001       -1.35736300000000       -0.20235900000000
C          129.47785300000001       -2.63557400000000       -0.08239900000000
C          128.44095200000001       -3.53707100000000       -0.43447700000000
C          127.33146900000000       -2.78159400000000       -0.75096500000000
C          125.94181699999999       -3.32831600000000       -1.27903800000000
C          125.95094300000000       -4.60653600000000       -2.02886600000000
C          126.42900500000000       -4.64679000000000       -3.34375100000000
C          126.45401000000000       -5.85178200000000       -4.04877100000000
C          126.00322100000000       -7.02470400000000       -3.44174300000000
C          125.52827899999998       -6.99420000000000       -2.13006000000000
C          125.50422200000000       -5.78915200000000       -1.42546500000000
C          124.80701900000000       -2.60761700000000       -1.07812400000000
C          123.52008200000000       -3.03165300000000       -1.58986300000000
C          122.61212299999998       -2.12592000000000       -1.24266000000000
C          123.27448399999999       -1.07817500000000       -0.49194300000000
N          124.59899600000000       -1.42035600000000       -0.43199900000000
N          127.64240500000000       -1.46254600000000       -0.53384800000000
C          126.42433199999999        4.70340400000000        1.79501600000000
C          125.94606799999998        5.65611900000000        0.88799500000000
C          125.92074899999999        7.00878900000000        1.23343400000000
C          126.37142599999999        7.41656200000000        2.48963800000000
C          126.84659799999999        6.47304100000000        3.40122300000000
C          126.87097500000000        5.12062600000000        3.05544100000000
H          121.88918000000000        1.91493300000000        2.17875400000000
H          123.87390499999999        3.61546400000000        2.90708200000000
H          125.39410400000000        0.89363700000000        0.08123500000000
H          129.04995400000001        4.30968800000000        1.21753000000000
H          130.80771999999999        2.59711500000000        0.47103000000000
H          130.48631399999999       -2.89282000000000        0.20369400000000
H          128.50158300000001       -4.61431700000000       -0.47356400000000
H          126.77932000000000       -3.72756500000000       -3.80826500000000
H          126.82575199999998       -5.86739400000000       -5.06829600000000
H          126.02200300000000       -7.96087800000000       -3.99049200000000
H          125.17529699999999       -7.90189600000000       -1.65136700000000
H          125.13472000000000       -5.75313700000000       -0.40280500000000
H          123.32543800000001       -3.92048900000000       -2.16300800000000
H          121.56768099999998       -2.17764400000000       -1.49020000000000
H          126.98127900000000       -0.69205400000000       -0.56994500000000
H          125.59580099999998        5.32865900000000       -0.08850700000000
H          125.54882099999999        7.73639000000000        0.51920200000000
H          126.35236200000000        8.46817300000000        2.75731600000000
H          127.19947699999999        6.78234100000000        4.37972700000000
H          127.24061000000000        4.37630500000000        3.75759000000000
C          135.81062100000000       -0.00144000000000        0.00451900000000
C          136.60427300000001        1.10838300000000        0.81047900000000
C          136.09754699999999        1.93312600000000        1.79437300000000
C          137.13444600000000        2.82182400000000        2.17761200000000
C          138.24388800000000        2.50702300000000        1.42136900000000
N          137.93293599999998        1.41624800000000        0.64856800000000
C          139.63351299999999        3.26713500000000        1.43001200000000
C          140.76832200000001        2.61329300000000        1.06636000000000
C          142.05525200000000        3.27460900000000        1.00042100000000
C          142.96321399999999        2.38632200000000        0.61074200000000
N          140.97635299999999        1.31463900000000        0.69143200000000
C          142.30086100000000        1.11338700000000        0.40825500000000
C          142.96465899999998       -0.00144000000000        0.00451900000000
C          142.17102299999999       -1.35736300000000       -0.20235900000000
C          142.67778899999996       -2.63557400000000       -0.08239900000000
C          141.64088799999999       -3.53707100000000       -0.43447700000000
C          140.53140500000001       -2.78159400000000       -0.75096500000000
C          139.14175299999999       -3.32831600000000       -1.27903800000000
C          139.15087899999997       -4.60653600000000       -2.02886600000000
C          139.62894100000000       -4.64679000000000       -3.34375100000000
C          139.65394599999999       -5.85178200000000       -4.04877100000000
C          139.20315700000000       -7.02470400000000       -3.44174300000000
C          138.72821500000001       -6.99420000000000       -2.13006000000000
C          138.70415800000001       -5.78915200000000       -1.42546500000000
C          138.00695500000000       -2.60761700000000       -1.07812400000000
C          136.72001699999998       -3.03165300000000       -1.58986300000000
C          135.81205899999998       -2.12592000000000       -1.24266000000000
C          136.47442000000001       -1.07817500000000       -0.49194300000000
N          137.79893099999998       -1.42035600000000       -0.43199900000000
N          140.84234000000001       -1.46254600000000       -0.53384800000000
C          139.62426700000000        4.70340400000000        1.79501600000000
C          139.14600400000000        5.65611900000000        0.88799500000000
C          139.12068399999998        7.00878900000000        1.23343400000000
C          139.57136199999999        7.41656200000000        2.48963800000000
C          140.04653399999998        6.47304100000000        3.40122300000000
C          140.07091000000000        5.12062600000000        3.05544100000000
H          135.08911599999999        1.91493300000000        2.17875400000000
H          137.07384099999999        3.61546400000000        2.90708200000000
H          138.59404000000001        0.89363700000000        0.08123500000000
H          142.24988999999999        4.30968800000000        1.21753000000000
H          144.00765600000000        2.59711500000000        0.47103000000000
H          143.68624900000000       -2.89282000000000        0.20369400000000
H          141.70151899999999       -4.61431700000000       -0.47356400000000
H          139.97925499999997       -3.72756500000000       -3.80826500000000
H          140.02568799999997       -5.86739400000000       -5.06829600000000
H          139.22193899999999       -7.96087800000000       -3.99049200000000
H          138.37523300000001       -7.90189600000000       -1.65136700000000
H          138.33465600000000       -5.75313700000000       -0.40280500000000
H          136.52537400000000       -3.92048900000000       -2.16300800000000
H          134.76761700000000       -2.17764400000000       -1.49020000000000
H          140.18121499999998       -0.69205400000000       -0.56994500000000
H          138.79573700000000        5.32865900000000       -0.08850700000000
H          138.74875599999999        7.73639000000000        0.51920200000000
H          139.55229800000001        8.46817300000000        2.75731600000000
H          140.39941300000001        6.78234100000000        4.37972700000000
H          140.44054600000001        4.37630500000000        3.75759000000000
C          149.01055700000001       -0.00144000000000        0.00451900000000
C          149.80420899999999        1.10838300000000        0.81047900000000
C          149.29748299999997        1.93312600000000        1.79437300000000
C          150.33438200000001        2.82182400000000        2.17761200000000
C          151.44382299999998        2.50702300000000        1.42136900000000
N          151.13287199999999        1.41624800000000        0.64856800000000
C          152.83344900000000        3.26713500000000        1.43001200000000
C          153.96825699999999        2.61329300000000        1.06636000000000
C          155.25518800000000        3.27460900000000        1.00042100000000
C          156.16315000000000        2.38632200000000        0.61074200000000
N          154.17628800000000        1.31463900000000        0.69143200000000
C          155.50079700000001        1.11338700000000        0.40825500000000
C          156.16459499999999       -0.00144000000000        0.00451900000000
C          155.37095900000000       -1.35736300000000       -0.20235900000000
C          155.87772500000000       -2.63557400000000       -0.08239900000000
C          154.84082300000000       -3.53707100000000       -0.43447700000000
C          153.73134099999999       -2.78159400000000       -0.75096500000000
C          152.34168899999997       -3.32831600000000       -1.27903800000000
C          152.35081500000001       -4.60653600000000       -2.02886600000000
C          152.82887700000001       -4.64679000000000       -3.34375100000000
C          152.85388100000000       -5.85178200000000       -4.04877100000000