165
 energy: -294.864686143156 gnorm: 0.519008777961 xtb: 6.5.1 (b24c23e)
Ni          26.45493200000000        0.01232800000000       -0.01095900000000
C           23.08889800000000       -0.10182300000000       -0.04289600000000
C           23.75183600000000       -1.26024900000000        0.01465700000000
C           23.10020099999999       -2.56317900000000        0.07346800000000
C           24.04005900000000       -3.48355100000000        0.18039400000000
C           25.34622100000000       -2.81077700000000        0.19434700000000
N           25.17006100000000       -1.39786300000000        0.08441200000000
C           26.53511600000000       -3.42870800000000        0.34788800000000
C           26.57089100000000       -4.89990100000000        0.49823300000000
C           26.77616400000000       -5.47636100000000        1.75877100000000
C           26.80483400000000       -6.86766300000000        1.87977000000000
N           26.63217200000000       -7.65149100000000        0.78204500000000
C           26.43023200000000       -7.11654000000000       -0.45171100000000
C           26.39689300000000       -5.72987000000000       -0.61747900000000
C           27.82935800000000       -2.69795800000000        0.38777800000000
C           29.11937400000000       -3.33565100000000        0.67724300000000
C           30.05400200000000       -2.41141000000000        0.59346400000000
N           27.97121400000000       -1.43379700000000        0.12863000000000
C           29.37037700000000       -1.17367900000000        0.24048800000000
C           29.96676300000000        0.00349000000000       -0.01177800000000
C           29.20889900000000        1.21935500000000       -0.38507800000000
C           29.75219400000000        2.29280800000000       -0.94494100000000
C           28.70952200000000        3.29238100000000       -1.06303600000000
C           27.59786600000000        2.76561000000000       -0.56400700000000
N           27.82261700000000        1.42855400000000       -0.11354200000000
C           26.31276000000000        3.49886400000000       -0.42709800000000
C           26.33560800000000        4.98150400000000       -0.47429300000000
C           25.67389500000000        5.67543700000000       -1.49783900000000
C           25.71810500000000        7.07134400000000       -1.52062800000000
N           26.40473900000000        7.74853000000000       -0.56187600000000
C           27.06394200000000        7.10064600000000        0.43465800000000
C           27.04504100000000        5.70531200000000        0.49511400000000
C           25.14586900000000        2.85008500000000       -0.24977800000000
C           23.83366200000000        3.46638000000000       -0.05991400000000
C           22.97142100000000        2.47285000000000        0.03389300000000
C           23.72381300000000        1.22490300000000       -0.08148400000000
N           24.99217600000000        1.43207100000000       -0.24696900000000
H           22.00574800000000       -0.12980500000000       -0.04309200000000
H           22.03581500000000       -2.75771600000000        0.04832000000000
H           23.85152300000000       -4.54653300000000        0.25798900000000
H           26.91256600000000       -4.85495000000000        2.63521500000000
H           26.96364800000000       -7.32480800000000        2.84723000000000
H           26.29505899999999       -7.76810200000000       -1.30463800000000
H           26.23545700000000       -5.30688000000000       -1.60121000000000
H           29.29746900000000       -4.37637300000000        0.91198000000000
H           31.11176000000000       -2.57453500000000        0.74750100000000
H           30.78537300000000        2.41791300000000       -1.23859800000000
H           28.82750600000000        4.29149400000000       -1.46081200000000
H           25.13325100000000        5.14076400000000       -2.26811000000000
H           25.20744600000000        7.61680900000000       -2.30295100000000
H           27.60219900000000        7.66889800000000        1.18179800000000
H           27.57053400000000        5.19421200000000        1.29235000000000
H           23.58913800000000        4.51872000000000        0.00091300000000
H           21.90430200000000        2.57736000000000        0.18013800000000
Ni          49.91731700000000       -0.00472900000000       -0.00842500000000
C           53.28335200000000        0.09520700000000       -0.07217000000000
C           52.62041399999999        1.22032600000000       -0.35389800000000
C           53.27204900000000        2.48407200000000       -0.67643500000000
C           52.33219100000000        3.39577400000000       -0.84171200000000
C           51.02602899999999        2.75611800000000       -0.63276300000000
N           51.20218800000000        1.37227500000000       -0.32716600000000
C           49.83713400000000        3.39199700000000       -0.66550900000000
C           49.80135800000000        4.84335000000000       -0.94938600000000
C           49.59608500000000        5.76139200000000        0.08910400000000
C           49.56741600000000        7.12777300000000       -0.19962500000000
N           49.74007799999999        7.55859500000000       -1.47781800000000
C           49.94201800000000        6.68805600000000       -2.50275100000000
C           49.97535700000000        5.31309100000000       -2.25820400000000
C           48.54289200000000        2.70441000000000       -0.41488700000000
C           47.25287600000000        3.39871400000000       -0.32332700000000
C           46.31824699999999        2.49003900000000       -0.13477700000000
N           48.40103499999999        1.41951300000000       -0.29530500000000
C           47.00187300000000        1.20315200000000       -0.11265400000000
C           46.40548600000000        0.00349000000000       -0.01177800000000
C           47.16335000000000       -1.26838600000000       -0.01545800000000
C           46.62005599999999       -2.45824200000000       -0.23904600000000
C           47.66272800000000       -3.44897100000000       -0.06142900000000
C           48.77438300000000       -2.79986900000000        0.26289300000000
N           48.54963299999999       -1.38960300000000        0.30517000000000
C           50.05949000000000       -3.46164500000000        0.60707000000000
C           50.03664199999999       -4.89396200000000        0.99297000000000
C           50.69835499999999       -5.85550000000000        0.21538800000000
C           50.65414500000000       -7.19773400000000        0.59942300000000
N           49.96750999999999       -7.56692500000000        1.71364200000000
C           49.30830800000000       -6.65730000000000        2.47876700000000
C           49.32720900000000       -5.30466200000000        2.13093900000000
C           51.22638100000000       -2.78933700000000        0.58810800000000
C           52.53858700000000       -3.32381100000000        0.94895000000000
C           53.40082799999999       -2.34592400000000        0.74985000000000
C           52.64843600000000       -1.18542900000000        0.27663500000000
N           51.38007300000000       -1.43176100000000        0.17852900000000
H           54.36650200000000        0.12192300000000       -0.08049200000000
H           54.33643500000000        2.66289400000000       -0.75705600000000
H           52.52072700000000        4.43539900000000       -1.07651600000000
H           49.45968400000000        5.42163600000000        1.10835500000000
H           49.40860199999999        7.84644600000000        0.59313700000000
H           50.07719000000000        7.06349700000000       -3.50826700000000
H           50.13679200000000        4.62236600000000       -3.07646400000000
H           47.07478100000000        4.46272700000000       -0.40130300000000
H           45.26048899999999        2.69090200000000       -0.03481900000000
H           45.58687700000000       -2.66331900000000       -0.48364600000000
H           47.54474300000000       -4.52057300000000       -0.15154500000000
H           51.23899800000000       -5.56786800000000       -0.67705800000000
H           51.16480400000000       -7.94708600000000        0.00947900000000
H           48.77005100000000       -6.98378500000000        3.35884400000000
H           48.80171500000000       -4.58385500000000        2.74514200000000
H           52.78311200000000       -4.31300900000000        1.31310100000000
H           54.46794800000000       -2.40340100000000        0.92016200000000
C           32.18213200000000        0.00349000000000       -0.01177800000000
C           33.40405000000000        0.00349000000000       -0.01177800000000
C           42.96820000000000        0.00349000000000       -0.01177800000000
C           44.19011700000000        0.00349000000000       -0.01177800000000
Ni          38.11196400000000        0.02718600000000       -0.04496300000000
C           34.74432100000000       -0.00737500000000        0.02489000000000
C           35.39964200000000       -0.80566800000000        0.88760600000000
C           34.75876500000000       -1.62728100000000        1.91636200000000
C           35.69507800000000       -2.31163400000000        2.54295900000000
C           36.99232899999999       -1.97203200000000        1.94941200000000
N           36.81455200000000       -1.01072200000000        0.90598200000000
C           38.17672099999999       -2.49974700000000        2.32608200000000
C           38.21278500000000       -3.53614900000000        3.38415100000000
C           37.68520500000000       -4.81385800000000        3.14746600000000
C           37.74476300000000       -5.77842700000000        4.15603700000000
N           38.31531300000000       -5.47908700000000        5.35344000000000
C           38.83945500000000       -4.25016800000000        5.60629900000000
C           38.79983399999999       -3.25600300000000        4.62581900000000
C           39.47335700000000       -2.08567600000000        1.73173100000000
C           40.74148100000000       -2.78884700000000        1.96439300000000
C           41.69351400000000       -2.11987200000000        1.34600500000000
N           39.64120600000000       -1.03165700000000        0.99529000000000
C           41.03892800000000       -0.98508900000000        0.70809600000000
C           41.65389000000000       -0.00737500000000        0.02489000000000
C           40.90282900000000        1.09288800000000       -0.61475300000000
C           41.43532399999999        2.25031200000000       -0.98522700000000
C           40.40321600000000        2.99335100000000       -1.68352700000000
C           39.31220199999999        2.23605400000000       -1.69527200000000
N           39.53765899999999        1.00050300000000       -1.01892400000000
C           38.05948900000000        2.57698000000000       -2.41167000000000
C           38.12245599999999        3.56607000000000       -3.51596900000000
C           38.92944200000000        3.32090100000000       -4.63622800000000
C           38.99390500000000        4.27075900000000       -5.65841200000000
N           38.28365000000000        5.42612200000000       -5.56202400000000
C           37.49984199999999        5.69323400000000       -4.48367200000000
C           37.40743100000000        4.77090100000000       -3.43875800000000
C           36.88817900000000        1.99354100000000       -2.09147600000000
C           35.61326100000000        2.19432500000000       -2.77280700000000
C           34.72553500000000        1.48587600000000       -2.10514700000000
C           35.42242200000000        0.82232000000000       -0.99778900000000
N           36.68650200000000        1.11206000000000       -0.98640700000000
H           33.70409100000000       -1.68295700000000        2.15037700000000
H           35.50847600000000       -2.99587000000000        3.36031000000000
H           37.23537800000000       -5.05826100000000        2.19304900000000
H           37.33893700000000       -6.76664400000000        3.98579800000000
H           39.28812700000000       -4.04471100000000        6.56883200000000
H           39.22000100000000       -2.27895400000000        4.83082100000000
H           40.89090099999999       -3.69353500000000        2.53894900000000
H           42.74237200000000       -2.38491000000000        1.33416200000000
H           42.45709600000000        2.57102800000000       -0.83177500000000
H           40.51759799999999        3.96580200000000       -2.14471700000000
H           39.49864100000000        2.40297200000000       -4.71761300000000
H           39.61024500000000        4.08953500000000       -6.52876700000000
H           36.95032200000000        6.62384400000000       -4.43559700000000
H           36.78979200000000        4.99376000000000       -2.57738000000000
H           35.40960400000000        2.78918800000000       -3.65341500000000
H           33.67580400000000        1.41458700000000       -2.35608700000000
165
 energy: -295.023622953289 gnorm: 0.299481524063 xtb: 6.5.1 (b24c23e)
Ni          26.46263519270466        0.00595621718444       -0.02187456538839
C           23.08916203003930       -0.08194904756937       -0.04334447161895
C           23.76050966092733       -1.25775961039657        0.01432852639111
C           23.10351059275564       -2.55332466148709        0.07231448881191
C           24.05543071949607       -3.48267339559472        0.18045807817464
C           25.34940425649375       -2.79885475336046        0.19171774774936
N           25.15554174476619       -1.40802243334779        0.09125977694377
C           26.55586853590380       -3.41899712641056        0.34790327578103
C           26.57885054202827       -4.89653040546324        0.49816332877974
C           26.77813582583391       -5.47851424314854        1.75149216641686
C           26.80134180577119       -6.86459494518391        1.85885678661890
N           26.63221565652432       -7.65124743833161        0.78201198137286
C           26.43276424713402       -7.10842425684223       -0.43146944616725
C           26.39754327437643       -5.72940681571551       -0.60890675275358
C           27.82351891971228       -2.70771841373789        0.38950609627920
C           29.10307041120141       -3.34563925606717        0.67502942314711
C           30.05257003504288       -2.40347750224743        0.59115845366568
N           27.98696064403266       -1.41640455717360        0.13811610988722
C           29.39261084442050       -1.16190734358891        0.23903593809948
C           30.00187582950408        0.02285155756665       -0.02182414747023
C           29.21920937365012        1.20590916966623       -0.37014235747513
C           29.75959012158093        2.31893945907364       -0.95036305920379
C           28.73622234544846        3.29287775816294       -1.06271756210939
C           27.59224913067922        2.74666305087240       -0.54942398127388
N           27.83064865752475        1.41553085161692       -0.12569151625658
C           26.33299084301895        3.48238006180064       -0.42489156607176
C           26.34838225158008        4.97105738129112       -0.47955966846870
C           25.67843549150864        5.67284446417647       -1.48919576137983
C           25.72964742965194        7.06361782475426       -1.50237088970627
N           26.40461805304854        7.74708437386030       -0.56212039873950
C           27.05106993385665        7.09309507859893        0.41796568588995
C           27.04378242582490        5.70374469217500        0.48723868400730
C           25.15002930828221        2.84162572356278       -0.24656254457243
C           23.84528473288644        3.45962308606649       -0.06176228937210
C           22.96179108488840        2.45627897482709        0.03216526837716
C           23.70535971469961        1.21239219721614       -0.08029455555157
N           24.99977440702900        1.43264243261918       -0.23186577798854
H           22.00617118824567       -0.11956136505546       -0.04251021622066
H           22.03848617623789       -2.74354912324450        0.04668820416060
H           23.87069243006387       -4.54580336231630        0.25799692647885
H           26.91216054081074       -4.85720078025160        2.63126075794754
H           26.96050883536485       -7.32919993907563        2.83001857196951
H           26.29804265584377       -7.76813701985435       -1.28672423368578
H           26.23682232889692       -5.30757846709506       -1.59615660848916
H           29.28123777339336       -4.38290211445184        0.91125198325163
H           31.11027175387934       -2.56070848477683        0.74444939251088
H           30.78910520124804        2.43033530664731       -1.24381185235743
H           28.83663860599892        4.29003920052913       -1.46306814623482
H           25.13621442484687        5.14101653781315       -2.26426095537814
H           25.21791894344176        7.61773750927847       -2.28776048944146
H           27.59162410805745        7.66991664209413        1.16666738272171
H           27.56893611450515        5.19502606402050        1.28886685732532
H           23.60686708834496        4.51401762759325       -0.00182554392491
H           21.89896256196190        2.56446780957911        0.17966507500380
Ni          49.90963512757080       -0.00181466538041       -0.02072214001912
C           53.28307949692842        0.07607498458386       -0.06681892817364
C           52.61175275511849        1.21784391651945       -0.35348821311343
C           53.26873591411385        2.47431144140720       -0.67467407307750
C           52.31680986579931        3.39493537759981       -0.84138835279964
C           51.02283017581875        2.74390378273382       -0.63179649583052
N           51.21669206012034        1.38398185225749       -0.32354822455529
C           49.81631695465250        3.38270763505124       -0.66263659519843
C           49.79337198864123        4.84013425191803       -0.94847444120307
C           49.59411448129429        5.76133083333891        0.08152874097091
C           49.57090428346426        7.11876281274786       -0.21874476055288
N           49.74007917735691        7.55831849197350       -1.47776357234123
C           49.93947244111128        6.68617969246214       -2.48102345350790
C           49.97470595415788        5.31512602208253       -2.24987169716889
C           48.54875678891555        2.71427965770007       -0.41608216728409
C           47.26907838048179        3.40763206430570       -0.32838152662719
C           46.31960646003616        2.48190948671946       -0.13468141726950
N           48.38540546142720        1.40558025327864       -0.28136069065284
C           46.97974332919885        1.19158538434993       -0.11079911719170
C           46.37164961332373       -0.01806915526456       -0.01585357391216
C           47.15309273333825       -1.25147441760274       -0.00502191601522
C           46.61259700226446       -2.48498466872536       -0.23660986391064
C           47.63601276128405       -3.44939818000529       -0.06091651936518
C           48.77998254712003       -2.77751906069666        0.27133380192100
N           48.54163766473079       -1.38069644619363        0.29005047745018
C           50.03928365676256       -3.44524121348449        0.60436354339045
C           50.02385965193319       -4.88551408012873        0.98489011225909
C           50.69382353485432       -5.85050190877446        0.22290143869069
C           50.64259894417750       -7.18503614384126        0.61464701868258
N           49.96763819388544       -7.56558401354341        1.71298842153179
C           49.32118093621401       -6.65493715373480        2.46060730168721
C           49.32845446147814       -5.30545036108964        2.12294642084906
C           51.22220973990096       -2.78030160855906        0.58872537946263
C           52.52697005163179       -3.31787797818128        0.94522251330849
C           53.41045060202140       -2.33058262621140        0.74338366425395
C           52.66687924974725       -1.17311551849601        0.27413405561101
N           51.37247962775375       -1.42789578429800        0.19314543362652
H           54.36606798926396        0.11229460529264       -0.07695788934342
H           54.33375445723399        2.64886644887177       -0.75449650889924
H           52.50153921271640        4.43468461949978       -1.07629039951804
H           49.46008231156724        5.42263681541991        1.10392634212447
H           49.41173576985394        7.84563716930780        0.57538914382962
H           50.07420122266934        7.06873251310892       -3.49112976568599
H           50.13541651687713        4.62449510768426       -3.07183578118523
H           47.09095817770471        4.46873753134079       -0.40391469628486
H           45.26193288632795        2.67686723056224       -0.03374749255800
H           45.58311977492010       -2.67678375990660       -0.48501525834346
H           47.53561182448813       -4.51984691800817       -0.15412650214144
H           51.23603149817198       -5.56698752522360       -0.67330686587978
H           51.15432751685323       -7.94355317558965        0.02428718357790
H           48.78062552063405       -6.98915973281724        3.34466374009730
H           48.80331298386569       -4.58564234770816        2.74205584951186
H           52.76538080837534       -4.30929999414860        1.30911165180791
H           54.47327551371311       -2.39120420694199        0.91596296736493
C           32.08964050210140        0.00284600232976       -0.00910327612165
C           33.32141648969436        0.00849022676136       -0.01603852811954
C           43.04885766495117        0.01677385203036       -0.01899208682916
C           44.28232096440880        0.00498970847759       -0.01424665153965
Ni          38.12092336002573        0.02387131452417       -0.03385711854787
C           34.72635183358754       -0.00135172171395        0.00433374976211
C           35.40441002712814       -0.80510561226454        0.88836469332217
C           34.75965080613023       -1.61887876492981        1.90755484780241
C           35.70913482103580       -2.31156145497676        2.54130146495804
C           36.99304313166023       -1.96246757263002        1.94259313076527
N           36.79612902436304       -1.01507640019934        0.91486788426296
C           38.19281151067801       -2.49735557492902        2.32009645521226
C           38.22016020259314       -3.53634899590158        3.37939110074931
C           37.68726994829223       -4.80865039592541        3.15347648328196
C           37.75349030742547       -5.76059228401201        4.16489590536519
N           38.31530812278920       -5.47902487549611        5.35332658995684
C           38.82934868217878       -4.25952269840198        5.58958702394951
C           38.79917297792169       -3.26263893611115        4.62086859417653
C           39.46222878012781       -2.09761639046922        1.74545450212260
C           40.72156295594078       -2.79580764451012        1.97745307352704
C           41.68425748844529       -2.11248381278014        1.34261667700922
N           39.64235876110421       -1.03685713366187        0.97716883076908
C           41.03006393762543       -0.98855040377077        0.70628717855696
C           41.65472682622448        0.00819362014966        0.01633253131497
C           40.88943379884704        1.08089018589302       -0.61891942196105
C           41.43669563520053        2.27120260144835       -1.00246286739232
C           40.42817248574085        2.99637557366968       -1.68629460635085
C           39.30430362261824        2.21797036014808       -1.69621460009589
N           39.53102709450653        1.00963348723992       -1.00172562119861
C           38.07665257529943        2.56673766820500       -2.40223106644968
C           38.13318471771667        3.56446958670629       -3.50475125484877
C           38.92766196299654        3.32633926169313       -4.63023248806402
C           38.97967732106134        4.27828081442402       -5.64303922935453
N           38.28352613870405        5.42529245798790       -5.56106565797063
C           37.51241447155027        5.67480952952464       -4.48873757792764
C           37.41215067981003        4.76320137374398       -3.44213474883145
C           36.89097728902831        1.98684058635318       -2.08746901918213
C           35.62345984950560        2.19185483966465       -2.76572022395128
C           34.71366495874881        1.47645806191316       -2.09076422023029
C           35.40240887176094        0.81595557279596       -0.99198615148490
N           36.69389814921739        1.09950078998431       -0.99709724728642
H           33.70420126623791       -1.67164039349002        2.13720498196280
H           35.52663929976233       -2.99687761139296        3.35807371347660
H           37.23776125945399       -5.05610936847717        2.19688338375053
H           37.34735712873620       -6.75658985117952        3.99821766055488
H           39.27965746978184       -4.05768561993351        6.55963113116589
H           39.21818893000215       -2.28309918014353        4.82902810684037
H           40.87519688482769       -3.69837944468239        2.54608312323977
H           42.73580792459654       -2.37088948147356        1.32546578641340
H           42.45647260529762        2.58112936984600       -0.83600138298680
H           40.52727086991042        3.96875906593133       -2.14194318313761
H           39.49656683937683        2.40629131682699       -4.71620595312418
H           39.59857563601095        4.10128967100398       -6.52097495731889
H           36.96194154761375        6.61332004062471       -4.44530015484049
H           36.79316314497647        4.99098518974142       -2.58004029255704
H           35.42615173139973        2.78856891436201       -3.64706148417314
H           33.66837685443477        1.40562605103079       -2.34416244525529
165
 energy: -295.133633737642 gnorm: 0.128166215156 xtb: 6.5.1 (b24c23e)
Ni          26.48063037565999        0.00491599003225       -0.01996581998550
C           23.09450048725822       -0.06098710854587       -0.04217469086895
C           23.77350300786047       -1.25820184183389        0.01427550834162
C           23.11039314984345       -2.54234670447291        0.07097683645761
C           24.07346207057776       -3.47873567346246        0.17977275937009
C           25.35079135441318       -2.78286656377486        0.18916692445172
N           25.14100153159800       -1.41928953533643        0.09207437761611
C           26.58168546535989       -3.40102297711511        0.34835405653735
C           26.58658863236539       -4.88739629598770        0.49790302433602
C           26.78038630847394       -5.47800564238090        1.74557231196027
C           26.79799026469862       -6.86137964121333        1.83973832928615
N           26.63247616485242       -7.65189529065392        0.78206331603310
C           26.43486958842290       -7.09985786534060       -0.41276865961949
C           26.39891964110799       -5.72595610054921       -0.60182605472785
C           27.81910984208220       -2.71335599086297        0.39031565541822
C           29.08702939075013       -3.34842215065538        0.67063915256760
C           30.04879914535956       -2.39722596895643        0.58751645334244
N           28.01068440615511       -1.39042142466966        0.14439687536961
C           29.41950674651354       -1.15402042069570        0.24188633128345
C           30.07079129667279        0.03893076833224       -0.03294431902608
C           29.24694233817847        1.18611638304891       -0.35625200255555
C           29.76759933818701        2.35042225380408       -0.95016529200440
C           28.76955209253972        3.28738272040824       -1.05574155386919
C           27.59077371665878        2.72111358653178       -0.53429208231148
N           27.85489338594412        1.39967322457005       -0.14747320303816
C           26.36352252780085        3.45645315814109       -0.42332546572619
C           26.36457106536336        4.95379266648993       -0.48683255140688
C           25.68461978165222        5.66598463501122       -1.48228526815520
C           25.73988324427602        7.05380555144707       -1.48471578552466
N           26.40486476157793        7.74567109607024       -0.56250398843990
C           27.03959750992086        7.08471888107693        0.40249537128946
C           27.04485695816265        5.69912438813000        0.47939653722286
C           25.15414315307098        2.82476614271314       -0.23834606325677
C           23.86048284997612        3.44691251363288       -0.06415261110137
C           22.95885548529325        2.44008523649057        0.02780571113519
C           23.68713241620705        1.19844372533293       -0.07813043875832
N           25.01201548033076        1.43340458200932       -0.21705675485406
H           22.01024704956129       -0.11264660074121       -0.04014008449367
H           22.04460356541727       -2.72698885753899        0.04495315295713
H           23.89351655755905       -4.54208076137452        0.25761587637501
H           26.91282531100346       -4.85916048213755        2.62791519379762
H           26.95692909603479       -7.33332465308425        2.81262948774933
H           26.30052324175923       -7.76713190474895       -1.26840292663148
H           26.23831414217957       -5.30770865319501       -1.59137829936750
H           29.26418198136861       -4.38445786136932        0.90926278896905
H           31.10725764734945       -2.54853269145323        0.74109991320145
H           30.79554329455628        2.44277046862620       -1.24840615805555
H           28.84224544391307        4.28498094862465       -1.46219302618518
H           25.13940827654270        5.14021436402994       -2.26071234141488
H           25.22799958148431        7.61626832618212       -2.27135472737825
H           27.58005763582945        7.66981126586600        1.15186421645037