      -----------------------------------------------------------      
     |                   =====================                   |     
     |                           x T B                           |     
     |                   =====================                   |     
     |                         S. Grimme                         |     
     |          Mulliken Center for Theoretical Chemistry        |     
     |                    University of Bonn                     |     
      -----------------------------------------------------------      

   * xtb version 6.5.1 (b24c23e) compiled by 'conda@728c89f4b128' on 2022-07-12

   xtb is free software: you can redistribute it and/or modify it under
   the terms of the GNU Lesser General Public License as published by
   the Free Software Foundation, either version 3 of the License, or
   (at your option) any later version.
   
   xtb is distributed in the hope that it will be useful,
   but WITHOUT ANY WARRANTY; without even the implied warranty of
   MERCHANTABILITY or FITNESS FOR A PARTICULAR PURPOSE.  See the
   GNU Lesser General Public License for more details.
   
   Cite this work as:
   * C. Bannwarth, E. Caldeweyher, S. Ehlert, A. Hansen, P. Pracht,
     J. Seibert, S. Spicher, S. Grimme, WIREs Comput. Mol. Sci., 2020, 11,
     e01493. DOI: 10.1002/wcms.1493
   
   for GFN2-xTB:
   * C. Bannwarth, S. Ehlert and S. Grimme., J. Chem. Theory Comput., 2019,
     15, 1652-1671. DOI: 10.1021/acs.jctc.8b01176
   for GFN1-xTB:
   * S. Grimme, C. Bannwarth, P. Shushkov, J. Chem. Theory Comput., 2017,
     13, 1989-2009. DOI: 10.1021/acs.jctc.7b00118
   for GFN0-xTB:
   * P. Pracht, E. Caldeweyher, S. Ehlert, S. Grimme, ChemRxiv, 2019, preprint.
     DOI: 10.26434/chemrxiv.8326202.v1
   for GFN-FF:
   * S. Spicher and S. Grimme, Angew. Chem. Int. Ed., 2020, 59, 15665-15673.
     DOI: 10.1002/anie.202004239
   
   for ALPB and GBSA implicit solvation:
   * S. Ehlert, M. Stahn, S. Spicher, S. Grimme, J. Chem. Theory Comput.,
     2021, 17, 4250-4261. DOI: 10.1021/acs.jctc.1c00471
   
   for DFT-D4:
   * E. Caldeweyher, C. Bannwarth and S. Grimme, J. Chem. Phys., 2017,
     147, 034112. DOI: 10.1063/1.4993215
   * E. Caldeweyher, S. Ehlert, A. Hansen, H. Neugebauer, S. Spicher,
     C. Bannwarth and S. Grimme, J. Chem. Phys., 2019, 150, 154122.
     DOI: 10.1063/1.5090222
   * E. Caldeweyher, J.-M. Mewes, S. Ehlert and S. Grimme, Phys. Chem. Chem. Phys.
     2020, 22, 8499-8512. DOI: 10.1039/D0CP00502A
   
   for sTDA-xTB:
   * S. Grimme and C. Bannwarth, J. Chem. Phys., 2016, 145, 054103.
     DOI: 10.1063/1.4959605
   
   in the mass-spec context:
   * V. Asgeirsson, C. Bauer and S. Grimme, Chem. Sci., 2017, 8, 4879.
     DOI: 10.1039/c7sc00601b
   * J. Koopman and S. Grimme, ACS Omega 2019, 4, 12, 15120-15133.
     DOI: 10.1021/acsomega.9b02011
   
   for metadynamics refer to:
   * S. Grimme, J. Chem. Theory Comput., 2019, 155, 2847-2862
     DOI: 10.1021/acs.jctc.9b00143
   
   for SPH calculations refer to:
   * S. Spicher and S. Grimme, J. Chem. Theory Comput., 2021, 17, 1701-1714
     DOI: 10.1021/acs.jctc.0c01306
   
   with help from (in alphabetical order)
   P. Atkinson, C. Bannwarth, F. Bohle, G. Brandenburg, E. Caldeweyher
   M. Checinski, S. Dohm, S. Ehlert, S. Ehrlich, I. Gerasimov, C. Hölzer
   A. Katbashev, J. Koopman, C. Lavigne, S. Lehtola, F. März, M. Müller,
   F. Musil, H. Neugebauer, J. Pisarek, C. Plett, P. Pracht, F. Pultar,
   J. Seibert, P. Shushkov, S. Spicher, M. Stahn, M. Steiner, T. Strunk,
   J. Stückrath, T. Rose, and J. Unsleber
   
 * started run on 2022/07/29 at 23:56:10.836     

           -------------------------------------------------
          |                Calculation Setup                |
           -------------------------------------------------

          program call               : xtb Co_m-CP_C6_2.xyz --gfn 1 --opt -T 48
          hostname                   : cx3-15-15.cx3.hpc.ic.ac.uk
          coordinate file            : Co_m-CP_C6_2.xyz
          omp threads                :                     1

   ID    Z sym.   atoms
    1   27 Co     1, 63
    2    6 C      2-6, 8-12, 15-20, 22-27, 29-35, 38-42, 64-68, 70-74, 77-82,
                  84-89, 91-97, 100-104, 125-130
    3    7 N      7, 21, 28, 43, 69, 83, 90, 105
    4    8 O      13, 14, 36, 37, 75, 76, 98, 99
    5    1 H      44-62, 106-124
########################################################################
[WARNING] Please study the warnings concerning your input carefully
-1- prog_main_parseArguments: Unknown option '-T' provided
########################################################################

           -------------------------------------------------
          |                 G F N 1 - x T B                 |
           -------------------------------------------------

        Reference                      10.1021/acs.jctc.7b00118
      * Hamiltonian:
        H0-scaling (s, p, d)           1.850000    2.250000    2.000000
        zeta-weighting                 0.000000
      * Dispersion:
        s8                             2.400000
        a1                             0.630000
        a2                             5.000000
        s9                             0.000000
      * Repulsion:
        kExp                           1.500000
        rExp                           1.000000
      * Coulomb:
        alpha                          2.000000
        third order                    atomic
        anisotropic                    false
      * Halogen bond correction:
        rad-scale                      1.300000
        damping                        0.440000


          ...................................................
          :                      SETUP                      :
          :.................................................:
          :  # basis functions                 456          :
          :  # atomic orbitals                 454          :
          :  # shells                          262          :
          :  # electrons                       440          :
          :  # halogen bonds                     0          :
          :  max. iterations                   250          :
          :  Hamiltonian                  GFN1-xTB          :
          :  restarted?                      false          :
          :  GBSA solvation                  false          :
          :  PC potential                    false          :
          :  electronic temp.          300.0000000     K    :
          :  accuracy                    1.0000000          :
          :  -> integral cutoff          0.2500000E+02      :
          :  -> integral neglect         0.1000000E-07      :
          :  -> SCF convergence          0.1000000E-05 Eh   :
          :  -> wf. convergence          0.2000000E-04 e    :
          :  Broyden damping             0.4000000          :
          ...................................................

 iter      E             dE          RMSdq      gap      omega  full diag
   1   -248.8961721 -0.248896E+03  0.109E+01    0.20       0.0  T
   2   -219.4818317  0.294143E+02  0.116E+01    0.02       1.0  T
   3   -240.8740018 -0.213922E+02  0.719E+00    0.00       1.0  T
   4   -235.8120530  0.506195E+01  0.584E+00    0.14       1.0  T
   5   -234.1620469  0.165001E+01  0.553E+00    0.12       1.0  T
   6   -247.2603908 -0.130983E+02  0.369E+00    0.20       1.0  T
   7   -247.1903989  0.699920E-01  0.339E+00    0.27       1.0  T
   8   -249.5206375 -0.233024E+01  0.261E+00    0.21       1.0  T
   9   -249.5887644 -0.681269E-01  0.236E+00    0.24       1.0  T
  10   -249.7255099 -0.136746E+00  0.210E+00    0.17       1.0  T
  11   -249.8746612 -0.149151E+00  0.168E+00    0.18       1.0  T
  12   -250.0581999 -0.183539E+00  0.120E+00    0.09       1.0  T
  13   -250.0645102 -0.631032E-02  0.863E-01    0.06       1.0  T
  14   -250.1891883 -0.124678E+00  0.563E-01    0.09       1.0  T
  15   -250.1366635  0.525247E-01  0.681E-01    0.03       1.0  T
  16   -250.0785709  0.580926E-01  0.916E-01    0.05       1.0  T
  17   -250.1631283 -0.845574E-01  0.732E-01    0.02       1.0  T
  18   -250.2668623 -0.103734E+00  0.373E-01    0.01       1.0  T
  19   -250.2736030 -0.674070E-02  0.281E-01    0.02       1.0  T
  20   -250.1435881  0.130015E+00  0.699E-01    0.01       1.0  T
  21   -250.2988793 -0.155291E+00  0.118E-01    0.02       1.0  T
  22   -250.3023224 -0.344311E-02  0.732E-02    0.01       1.0  T
  23   -250.3014146  0.907840E-03  0.864E-02    0.02       1.0  T
  24   -250.3030610 -0.164641E-02  0.471E-02    0.02       1.0  T
  25   -250.3028522  0.208803E-03  0.516E-02    0.02       1.0  T
  26   -250.3026286  0.223648E-03  0.591E-02    0.02       1.0  T
  27   -250.3034544 -0.825837E-03  0.319E-02    0.02       1.0  T
  28   -250.3037319 -0.277501E-03  0.132E-02    0.02       1.0  T
  29   -250.3037630 -0.310956E-04  0.902E-03    0.02       1.0  T
  30   -250.3037875 -0.244912E-04  0.356E-03    0.02       2.5  T
  31   -250.3037907 -0.322170E-05  0.154E-03    0.02       5.7  T
  32   -250.3037910 -0.277849E-06  0.117E-03    0.02       7.5  T
  33   -250.3037913 -0.358254E-06  0.399E-04    0.02      22.0  T
  34   -250.3037914 -0.438564E-07  0.476E-05    0.02     184.4  T
  35   -250.3037914 -0.930044E-09  0.221E-05    0.02     396.7  T

   *** convergence criteria satisfied after 35 iterations ***

         #    Occupation            Energy/Eh            Energy/eV
      -------------------------------------------------------------
         1        2.0000           -0.8175976             -22.2480
       ...           ...                  ...                  ...
       214        2.0000           -0.3969132             -10.8006
       215        2.0000           -0.3965717             -10.7913
       216        2.0000           -0.3955108             -10.7624
       217        2.0000           -0.3954924             -10.7619
       218        1.7730           -0.3863978             -10.5144
       219        1.5657           -0.3856632             -10.4944
       220        1.4903           -0.3854644             -10.4890 (HOMO)
       221        1.1711           -0.3847733             -10.4702 (LUMO)
       222                         -0.3520440              -9.5796
       223                         -0.3398369              -9.2474
       224                         -0.3378460              -9.1933
       225                         -0.3345042              -9.1023
       ...                                ...                  ...
       454                          1.5984758              43.4967
      -------------------------------------------------------------
                  HL-Gap            0.0006911 Eh            0.0188 eV
             Fermi-level           -0.3844451 Eh          -10.4613 eV

 SCC (total)                   0 d,  0 h,  0 min,  2.271 sec
 SCC setup                      ...        0 min,  0.005 sec (  0.233%)
 Dispersion                     ...        0 min,  0.004 sec (  0.164%)
 classical contributions        ...        0 min,  0.001 sec (  0.064%)
 integral evaluation            ...        0 min,  0.125 sec (  5.509%)
 iterations                     ...        0 min,  1.810 sec ( 79.723%)
 molecular gradient             ...        0 min,  0.308 sec ( 13.561%)
 printout                       ...        0 min,  0.017 sec (  0.745%)

         :::::::::::::::::::::::::::::::::::::::::::::::::::::
         ::                     SUMMARY                     ::
         :::::::::::::::::::::::::::::::::::::::::::::::::::::
         :: total energy            -246.740423191946 Eh    ::
         :: gradient norm              0.548219509329 Eh/a0 ::
         :: HOMO-LUMO gap              0.018805609422 eV    ::
         ::.................................................::
         :: SCC energy              -250.303791382292 Eh    ::
         :: -> electrostatic           0.498266965396 Eh    ::
         :: repulsion energy           3.676248376112 Eh    ::
         :: dispersion energy         -0.112880185766 Eh    ::
         :: halogen bond corr.         0.000000000000 Eh    ::
         :: add. restraining           0.000000000000 Eh    ::
         :: total charge               0.000000000000 e     ::
         :::::::::::::::::::::::::::::::::::::::::::::::::::::

      ----------------------------------------------------------- 
     |                   =====================                   |
     |                        A N C O P T                        |
     |                   =====================                   |
     |               Approximate Normal Coordinate               |
     |                Rational Function Optimizer                |
      ----------------------------------------------------------- 

          ...................................................
          :                      SETUP                      :
          :.................................................:
          :   optimization level            normal          :
          :   max. optcycles                   390          :
          :   ANC micro-cycles                  20          :
          :   degrees of freedom               384          :
          :.................................................:
          :   RF solver                   davidson          :
          :   write xtbopt.log                true          :
          :   linear?                        false          :
          :   energy convergence         0.5000000E-05 Eh   :
          :   grad. convergence          0.1000000E-02 Eh/α :
          :   maximium RF displ.         1.0000000          :
          :   Hlow (freq-cutoff)         0.1000000E-01      :
          :   Hmax (freq-cutoff)         5.0000000          :
          :   S6 in model hess.         20.0000000          :
          ...................................................

generating ANC from model Hessian ...
Using Lindh-Hessian (1995)
 Shifting diagonal of input Hessian by    1.0020577670077675E-002
 Lowest  eigenvalues of input Hessian
    0.010000    0.010007    0.010016    0.000000    0.000000    0.000000
    0.000000    0.000000    0.000000    0.010030    0.010056    0.010125
    0.010134    0.010222    0.010272    0.010367    0.010393    0.010396
 Highest eigenvalues
    2.102800    2.175951    2.193895    2.446608    2.891667    3.004140


........................................................................
.............................. CYCLE    1 ..............................
........................................................................
   1   -250.3037914 -0.250304E+03  0.168E-05    0.02       0.0  T
   2   -250.3037906  0.746336E-06  0.147E-03    0.02       6.0  T
   3   -250.3037914 -0.740456E-06  0.131E-04    0.02      66.8  T
   4   -250.3037914 -0.330940E-08  0.874E-05    0.02     100.4  T
     SCC iter.                  ...        0 min,  0.208 sec
     gradient                   ...        0 min,  0.300 sec
 * total energy  :  -246.7404232 Eh     change        0.2575746E-08 Eh
   gradient norm :     0.5482198 Eh/α   predicted     0.0000000E+00 (-100.00%)
   displ. norm   :     0.4552737 α      lambda       -0.1886583E+00
   maximum displ.:     0.1003227 α      in ANC's #300, #141, #96, ...

........................................................................
.............................. CYCLE    2 ..............................
........................................................................
   1   -250.3868395 -0.250387E+03  0.219E-01    0.00       0.0  T
   2   -250.1938545  0.192985E+00  0.103E+00    0.14       1.0  T
   3   -250.3920584 -0.198204E+00  0.143E-01    0.01       1.0  T
   4   -249.9990379  0.393021E+00  0.111E+00    0.08       1.0  T
   5   -250.3890058 -0.389968E+00  0.157E-01    0.01       1.0  T
   6   -250.2218717  0.167134E+00  0.716E-01    0.04       1.0  T
   7   -250.1743300  0.475417E-01  0.805E-01    0.03       1.0  T
   8   -250.3693945 -0.195064E+00  0.281E-01    0.02       1.0  T
   9   -250.3898789 -0.204845E-01  0.145E-01    0.01       1.0  T
  10   -250.3964307 -0.655175E-02  0.445E-02    0.00       1.0  T
  11   -250.3970582 -0.627478E-03  0.117E-02    0.00       1.0  T
  12   -250.3970818 -0.236097E-04  0.844E-03    0.00       1.0  T
  13   -250.3970991 -0.172927E-04  0.443E-03    0.00       2.0  T
  14   -250.3971036 -0.453718E-05  0.246E-03    0.00       3.6  T
  15   -250.3971056 -0.202544E-05  0.335E-04    0.00      26.2  T
  16   -250.3971056  0.650502E-07  0.531E-04    0.00      16.5  T
  17   -250.3971057 -0.911117E-07  0.115E-04    0.00      76.4  T
  18   -250.3971057 -0.550159E-09  0.107E-04    0.00      82.0  T
     SCC iter.                  ...        0 min,  0.900 sec
     gradient                   ...        0 min,  0.300 sec
 * total energy  :  -246.8806607 Eh     change       -0.1402375E+00 Eh
   gradient norm :     0.2671427 Eh/α   predicted    -0.1139226E+00 ( -18.76%)
   displ. norm   :     0.5174425 α      lambda       -0.9655662E-01
   maximum displ.:     0.1280012 α      in ANC's #129, #96, #141, ...

........................................................................
.............................. CYCLE    3 ..............................
........................................................................
   1   -250.4800801 -0.250480E+03  0.184E-01    0.00       0.0  T
   2   -250.2445400  0.235540E+00  0.111E+00    0.24       1.0  T
   3   -250.4862451 -0.241705E+00  0.826E-02    0.00       1.0  T
   4   -250.3960875  0.901576E-01  0.530E-01    0.05       1.0  T
   5   -250.4673944 -0.713069E-01  0.251E-01    0.02       1.0  T
   6   -250.4879111 -0.205168E-01  0.186E-02    0.00       1.0  T
   7   -250.4879337 -0.225466E-04  0.171E-02    0.00       1.0  T
   8   -250.4879830 -0.493351E-04  0.903E-03    0.00       1.0  T
   9   -250.4880020 -0.189581E-04  0.426E-03    0.00       2.1  T
  10   -250.4880071 -0.514606E-05  0.320E-04    0.00      27.4  T
  11   -250.4880071  0.222853E-07  0.442E-04    0.00      19.8  T
  12   -250.4880071  0.286616E-08  0.395E-04    0.00      22.2  T
  13   -250.4880071 -0.401536E-07  0.195E-04    0.00      45.0  T
  14   -250.4880071 -0.124856E-07  0.228E-05    0.00     384.8  T
     SCC iter.                  ...        0 min,  0.700 sec
     gradient                   ...        0 min,  0.299 sec
 * total energy  :  -246.9459091 Eh     change       -0.6524846E-01 Eh
   gradient norm :     0.1013706 Eh/α   predicted    -0.6120466E-01 (  -6.20%)
   displ. norm   :     0.5351839 α      lambda       -0.3197989E-01
   maximum displ.:     0.1494082 α      in ANC's #96, #129, #95, ...

........................................................................
.............................. CYCLE    4 ..............................
........................................................................
   1   -250.5362731 -0.250536E+03  0.122E-01    0.00       0.0  T
   2   -250.3284511  0.207822E+00  0.103E+00    0.16       1.0  T
   3   -250.5380339 -0.209583E+00  0.758E-02    0.00       1.0  T
   4   -250.5385062 -0.472266E-03  0.586E-02    0.00       1.0  T
   5   -250.3659769  0.172529E+00  0.727E-01    0.08       1.0  T
   6   -250.5390600 -0.173083E+00  0.421E-02    0.00       1.0  T
   7   -250.5393898 -0.329835E-03  0.135E-02    0.00       1.0  T
   8   -250.5394190 -0.292330E-04  0.453E-03    0.00       1.9  T
   9   -250.5394232 -0.415475E-05  0.669E-04    0.00      13.1  T
  10   -250.5394233 -0.728757E-07  0.330E-04    0.00      26.6  T
  11   -250.5394233 -0.244839E-07  0.147E-04    0.00      59.7  T
  12   -250.5394233 -0.260835E-08  0.111E-04    0.00      79.1  T
     SCC iter.                  ...        0 min,  0.605 sec
     gradient                   ...        0 min,  0.299 sec
 * total energy  :  -246.9684141 Eh     change       -0.2250493E-01 Eh
   gradient norm :     0.0496867 Eh/α   predicted    -0.2056984E-01 (  -8.60%)
   displ. norm   :     0.5317581 α      lambda       -0.1374173E-01
   maximum displ.:     0.1710915 α      in ANC's #36, #73, #72, ...

........................................................................
.............................. CYCLE    5 ..............................
........................................................................
   1   -250.5676409 -0.250568E+03  0.116E-01    0.00       0.0  T
   2   -250.3458484  0.221793E+00  0.105E+00    0.17       1.0  T
   3   -250.5683788 -0.222530E+00  0.943E-02    0.00       1.0  T
   4   -250.5418203  0.265585E-01  0.297E-01    0.03       1.0  T
   5   -250.5677660 -0.259457E-01  0.965E-02    0.01       1.0  T
   6   -250.5693426 -0.157658E-02  0.614E-02    0.00       1.0  T
   7   -250.5699857 -0.643099E-03  0.228E-02    0.00       1.0  T
   8   -250.5700659 -0.802414E-04  0.817E-03    0.00       1.1  T
   9   -250.5700860 -0.200647E-04  0.926E-04    0.00       9.5  T
  10   -250.5700830  0.303539E-05  0.314E-03    0.00       2.8  T
  11   -250.5700859 -0.295061E-05  0.962E-04    0.00       9.1  T
  12   -250.5700858  0.989582E-07  0.111E-03    0.00       7.9  T
  13   -250.5700862 -0.395379E-06  0.233E-04    0.00      37.6  T
  14   -250.5700862 -0.174491E-07  0.319E-05    0.00     275.1  T
  15   -250.5700862  0.287591E-08  0.970E-05    0.00      90.4  T
     SCC iter.                  ...        0 min,  0.747 sec
     gradient                   ...        0 min,  0.301 sec
 * total energy  :  -246.9782951 Eh     change       -0.9881063E-02 Eh
   gradient norm :     0.0308020 Eh/α   predicted    -0.8813723E-02 ( -10.80%)
   displ. norm   :     0.5072608 α      lambda       -0.6453496E-02
   maximum displ.:     0.2322599 α      in ANC's #36, #37, #35, ...

........................................................................
.............................. CYCLE    6 ..............................
........................................................................
   1   -250.5878680 -0.250588E+03  0.941E-02    0.00       0.0  T
   2   -250.3912046  0.196663E+00  0.989E-01    0.14       1.0  T
   3   -250.5880734 -0.196869E+00  0.851E-02    0.00       1.0  T
   4   -250.4770719  0.111002E+00  0.584E-01    0.06       1.0  T
   5   -250.5885185 -0.111447E+00  0.693E-02    0.00       1.0  T
   6   -250.5888874 -0.368897E-03  0.524E-02    0.00       1.0  T
   7   -250.5891916 -0.304144E-03  0.355E-02    0.00       1.0  T
   8   -250.5894267 -0.235104E-03  0.610E-03    0.00       1.4  T
   9   -250.5894341 -0.738028E-05  0.638E-04    0.00      13.8  T
  10   -250.5894340  0.497324E-07  0.768E-04    0.00      11.4  T
  11   -250.5894341 -0.116559E-06  0.399E-04    0.00      22.0  T
  12   -250.5894341  0.123626E-07  0.368E-04    0.00      23.8  T
  13   -250.5894342 -0.423810E-07  0.102E-04    0.00      86.4  T
  14   -250.5894342 -0.234533E-08  0.563E-05    0.00     155.8  T
     SCC iter.                  ...        0 min,  0.709 sec
     gradient                   ...        0 min,  0.304 sec
 * total energy  :  -246.9828823 Eh     change       -0.4587144E-02 Eh
   gradient norm :     0.0223628 Eh/α   predicted    -0.4057042E-02 ( -11.56%)
   displ. norm   :     0.4639435 α      lambda       -0.3097971E-02
   maximum displ.:     0.2337243 α      in ANC's #36, #37, #35, ...

........................................................................
.............................. CYCLE    7 ..............................
........................................................................
   1   -250.6038715 -0.250604E+03  0.535E-02    0.00       0.0  T
   2   -250.5144114  0.894602E-01  0.663E-01    0.06       1.0  T
   3   -250.6029047 -0.884934E-01  0.748E-02    0.01       1.0  T
   4   -250.5756190  0.272857E-01  0.296E-01    0.03       1.0  T
   5   -250.6040119 -0.283929E-01  0.440E-02    0.00       1.0  T
   6   -250.6041767 -0.164781E-03  0.324E-02    0.00       1.0  T
   7   -250.6042758 -0.990941E-04  0.232E-02    0.00       1.0  T
   8   -250.6043682 -0.924527E-04  0.767E-03    0.00       1.1  T
   9   -250.6043783 -0.100913E-04  0.279E-03    0.00       3.1  T
  10   -250.6043798 -0.147111E-05  0.480E-04    0.00      18.3  T
  11   -250.6043798 -0.344808E-07  0.193E-04    0.00      45.5  T
  12   -250.6043798 -0.800068E-08  0.110E-04    0.00      79.5  T
     SCC iter.                  ...        0 min,  0.601 sec
     gradient                   ...        0 min,  0.302 sec
 * total energy  :  -246.9848907 Eh     change       -0.2008431E-02 Eh
   gradient norm :     0.0160160 Eh/α   predicted    -0.1882401E-02 (  -6.28%)
   displ. norm   :     0.4570518 α      lambda       -0.2045015E-02
   maximum displ.:     0.2656916 α      in ANC's #36, #35, #37, ...

........................................................................
.............................. CYCLE    8 ..............................
........................................................................
   1   -250.6164769 -0.250616E+03  0.222E-02    0.00       0.0  T
   2   -250.6070723  0.940462E-02  0.208E-01    0.01       1.0  T
   3   -250.5824860  0.245863E-01  0.320E-01    0.03       1.0  T
   4   -250.6157268 -0.332408E-01  0.525E-02    0.00       1.0  T
   5   -250.6164877 -0.760878E-03  0.191E-02    0.00       1.0  T
   6   -250.6165341 -0.463978E-04  0.127E-02    0.00       1.0  T
   7   -250.6165555 -0.213610E-04  0.674E-03    0.00       1.3  T
   8   -250.6165638 -0.830315E-05  0.202E-03    0.00       4.3  T
   9   -250.6165643 -0.500636E-06  0.118E-03    0.00       7.5  T
  10   -250.6165646 -0.317918E-06  0.488E-04    0.00      18.0  T
  11   -250.6165646 -0.525534E-07  0.147E-04    0.00      59.6  T
  12   -250.6165646  0.659062E-08  0.192E-04    0.00      45.8  T
     SCC iter.                  ...        0 min,  0.608 sec
     gradient                   ...        0 min,  0.302 sec
 * total energy  :  -246.9855410 Eh     change       -0.6503444E-03 Eh
   gradient norm :     0.0142256 Eh/α   predicted    -0.1236179E-02 (  90.08%)
   displ. norm   :     0.2106811 α      lambda       -0.1113066E-02
   maximum displ.:     0.0805484 α      in ANC's #22, #15, #14, ...

........................................................................
.............................. CYCLE    9 ..............................
........................................................................
   1   -250.6245690 -0.250625E+03  0.232E-02    0.00       0.0  T
   2   -250.6206139  0.395513E-02  0.131E-01    0.01       1.0  T
   3   -250.5229739  0.976400E-01  0.554E-01    0.06       1.0  T
   4   -250.6245493 -0.101575E+00  0.191E-02    0.00       1.0  T
   5   -250.6245951 -0.457685E-04  0.150E-02    0.00       1.0  T
   6   -250.6246493 -0.542283E-04  0.817E-03    0.00       1.1  T
   7   -250.6246707 -0.214291E-04  0.108E-03    0.00       8.1  T
   8   -250.6246703  0.448613E-06  0.154E-03    0.00       5.7  T
   9   -250.6246709 -0.637816E-06  0.652E-04    0.00      13.5  T
  10   -250.6246711 -0.142365E-06  0.295E-05    0.00     297.1  T
  11   -250.6246711  0.123028E-07  0.193E-04    0.00      45.5  T
     SCC iter.                  ...        0 min,  0.552 sec
     gradient                   ...        0 min,  0.302 sec
 * total energy  :  -246.9862013 Eh     change       -0.6602359E-03 Eh
   gradient norm :     0.0090843 Eh/α   predicted    -0.5812476E-03 ( -11.96%)
   displ. norm   :     0.1683125 α      lambda       -0.3831520E-03
   maximum displ.:     0.0834735 α      in ANC's #14, #36, #22, ...

........................................................................
.............................. CYCLE   10 ..............................
........................................................................
   1   -250.6263819 -0.250626E+03  0.290E-02    0.00       0.0  T
   2   -250.6228497  0.353224E-02  0.132E-01    0.00       1.0  T
   3   -250.6171859  0.566381E-02  0.168E-01    0.02       1.0  T
   4   -250.6265252 -0.933931E-02  0.553E-03    0.00       1.6  T
   5   -250.6265330 -0.781221E-05  0.291E-03    0.00       3.0  T
   6   -250.6265317  0.127225E-05  0.380E-03    0.00       2.3  T
   7   -250.6265344 -0.267710E-05  0.831E-04    0.00      10.6  T
   8   -250.6265345 -0.131164E-06  0.722E-04    0.00      12.1  T
   9   -250.6265346 -0.104857E-06  0.127E-04    0.00      69.1  T
  10   -250.6265346 -0.323445E-08  0.743E-05    0.00     118.0  T
     SCC iter.                  ...        0 min,  0.506 sec
     gradient                   ...        0 min,  0.303 sec
 * total energy  :  -246.9864467 Eh     change       -0.2453839E-03 Eh
   gradient norm :     0.0061227 Eh/α   predicted    -0.1970118E-03 ( -19.71%)
   displ. norm   :     0.2502059 α      lambda       -0.3380642E-03
   maximum displ.:     0.1305209 α      in ANC's #14, #36, #10, ...

........................................................................
.............................. CYCLE   11 ..............................
........................................................................
   1   -250.6273881 -0.250627E+03  0.315E-02    0.01       0.0  T
   2   -250.6236537  0.373442E-02  0.137E-01    0.00       1.0  T
   3   -250.6269711 -0.331749E-02  0.423E-02    0.01       1.0  T
   4   -250.6272895 -0.318333E-03  0.289E-02    0.01       1.0  T
   5   -250.6275659 -0.276439E-03  0.171E-03    0.01       5.1  T
   6   -250.6275625  0.342868E-05  0.435E-03    0.01       2.0  T
   7   -250.6275662 -0.374324E-05  0.614E-04    0.01      14.3  T
   8   -250.6275661  0.932845E-07  0.888E-04    0.01       9.9  T
   9   -250.6275663 -0.154849E-06  0.186E-04    0.01      47.1  T
  10   -250.6275663 -0.668507E-08  0.359E-05    0.01     244.0  T
     SCC iter.                  ...        0 min,  0.508 sec
     gradient                   ...        0 min,  0.304 sec
 * total energy  :  -246.9866561 Eh     change       -0.2093899E-03 Eh
   gradient norm :     0.0063066 Eh/α   predicted    -0.1796169E-03 ( -14.22%)
   displ. norm   :     0.2152468 α      lambda       -0.1956941E-03
   maximum displ.:     0.1200219 α      in ANC's #14, #36, #10, ...

........................................................................
.............................. CYCLE   12 ..............................
........................................................................
   1   -250.6281912 -0.250628E+03  0.717E-03    0.01       0.0  T
   2   -250.6277634  0.427804E-03  0.455E-02    0.00       1.0  T
   3   -250.6268435  0.919905E-03  0.639E-02    0.01       1.0  T
   4   -250.6281847 -0.134113E-02  0.722E-03    0.01       1.2  T
   5   -250.6282003 -0.156479E-04  0.650E-04    0.01      13.5  T
   6   -250.6282002  0.986761E-07  0.877E-04    0.01      10.0  T
   7   -250.6282003 -0.729299E-07  0.599E-04    0.01      14.6  T
   8   -250.6282004 -0.916592E-07  0.325E-05    0.01     269.5  T
   9   -250.6282004  0.104052E-09  0.365E-05    0.01     240.1  T
     SCC iter.                  ...        0 min,  0.453 sec
     gradient                   ...        0 min,  0.303 sec
 * total energy  :  -246.9868046 Eh     change       -0.1485554E-03 Eh
   gradient norm :     0.0051148 Eh/α   predicted    -0.1023865E-03 ( -31.08%)
   displ. norm   :     0.2936390 α      lambda       -0.2240092E-03
   maximum displ.:     0.1707771 α      in ANC's #14, #10, #8, ...

........................................................................
.............................. CYCLE   13 ..............................
........................................................................
   1   -250.6278243 -0.250628E+03  0.589E-03    0.01       0.0  T
   2   -250.6274142  0.410067E-03  0.446E-02    0.01       1.0  T
   3   -250.6276868 -0.272579E-03  0.210E-02    0.01       1.0  T
   4   -250.6276992 -0.123616E-04  0.201E-02    0.01       1.0  T
   5   -250.6278293 -0.130119E-03  0.248E-03    0.01       3.5  T
   6   -250.6278299 -0.623249E-06  0.163E-03    0.01       5.4  T
   7   -250.6278304 -0.483076E-06  0.535E-04    0.01      16.4  T
   8   -250.6278304 -0.433129E-07  0.173E-04    0.01      50.7  T
   9   -250.6278304 -0.633023E-08  0.256E-05    0.01     342.7  T
     SCC iter.                  ...        0 min,  0.451 sec
     gradient                   ...        0 min,  0.303 sec
 * total energy  :  -246.9869709 Eh     change       -0.1662954E-03 Eh
   gradient norm :     0.0045064 Eh/α   predicted    -0.1216638E-03 ( -26.84%)
   displ. norm   :     0.3068403 α      lambda       -0.1878571E-03
   maximum displ.:     0.1791366 α      in ANC's #14, #10, #8, ...

........................................................................
.............................. CYCLE   14 ..............................
........................................................................
   1   -250.6267023 -0.250627E+03  0.975E-03    0.00       0.0  T
   2   -250.6250117  0.169056E-02  0.890E-02    0.01       1.0  T
   3   -250.6202461  0.476558E-02  0.140E-01    0.01       1.0  T
   4   -250.6267076 -0.646145E-02  0.766E-03    0.00       1.1  T
   5   -250.6267163 -0.872158E-05  0.363E-03    0.00       2.4  T
   6   -250.6267173 -0.975322E-06  0.275E-03    0.00       3.2  T
   7   -250.6267186 -0.134983E-05  0.114E-03    0.00       7.7  T
   8   -250.6267189 -0.244358E-06  0.272E-04    0.00      32.2  T
   9   -250.6267189 -0.198371E-07  0.701E-05    0.00     125.1  T
  10   -250.6267189 -0.968271E-09  0.401E-05    0.00     218.7  T
     SCC iter.                  ...        0 min,  0.510 sec
     gradient                   ...        0 min,  0.304 sec
 * total energy  :  -246.9871085 Eh     change       -0.1375793E-03 Eh
   gradient norm :     0.0049257 Eh/α   predicted    -0.1027746E-03 ( -25.30%)
   displ. norm   :     0.2821130 α      lambda       -0.1522467E-03
   maximum displ.:     0.1627457 α      in ANC's #14, #10, #8, ...

........................................................................
.............................. CYCLE   15 ..............................
........................................................................
   1   -250.6259053 -0.250626E+03  0.880E-03    0.00       0.0  T
   2   -250.6244796  0.142575E-02  0.824E-02    0.00       1.0  T
   3   -250.6233822  0.109736E-02  0.875E-02    0.01       1.0  T
   4   -250.6259014 -0.251923E-02  0.834E-03    0.00       1.1  T
   5   -250.6259177 -0.163071E-04  0.292E-03    0.00       3.0  T
   6   -250.6259189 -0.117225E-05  0.164E-03    0.00       5.3  T
   7   -250.6259192 -0.273456E-06  0.104E-03    0.00       8.4  T
   8   -250.6259194 -0.228228E-06  0.639E-05    0.00     137.3  T
   9   -250.6259194 -0.317641E-09  0.521E-05    0.00     168.4  T
     SCC iter.                  ...        0 min,  0.451 sec
     gradient                   ...        0 min,  0.303 sec
 * total energy  :  -246.9872252 Eh     change       -0.1167582E-03 Eh
   gradient norm :     0.0047599 Eh/α   predicted    -0.8218484E-04 ( -29.61%)
   displ. norm   :     0.2793561 α      lambda       -0.1355697E-03
   maximum displ.:     0.1586129 α      in ANC's #14, #8, #10, ...

........................................................................
.............................. CYCLE   16 ..............................
........................................................................
   1   -250.6254833 -0.250625E+03  0.370E-03    0.00       0.0  T
   2   -250.6252223  0.261013E-03  0.337E-02    0.00       1.0  T
   3   -250.6230407  0.218152E-02  0.859E-02    0.01       1.0  T
   4   -250.6254802 -0.243948E-02  0.440E-03    0.00       2.0  T
   5   -250.6254859 -0.567959E-05  0.893E-04    0.00       9.8  T
   6   -250.6254861 -0.220489E-06  0.317E-04    0.00      27.6  T
   7   -250.6254861 -0.942470E-08  0.268E-04    0.00      32.7  T
   8   -250.6254861 -0.145434E-07  0.595E-05    0.00     147.3  T
   9   -250.6254861 -0.113124E-08  0.807E-06    0.00    1087.2  T
     SCC iter.                  ...        0 min,  0.460 sec
     gradient                   ...        0 min,  0.302 sec
 * total energy  :  -246.9873331 Eh     change       -0.1078904E-03 Eh
   gradient norm :     0.0037323 Eh/α   predicted    -0.7307869E-04 ( -32.27%)
   displ. norm   :     0.3153511 α      lambda       -0.1300617E-03
   maximum displ.:     0.1762798 α      in ANC's #14, #8, #10, ...

........................................................................
.............................. CYCLE   17 ..............................
........................................................................
   1   -250.6252950 -0.250625E+03  0.187E-03    0.00       0.0  T
   2   -250.6252309  0.641073E-04  0.141E-02    0.00       1.0  T
   3   -250.6251066  0.124317E-03  0.239E-02    0.00       1.0  T
   4   -250.6252876 -0.180974E-03  0.621E-03    0.00       1.4  T
   5   -250.6252957 -0.809294E-05  0.134E-03    0.00       6.5  T
   6   -250.6252958 -0.164652E-06  0.940E-04    0.00       9.3  T
   7   -250.6252960 -0.165640E-06  0.297E-04    0.00      29.6  T
   8   -250.6252960 -0.152928E-07  0.533E-05    0.00     164.7  T
   9   -250.6252960 -0.685162E-09  0.908E-06    0.00     965.9  T
     SCC iter.                  ...        0 min,  0.453 sec
     gradient                   ...        0 min,  0.305 sec
 * total energy  :  -246.9874362 Eh     change       -0.1030143E-03 Eh
   gradient norm :     0.0033761 Eh/α   predicted    -0.7149921E-04 ( -30.59%)
   displ. norm   :     0.3548884 α      lambda       -0.1246636E-03
   maximum displ.:     0.1953932 α      in ANC's #14, #8, #10, ...

........................................................................
.............................. CYCLE   18 ..............................
........................................................................
   1   -250.6254519 -0.250625E+03  0.318E-03    0.00       0.0  T
   2   -250.6250563  0.395633E-03  0.365E-02    0.00       1.0  T
   3   -250.6224911  0.256520E-02  0.948E-02    0.01       1.0  T
   4   -250.6254463 -0.295523E-02  0.591E-03    0.00       1.5  T
   5   -250.6254535 -0.721750E-05  0.877E-04    0.00      10.0  T
   6   -250.6254534  0.128660E-06  0.132E-03    0.00       6.7  T
   7   -250.6254537 -0.263601E-06  0.700E-04    0.00      12.5  T
   8   -250.6254538 -0.965346E-07  0.111E-04    0.00      79.0  T
   9   -250.6254538 -0.226098E-08  0.182E-05    0.00     481.6  T
     SCC iter.                  ...        0 min,  0.452 sec
     gradient                   ...        0 min,  0.303 sec
 * total energy  :  -246.9875339 Eh     change       -0.9772361E-04 Eh
   gradient norm :     0.0038211 Eh/α   predicted    -0.7018571E-04 ( -28.18%)
   displ. norm   :     0.3924215 α      lambda       -0.1281573E-03
   maximum displ.:     0.2104193 α      in ANC's #14, #8, #10, ...

........................................................................
.............................. CYCLE   19 ..............................
........................................................................
   1   -250.6261297 -0.250626E+03  0.669E-03    0.00       0.0  T
   2   -250.6256932  0.436534E-03  0.460E-02    0.00       1.0  T
   3   -250.6257537 -0.604989E-04  0.343E-02    0.00       1.0  T
   4   -250.6260646 -0.310930E-03  0.153E-02    0.00       1.0  T
   5   -250.6261368 -0.721918E-04  0.144E-03    0.00       6.1  T
   6   -250.6261365  0.280392E-06  0.173E-03    0.00       5.1  T
   7   -250.6261369 -0.404114E-06  0.997E-04    0.00       8.8  T
   8   -250.6261372 -0.230934E-06  0.155E-04    0.00      56.8  T
   9   -250.6261372 -0.629379E-08  0.353E-05    0.00     248.3  T
     SCC iter.                  ...        0 min,  0.451 sec
     gradient                   ...        0 min,  0.303 sec
 * total energy  :  -246.9876291 Eh     change       -0.9519884E-04 Eh
   gradient norm :     0.0042441 Eh/α   predicted    -0.7395039E-04 ( -22.32%)
   displ. norm   :     0.3732371 α      lambda       -0.1238859E-03
   maximum displ.:     0.1976979 α      in ANC's #8, #14, #10, ...

........................................................................
.............................. CYCLE   20 ..............................
........................................................................
   1   -250.6271325 -0.250627E+03  0.134E-02    0.00       0.0  T
   2   -250.6249084  0.222411E-02  0.959E-02    0.01       1.0  T
   3   -250.5777719  0.471365E-01  0.386E-01    0.04       1.0  T
   4   -250.6270699 -0.492980E-01  0.175E-02    0.00       1.0  T
   5   -250.6271476 -0.777119E-04  0.683E-03    0.00       1.3  T
   6   -250.6271609 -0.133446E-04  0.310E-03    0.00       2.8  T
   7   -250.6271629 -0.200578E-05  0.161E-03    0.00       5.4  T
   8   -250.6271635 -0.582487E-06  0.482E-04    0.00      18.2  T
   9   -250.6271636 -0.721476E-07  0.861E-05    0.00     101.8  T
  10   -250.6271636  0.253863E-09  0.855E-05    0.00     102.6  T
     SCC iter.                  ...        0 min,  0.502 sec
     gradient                   ...        0 min,  0.302 sec
 * total energy  :  -246.9877162 Eh     change       -0.8716511E-04 Eh
   gradient norm :     0.0041257 Eh/α   predicted    -0.7057469E-04 ( -19.03%)
   displ. norm   :     0.2558901 α      lambda       -0.8793970E-04
   maximum displ.:     0.1472341 α      in ANC's #8, #14, #10, ...
 * RMSD in coord.:     0.4091453 α      energy gain  -0.2472930E+00 Eh

generating ANC from model Hessian ...
Using Lindh-Hessian (1995)
 Shifting diagonal of input Hessian by    1.0028309725123953E-002
 Lowest  eigenvalues of input Hessian
    0.010000    0.010013    0.010021    0.010025    0.000000    0.000000
    0.000000    0.000000    0.000000    0.000000    0.010041    0.010136
    0.010142    0.010246    0.010304    0.010411    0.010428    0.010477
 Highest eigenvalues
    2.400025    2.400086    2.401688    2.401722    2.663138    2.991637


........................................................................
.............................. CYCLE   21 ..............................
........................................................................
   1   -250.6288286 -0.250629E+03  0.148E-02    0.01       0.0  T
   2   -250.6261114  0.271717E-02  0.104E-01    0.01       1.0  T
   3   -250.5624149  0.636966E-01  0.447E-01    0.05       1.0  T
   4   -250.6287912 -0.663763E-01  0.156E-02    0.01       1.0  T
   5   -250.6288496 -0.584016E-04  0.702E-03    0.01       1.2  T
   6   -250.6288650 -0.154015E-04  0.238E-03    0.01       3.7  T
   7   -250.6288658 -0.844309E-06  0.163E-03    0.01       5.4  T
   8   -250.6288664 -0.566860E-06  0.595E-04    0.01      14.7  T
   9   -250.6288665 -0.117057E-06  0.935E-05    0.01      93.8  T
  10   -250.6288665  0.507384E-09  0.913E-05    0.01      96.0  T
     SCC iter.                  ...        0 min,  0.502 sec
     gradient                   ...        0 min,  0.303 sec
 * total energy  :  -246.9877783 Eh     change       -0.6210921E-04 Eh
   gradient norm :     0.0030941 Eh/α   predicted     0.0000000E+00 (-100.00%)
   displ. norm   :     0.0464341 α      lambda       -0.2585711E-04
   maximum displ.:     0.0227640 α      in ANC's #8, #20, #13, ...

........................................................................
.............................. CYCLE   22 ..............................
........................................................................
   1   -250.6283119 -0.250628E+03  0.228E-03    0.01       0.0  T
   2   -250.6280526  0.259298E-03  0.296E-02    0.01       1.0  T
   3   -250.6268182  0.123443E-02  0.673E-02    0.01       1.0  T
   4   -250.6282994 -0.148124E-02  0.645E-03    0.01       1.4  T
   5   -250.6283122 -0.127619E-04  0.142E-03    0.01       6.2  T
   6   -250.6283122  0.395903E-07  0.146E-03    0.01       6.0  T
   7   -250.6283125 -0.332821E-06  0.104E-03    0.01       8.4  T
   8   -250.6283128 -0.302321E-06  0.387E-04    0.01      22.7  T
   9   -250.6283128 -0.476665E-07  0.952E-05    0.01      92.1  T
  10   -250.6283128 -0.295665E-08  0.184E-05    0.01     477.6  T
     SCC iter.                  ...        0 min,  0.498 sec
     gradient                   ...        0 min,  0.302 sec
 * total energy  :  -246.9877910 Eh     change       -0.1261855E-04 Eh
   gradient norm :     0.0021977 Eh/α   predicted    -0.1842548E-04 (  46.02%)
   displ. norm   :     0.1018560 α      lambda       -0.7874220E-04
   maximum displ.:     0.0567207 α      in ANC's #8, #20, #17, ...

........................................................................
.............................. CYCLE   23 ..............................
........................................................................
   1   -250.6273571 -0.250627E+03  0.549E-03    0.01       0.0  T
   2   -250.6260721  0.128504E-02  0.671E-02    0.01       1.0  T
   3   -250.6178281  0.824396E-02  0.170E-01    0.02       1.0  T
   4   -250.6272948 -0.946666E-02  0.146E-02    0.01       1.0  T
   5   -250.6273598 -0.650171E-04  0.295E-03    0.01       3.0  T
   6   -250.6273599 -0.107383E-06  0.288E-03    0.01       3.0  T
   7   -250.6273609 -0.987801E-06  0.218E-03    0.01       4.0  T
   8   -250.6273623 -0.137650E-05  0.576E-04    0.01      15.2  T
   9   -250.6273624 -0.105398E-06  0.148E-04    0.01      59.1  T
  10   -250.6273624 -0.738424E-08  0.105E-05    0.01     837.5  T
     SCC iter.                  ...        0 min,  0.498 sec
     gradient                   ...        0 min,  0.303 sec
 * total energy  :  -246.9878351 Eh     change       -0.4415188E-04 Eh
   gradient norm :     0.0024594 Eh/α   predicted    -0.3978250E-04 (  -9.90%)
   displ. norm   :     0.0713989 α      lambda       -0.2960100E-04
   maximum displ.:     0.0445207 α      in ANC's #8, #20, #13, ...

........................................................................
.............................. CYCLE   24 ..............................
........................................................................
   1   -250.6271810 -0.250627E+03  0.167E-03    0.01       0.0  T
   2   -250.6270973  0.837454E-04  0.175E-02    0.01       1.0  T
   3   -250.6262098  0.887471E-03  0.542E-02    0.01       1.0  T
   4   -250.6271743 -0.964467E-03  0.474E-03    0.01       1.9  T
   5   -250.6271810 -0.673332E-05  0.123E-03    0.01       7.1  T
   6   -250.6271807  0.257669E-06  0.152E-03    0.01       5.8  T
   7   -250.6271815 -0.719436E-06  0.312E-04    0.01      28.1  T
   8   -250.6271815 -0.248971E-07  0.128E-04    0.01      68.5  T
   9   -250.6271815 -0.554206E-08  0.485E-06    0.01    1809.8  T
     SCC iter.                  ...        0 min,  0.448 sec
     gradient                   ...        0 min,  0.302 sec
 * total energy  :  -246.9878574 Eh     change       -0.2225472E-04 Eh
   gradient norm :     0.0023735 Eh/α   predicted    -0.1487760E-04 ( -33.15%)
   displ. norm   :     0.1486226 α      lambda       -0.5280092E-04
   maximum displ.:     0.0893299 α      in ANC's #8, #20, #13, ...

........................................................................
.............................. CYCLE   25 ..............................
........................................................................
   1   -250.6270199 -0.250627E+03  0.202E-03    0.01       0.0  T
   2   -250.6265529  0.467026E-03  0.384E-02    0.01       1.0  T
   3   -250.6265645 -0.115706E-04  0.376E-02    0.01       1.0  T
   4   -250.6269903 -0.425888E-03  0.958E-03    0.01       1.0  T
   5   -250.6270191 -0.287376E-04  0.214E-03    0.01       4.1  T
   6   -250.6270178  0.122993E-05  0.289E-03    0.01       3.0  T
   7   -250.6270202 -0.239533E-05  0.107E-03    0.01       8.2  T
   8   -250.6270206 -0.351052E-06  0.300E-04    0.01      29.2  T
   9   -250.6270206 -0.304940E-07  0.184E-05    0.01     477.5  T
  10   -250.6270206 -0.850378E-10  0.832E-06    0.01    1054.3  T
     SCC iter.                  ...        0 min,  0.497 sec
     gradient                   ...        0 min,  0.301 sec
 * total energy  :  -246.9878798 Eh     change       -0.2238567E-04 Eh
   gradient norm :     0.0026552 Eh/α   predicted    -0.2698809E-04 (  20.56%)
   displ. norm   :     0.1394507 α      lambda       -0.6011542E-04
   maximum displ.:     0.0854759 α      in ANC's #8, #20, #13, ...

........................................................................
.............................. CYCLE   26 ..............................
........................................................................
   1   -250.6270381 -0.250627E+03  0.102E-03    0.01       0.0  T
   2   -250.6265474  0.490754E-03  0.384E-02    0.01       1.0  T
   3   -250.6270298 -0.482451E-03  0.522E-03    0.01       1.7  T
   4   -250.6270263  0.350121E-05  0.615E-03    0.01       1.4  T
   5   -250.6270382 -0.119019E-04  0.592E-04    0.01      14.8  T
   6   -250.6270370  0.119568E-05  0.198E-03    0.01       4.4  T
   7   -250.6270381 -0.105737E-05  0.884E-04    0.01       9.9  T
   8   -250.6270383 -0.213926E-06  0.379E-04    0.01      23.1  T
   9   -250.6270384 -0.478733E-07  0.539E-05    0.01     162.8  T
  10   -250.6270384 -0.977451E-09  0.441E-06    0.01    1987.5  T
     SCC iter.                  ...        0 min,  0.501 sec
     gradient                   ...        0 min,  0.301 sec
 * total energy  :  -246.9879194 Eh     change       -0.3962548E-04 Eh
   gradient norm :     0.0024862 Eh/α   predicted    -0.3064539E-04 ( -22.66%)
   displ. norm   :     0.1392597 α      lambda       -0.4273105E-04
   maximum displ.:     0.0871439 α      in ANC's #8, #20, #13, ...

........................................................................
.............................. CYCLE   27 ..............................
........................................................................
   1   -250.6270261 -0.250627E+03  0.759E-04    0.01       0.0  T
   2   -250.6263869  0.639279E-03  0.438E-02    0.01       1.0  T
   3   -250.6270110 -0.624123E-03  0.676E-03    0.01       1.3  T
   4   -250.6270262 -0.152402E-04  0.570E-04    0.01      15.4  T
   5   -250.6270261  0.164611E-06  0.107E-03    0.01       8.2  T
   6   -250.6270254  0.652373E-06  0.166E-03    0.01       5.3  T
   7   -250.6270261 -0.661153E-06  0.883E-04    0.01       9.9  T
   8   -250.6270263 -0.239505E-06  0.248E-04    0.01      35.4  T
   9   -250.6270263 -0.203007E-07  0.431E-05    0.01     203.4  T
  10   -250.6270263 -0.621128E-09  0.433E-06    0.01    2025.1  T
     SCC iter.                  ...        0 min,  0.503 sec
     gradient                   ...        0 min,  0.303 sec
 * total energy  :  -246.9879543 Eh     change       -0.3493403E-04 Eh
   gradient norm :     0.0019598 Eh/α   predicted    -0.2178025E-04 ( -37.65%)
   displ. norm   :     0.3260994 α      lambda       -0.6014395E-04
   maximum displ.:     0.2019407 α      in ANC's #8, #20, #13, ...

........................................................................
.............................. CYCLE   28 ..............................
........................................................................
   1   -250.6268440 -0.250627E+03  0.158E-03    0.01       0.0  T
   2   -250.6259444  0.899682E-03  0.520E-02    0.01       1.0  T
   3   -250.6268394 -0.895074E-03  0.421E-03    0.01       2.1  T
   4   -250.6268334  0.600566E-05  0.623E-03    0.01       1.4  T
   5   -250.6268446 -0.111744E-04  0.479E-04    0.01      18.3  T
   6   -250.6268444  0.205003E-06  0.910E-04    0.01       9.6  T
   7   -250.6268443  0.720651E-07  0.100E-03    0.01       8.8  T
   8   -250.6268446 -0.319141E-06  0.229E-04    0.01      38.4  T
   9   -250.6268447 -0.175160E-07  0.259E-05    0.01     338.7  T
  10   -250.6268447 -0.169365E-09  0.125E-05    0.01     700.4  T
     SCC iter.                  ...        0 min,  0.501 sec
     gradient                   ...        0 min,  0.304 sec
 * total energy  :  -246.9880151 Eh     change       -0.6082172E-04 Eh
   gradient norm :     0.0024920 Eh/α   predicted    -0.3149594E-04 ( -48.22%)
   displ. norm   :     0.1618252 α      lambda       -0.3231331E-04
   maximum displ.:     0.1013204 α      in ANC's #8, #20, #13, ...

........................................................................
.............................. CYCLE   29 ..............................
........................................................................
   1   -250.6267302 -0.250627E+03  0.323E-03    0.01       0.0  T
   2   -250.6264669  0.263305E-03  0.317E-02    0.01       1.0  T
   3   -250.6231822  0.328471E-02  0.103E-01    0.01       1.0  T
   4   -250.6267241 -0.354192E-02  0.505E-03    0.01       1.7  T
   5   -250.6267316 -0.748776E-05  0.141E-03    0.01       6.2  T
   6   -250.6267321 -0.425100E-06  0.750E-04    0.01      11.7  T
   7   -250.6267320  0.966984E-07  0.822E-04    0.01      10.7  T
   8   -250.6267322 -0.209188E-06  0.152E-04    0.01      57.6  T
   9   -250.6267322 -0.741090E-08  0.369E-05    0.01     237.9  T
     SCC iter.                  ...        0 min,  0.450 sec
     gradient                   ...        0 min,  0.302 sec
 * total energy  :  -246.9880430 Eh     change       -0.2787065E-04 Eh
   gradient norm :     0.0021902 Eh/α   predicted    -0.1658420E-04 ( -40.50%)
   displ. norm   :     0.2047721 α      lambda       -0.4316572E-04
   maximum displ.:     0.1277438 α      in ANC's #8, #20, #10, ...

........................................................................
.............................. CYCLE   30 ..............................
........................................................................
   1   -250.6266373 -0.250627E+03  0.708E-03    0.01       0.0  T
   2   -250.6250291  0.160825E-02  0.774E-02    0.01       1.0  T
   3   -250.6095245  0.155046E-01  0.227E-01    0.02       1.0  T
   4   -250.6265967 -0.170723E-01  0.126E-02    0.01       1.0  T
   5   -250.6266430 -0.462542E-04  0.348E-03    0.01       2.5  T
   6   -250.6266456 -0.264988E-05  0.189E-03    0.01       4.6  T
   7   -250.6266453  0.383005E-06  0.195E-03    0.01       4.5  T
   8   -250.6266464 -0.114606E-05  0.360E-04    0.01      24.4  T
   9   -250.6266464 -0.421948E-07  0.779E-05    0.01     112.6  T
  10   -250.6266464 -0.193603E-08  0.158E-05    0.01     556.3  T
     SCC iter.                  ...        0 min,  0.505 sec
     gradient                   ...        0 min,  0.303 sec
 * total energy  :  -246.9880800 Eh     change       -0.3703503E-04 Eh
   gradient norm :     0.0016285 Eh/α   predicted    -0.2248961E-04 ( -39.27%)
   displ. norm   :     0.3923487 α      lambda       -0.5066050E-04
   maximum displ.:     0.2441491 α      in ANC's #8, #20, #10, ...

........................................................................
.............................. CYCLE   31 ..............................
........................................................................
   1   -250.6258464 -0.250626E+03  0.153E-02    0.01       0.0  T
   2   -250.6185533  0.729314E-02  0.171E-01    0.02       1.0  T
   3   -250.5641448  0.544085E-01  0.431E-01    0.04       1.0  T
   4   -250.6256979 -0.615531E-01  0.251E-02    0.01       1.0  T
   5   -250.6258748 -0.176860E-03  0.739E-03    0.01       1.2  T
   6   -250.6258841 -0.935532E-05  0.465E-03    0.01       1.9  T
   7   -250.6258839  0.243219E-06  0.404E-03    0.01       2.2  T
   8   -250.6258886 -0.473619E-05  0.523E-04    0.01      16.8  T
   9   -250.6258887 -0.570119E-07  0.325E-04    0.01      27.0  T
  10   -250.6258887 -0.351992E-07  0.293E-05    0.01     299.5  T
  11   -250.6258887 -0.192131E-10  0.268E-05    0.01     326.7  T
     SCC iter.                  ...        0 min,  0.553 sec
     gradient                   ...        0 min,  0.304 sec
 * total energy  :  -246.9881388 Eh     change       -0.5874300E-04 Eh
   gradient norm :     0.0023029 Eh/α   predicted    -0.2706479E-04 ( -53.93%)
   displ. norm   :     0.2259866 α      lambda       -0.3976942E-04
   maximum displ.:     0.1410072 α      in ANC's #8, #14, #10, ...

........................................................................
.............................. CYCLE   32 ..............................
........................................................................
   1   -250.6254758 -0.250625E+03  0.752E-03    0.01       0.0  T
   2   -250.6242204  0.125540E-02  0.725E-02    0.01       1.0  T
   3   -250.6112573  0.129631E-01  0.207E-01    0.02       1.0  T
   4   -250.6254490 -0.141917E-01  0.110E-02    0.01       1.0  T
   5   -250.6254830 -0.340460E-04  0.335E-03    0.01       2.6  T
   6   -250.6254849 -0.184213E-05  0.223E-03    0.01       3.9  T
   7   -250.6254852 -0.386733E-06  0.165E-03    0.01       5.3  T
   8   -250.6254861 -0.837991E-06  0.252E-04    0.01      34.8  T
   9   -250.6254861 -0.206175E-07  0.550E-05    0.01     159.6  T
  10   -250.6254861 -0.997005E-09  0.360E-06    0.01    2435.2  T
     SCC iter.                  ...        0 min,  0.496 sec
     gradient                   ...        0 min,  0.302 sec
 * total energy  :  -246.9881752 Eh     change       -0.3639586E-04 Eh
   gradient norm :     0.0023293 Eh/α   predicted    -0.2090407E-04 ( -42.56%)
   displ. norm   :     0.2926376 α      lambda       -0.6045135E-04
   maximum displ.:     0.1819518 α      in ANC's #8, #14, #10, ...

........................................................................
.............................. CYCLE   33 ..............................
........................................................................
   1   -250.6251769 -0.250625E+03  0.811E-03    0.01       0.0  T
   2   -250.6237029  0.147398E-02  0.790E-02    0.01       1.0  T
   3   -250.6098522  0.138507E-01  0.215E-01    0.02       1.0  T
   4   -250.6251495 -0.152973E-01  0.114E-02    0.01       1.0  T
   5   -250.6251858 -0.362561E-04  0.344E-03    0.01       2.6  T
   6   -250.6251863 -0.507075E-06  0.301E-03    0.01       2.9  T
   7   -250.6251885 -0.216611E-05  0.124E-03    0.01       7.1  T
   8   -250.6251889 -0.422940E-06  0.333E-04    0.01      26.3  T
   9   -250.6251889 -0.353188E-07  0.886E-05    0.01      98.9  T
  10   -250.6251889 -0.263373E-08  0.409E-06    0.01    2141.9  T
     SCC iter.                  ...        0 min,  0.501 sec
     gradient                   ...        0 min,  0.303 sec
 * total energy  :  -246.9882299 Eh     change       -0.5470664E-04 Eh
   gradient norm :     0.0018919 Eh/α   predicted    -0.3281525E-04 ( -40.02%)
   displ. norm   :     0.5672386 α      lambda       -0.7920290E-04
   maximum displ.:     0.3520131 α      in ANC's #8, #14, #10, ...

........................................................................
.............................. CYCLE   34 ..............................
........................................................................
   1   -250.6237786 -0.250624E+03  0.110E-02    0.00       0.0  T
   2   -250.6205820  0.319659E-02  0.116E-01    0.01       1.0  T
   3   -250.5956817  0.249003E-01  0.291E-01    0.03       1.0  T
   4   -250.6237288 -0.280471E-01  0.154E-02    0.00       1.0  T
   5   -250.6237963 -0.675663E-04  0.449E-03    0.00       2.0  T
   6   -250.6237966 -0.251225E-06  0.402E-03    0.00       2.2  T
   7   -250.6238007 -0.407233E-05  0.152E-03    0.00       5.8  T
   8   -250.6238013 -0.596408E-06  0.404E-04    0.00      21.7  T
   9   -250.6238013 -0.411218E-07  0.205E-04    0.00      42.8  T
  10   -250.6238013 -0.137875E-07  0.178E-05    0.00     493.1  T
  11   -250.6238013 -0.347313E-10  0.106E-05    0.00     827.4  T
     SCC iter.                  ...        0 min,  0.549 sec
     gradient                   ...        0 min,  0.301 sec
 * total energy  :  -246.9883267 Eh     change       -0.9685596E-04 Eh
   gradient norm :     0.0017879 Eh/α   predicted    -0.4526564E-04 ( -53.26%)
   displ. norm   :     0.5262941 α      lambda       -0.6473615E-04
   maximum displ.:     0.3265771 α      in ANC's #8, #14, #10, ...

........................................................................
.............................. CYCLE   35 ..............................
........................................................................
   1   -250.6231631 -0.250623E+03  0.519E-03    0.00       0.0  T
   2   -250.6215347  0.162840E-02  0.750E-02    0.01       1.0  T
   3   -250.6144057  0.712898E-02  0.163E-01    0.02       1.0  T
   4   -250.6231238 -0.871815E-02  0.116E-02    0.00       1.0  T
   5   -250.6231668 -0.429238E-04  0.254E-03    0.00       3.5  T
   6   -250.6231682 -0.144485E-05  0.129E-03    0.00       6.8  T
   7   -250.6231680  0.228384E-06  0.144E-03    0.00       6.1  T
   8   -250.6231686 -0.655647E-06  0.218E-04    0.00      40.2  T
   9   -250.6231687 -0.158870E-07  0.153E-05    0.00     574.6  T
  10   -250.6231687 -0.279670E-10  0.673E-06    0.00    1302.9  T
     SCC iter.                  ...        0 min,  0.503 sec
     gradient                   ...        0 min,  0.301 sec
 * total energy  :  -246.9884067 Eh     change       -0.7990798E-04 Eh
   gradient norm :     0.0021922 Eh/α   predicted    -0.3635719E-04 ( -54.50%)
   displ. norm   :     0.3501313 α      lambda       -0.6272044E-04
   maximum displ.:     0.2171766 α      in ANC's #8, #14, #10, ...

........................................................................
.............................. CYCLE   36 ..............................
........................................................................
   1   -250.6235351 -0.250624E+03  0.876E-04    0.01       0.0  T
   2   -250.6230086  0.526483E-03  0.397E-02    0.01       1.0  T
   3   -250.6235283 -0.519644E-03  0.464E-03    0.01       1.9  T
   4   -250.6235289 -0.656878E-06  0.456E-03    0.01       1.9  T
   5   -250.6235353 -0.640315E-05  0.251E-04    0.01      35.0  T
   6   -250.6235353  0.380610E-07  0.451E-04    0.01      19.5  T
   7   -250.6235352  0.875282E-07  0.672E-04    0.01      13.0  T
   8   -250.6235353 -0.142198E-06  0.157E-04    0.01      55.9  T
   9   -250.6235353 -0.835294E-08  0.100E-05    0.01     872.9  T
     SCC iter.                  ...        0 min,  0.455 sec
     gradient                   ...        0 min,  0.304 sec
 * total energy  :  -246.9884609 Eh     change       -0.5421195E-04 Eh
   gradient norm :     0.0022664 Eh/α   predicted    -0.3520629E-04 ( -35.06%)
   displ. norm   :     0.4556289 α      lambda       -0.7909133E-04
   maximum displ.:     0.2827043 α      in ANC's #8, #14, #5, ...

........................................................................
.............................. CYCLE   37 ..............................
........................................................................
   1   -250.6239582 -0.250624E+03  0.382E-03    0.01       0.0  T
   2   -250.6236858  0.272314E-03  0.317E-02    0.01       1.0  T
   3   -250.6184975  0.518839E-02  0.128E-01    0.01       1.0  T
   4   -250.6239536 -0.545617E-02  0.521E-03    0.01       1.7  T
   5   -250.6239601 -0.643301E-05  0.886E-04    0.01       9.9  T
   6   -250.6239604 -0.344321E-06  0.484E-04    0.01      18.1  T
   7   -250.6239604  0.188376E-07  0.526E-04    0.01      16.7  T
   8   -250.6239604 -0.524834E-07  0.106E-04    0.01      82.6  T
   9   -250.6239604 -0.278814E-08  0.105E-05    0.01     838.3  T
     SCC iter.                  ...        0 min,  0.451 sec
     gradient                   ...        0 min,  0.303 sec
 * total energy  :  -246.9885240 Eh     change       -0.6316392E-04 Eh
   gradient norm :     0.0022367 Eh/α   predicted    -0.4775630E-04 ( -24.39%)
   displ. norm   :     0.4463382 α      lambda       -0.6382584E-04
   maximum displ.:     0.2792463 α      in ANC's #8, #14, #5, ...

........................................................................
.............................. CYCLE   38 ..............................
........................................................................
   1   -250.6236467 -0.250624E+03  0.565E-03    0.01       0.0  T
   2   -250.6217634  0.188329E-02  0.776E-02    0.01       1.0  T
   3   -250.6164713  0.529213E-02  0.147E-01    0.02       1.0  T
   4   -250.6235699 -0.709862E-02  0.159E-02    0.01       1.0  T
   5   -250.6236409 -0.709868E-04  0.561E-03    0.01       1.6  T
   6   -250.6236516 -0.107165E-04  0.123E-03    0.01       7.1  T
   7   -250.6236502  0.137684E-05  0.235E-03    0.01       3.7  T
   8   -250.6236519 -0.167676E-05  0.563E-04    0.01      15.6  T
   9   -250.6236520 -0.968824E-07  0.168E-04    0.01      52.1  T
  10   -250.6236520 -0.775788E-08  0.735E-05    0.01     119.3  T
     SCC iter.                  ...        0 min,  0.509 sec
     gradient                   ...        0 min,  0.305 sec
 * total energy  :  -246.9885724 Eh     change       -0.4840591E-04 Eh
   gradient norm :     0.0024223 Eh/α   predicted    -0.3827152E-04 ( -20.94%)
   displ. norm   :     0.3447841 α      lambda       -0.4540868E-04
   maximum displ.:     0.2184341 α      in ANC's #8, #14, #5, ...

........................................................................
.............................. CYCLE   39 ..............................
........................................................................
   1   -250.6243403 -0.250624E+03  0.402E-03    0.01       0.0  T
   2   -250.6163278  0.801258E-02  0.155E-01    0.02       1.0  T
   3   -250.6242554 -0.792763E-02  0.198E-02    0.01       1.0  T
   4   -250.6241109  0.144539E-03  0.264E-02    0.01       1.0  T
   5   -250.6243324 -0.221551E-03  0.568E-03    0.01       1.5  T
   6   -250.6243405 -0.805080E-05  0.328E-03    0.01       2.7  T
   7   -250.6243372  0.322146E-05  0.447E-03    0.01       2.0  T
   8   -250.6243438 -0.655180E-05  0.647E-04    0.01      13.6  T
   9   -250.6243439 -0.137386E-06  0.156E-04    0.01      56.4  T
  10   -250.6243439 -0.781694E-08  0.278E-05    0.01     315.1  T
     SCC iter.                  ...        0 min,  0.499 sec
     gradient                   ...        0 min,  0.303 sec
 * total energy  :  -246.9886086 Eh     change       -0.3612065E-04 Eh
   gradient norm :     0.0019956 Eh/α   predicted    -0.2540671E-04 ( -29.66%)
   displ. norm   :     0.5160922 α      lambda       -0.4662776E-04
   maximum displ.:     0.3328560 α      in ANC's #8, #14, #5, ...

........................................................................
.............................. CYCLE   40 ..............................
........................................................................
   1   -250.6243074 -0.250624E+03  0.398E-03    0.01       0.0  T
   2   -250.6002600  0.240473E-01  0.268E-01    0.03       1.0  T
   3   -250.6236063 -0.233463E-01  0.466E-02    0.01       1.0  T
   4   -250.6235913  0.150246E-04  0.464E-02    0.01       1.0  T
   5   -250.6243059 -0.714635E-03  0.468E-03    0.01       1.9  T
   6   -250.6243060 -0.314468E-07  0.490E-03    0.01       1.8  T
   7   -250.6242953  0.106368E-04  0.740E-03    0.01       1.2  T
   8   -250.6243138 -0.184164E-04  0.611E-05    0.01     143.6  T
   9   -250.6243137  0.888670E-08  0.169E-04    0.01      52.0  T
  10   -250.6243138 -0.871100E-08  0.495E-05    0.01     177.1  T
     SCC iter.                  ...        0 min,  0.508 sec
     gradient                   ...        0 min,  0.304 sec
 * total energy  :  -246.9886617 Eh     change       -0.5315770E-04 Eh
   gradient norm :     0.0019165 Eh/α   predicted    -0.2607604E-04 ( -50.95%)
   displ. norm   :     0.4033896 α      lambda       -0.4394542E-04
   maximum displ.:     0.2634764 α      in ANC's #8, #14, #5, ...

........................................................................
.............................. CYCLE   41 ..............................
........................................................................
   1   -250.6245987 -0.250625E+03  0.113E-02    0.01       0.0  T
   2   -250.6222259  0.237274E-02  0.101E-01    0.01       1.0  T
   3   -250.6000153  0.222107E-01  0.271E-01    0.03       1.0  T
   4   -250.6245024 -0.244871E-01  0.195E-02    0.01       1.0  T
   5   -250.6246108 -0.108436E-03  0.615E-03    0.01       1.4  T
   6   -250.6246186 -0.773773E-05  0.367E-03    0.01       2.4  T
   7   -250.6246184  0.159979E-06  0.339E-03    0.01       2.6  T
   8   -250.6246218 -0.336670E-05  0.958E-04    0.01       9.2  T
   9   -250.6246221 -0.291780E-06  0.259E-04    0.01      33.8  T
  10   -250.6246221 -0.215007E-07  0.608E-05    0.01     144.2  T
  11   -250.6246221 -0.960682E-09  0.268E-05    0.01     327.8  T
     SCC iter.                  ...        0 min,  0.550 sec
     gradient                   ...        0 min,  0.303 sec
 * total energy  :  -246.9887074 Eh     change       -0.4570364E-04 Eh
   gradient norm :     0.0023042 Eh/α   predicted    -0.2356293E-04 ( -48.44%)
   displ. norm   :     0.2932201 α      lambda       -0.4479774E-04
   maximum displ.:     0.1919507 α      in ANC's #8, #14, #5, ...

........................................................................
.............................. CYCLE   42 ..............................
........................................................................
   1   -250.6235751 -0.250624E+03  0.983E-03    0.01       0.0  T
   2   -250.6211864  0.238873E-02  0.974E-02    0.01       1.0  T
   3   -250.5949184  0.262679E-01  0.293E-01    0.03       1.0  T
   4   -250.6235761 -0.286576E-01  0.824E-03    0.01       1.1  T
   5   -250.6235909 -0.147972E-04  0.290E-03    0.01       3.0  T
   6   -250.6235915 -0.594629E-06  0.222E-03    0.01       3.9  T
   7   -250.6235924 -0.907392E-06  0.858E-04    0.01      10.2  T
   8   -250.6235926 -0.163874E-06  0.118E-04    0.01      74.4  T
   9   -250.6235926 -0.174617E-08  0.962E-05    0.01      91.2  T
     SCC iter.                  ...        0 min,  0.451 sec
     gradient                   ...        0 min,  0.304 sec
 * total energy  :  -246.9887326 Eh     change       -0.2521724E-04 Eh
   gradient norm :     0.0025042 Eh/α   predicted    -0.2432889E-04 (  -3.52%)
   displ. norm   :     0.1480757 α      lambda       -0.1873169E-04
   maximum displ.:     0.0968193 α      in ANC's #8, #14, #5, ...
 * RMSD in coord.:     0.5161408 α      energy gain  -0.1016397E-02 Eh

generating ANC from model Hessian ...
Using Lindh-Hessian (1995)
 Shifting diagonal of input Hessian by    1.0025390846543233E-002
 Lowest  eigenvalues of input Hessian
    0.010000    0.010012    0.010016    0.000000    0.000000    0.000000
    0.000000    0.000000    0.000000    0.010043    0.010066    0.010132
    0.010141    0.010252    0.010317    0.010390    0.010403    0.010477
 Highest eigenvalues
    2.398823    2.399582    2.399763    2.399782    2.661499    2.989646


........................................................................
.............................. CYCLE   43 ..............................
........................................................................
   1   -250.6230632 -0.250623E+03  0.386E-03    0.01       0.0  T
   2   -250.6222375  0.825694E-03  0.525E-02    0.01       1.0  T
   3   -250.6187427  0.349486E-02  0.114E-01    0.01       1.0  T
   4   -250.6230269 -0.428420E-02  0.109E-02    0.01       1.0  T
   5   -250.6230640 -0.370647E-04  0.249E-03    0.01       3.5  T
   6   -250.6230635  0.485150E-06  0.277E-03    0.01       3.2  T
   7   -250.6230655 -0.205729E-05  0.119E-03    0.01       7.4  T
   8   -250.6230659 -0.423608E-06  0.370E-04    0.01      23.7  T
   9   -250.6230660 -0.462052E-07  0.464E-05    0.01     189.0  T
  10   -250.6230660 -0.568576E-09  0.226E-05    0.01     388.5  T
     SCC iter.                  ...        0 min,  0.501 sec
     gradient                   ...        0 min,  0.303 sec
 * total energy  :  -246.9887470 Eh     change       -0.1439732E-04 Eh
   gradient norm :     0.0018431 Eh/α   predicted     0.0000000E+00 (-100.00%)
   displ. norm   :     0.0277503 α      lambda       -0.1007013E-04
   maximum displ.:     0.0126277 α      in ANC's #12, #24, #8, ...

........................................................................
.............................. CYCLE   44 ..............................
........................................................................
   1   -250.6240284 -0.250624E+03  0.186E-03    0.01       0.0  T
   2   -250.6229837  0.104465E-02  0.562E-02    0.01       1.0  T
   3   -250.6239585 -0.974768E-03  0.156E-02    0.01       1.0  T
   4   -250.6239980 -0.394779E-04  0.967E-03    0.01       1.0  T
   5   -250.6240275 -0.295745E-04  0.211E-03    0.01       4.2  T
   6   -250.6240223  0.526888E-05  0.448E-03    0.01       2.0  T
   7   -250.6240291 -0.679444E-05  0.234E-04    0.01      37.5  T
   8   -250.6240290  0.797460E-07  0.531E-04    0.01      16.5  T
   9   -250.6240291 -0.930668E-07  0.989E-05    0.01      88.7  T
  10   -250.6240291 -0.322459E-08  0.181E-05    0.01     483.4  T
     SCC iter.                  ...        0 min,  0.503 sec
     gradient                   ...        0 min,  0.303 sec
 * total energy  :  -246.9887549 Eh     change       -0.7832020E-05 Eh
   gradient norm :     0.0010856 Eh/α   predicted    -0.5181855E-05 ( -33.84%)
   displ. norm   :     0.0686334 α      lambda       -0.1736066E-04
   maximum displ.:     0.0321517 α      in ANC's #12, #19, #8, ...

........................................................................
.............................. CYCLE   45 ..............................
........................................................................
   1   -250.6253589 -0.250625E+03  0.361E-03    0.01       0.0  T
   2   -250.6213077  0.405119E-02  0.111E-01    0.01       1.0  T
   3   -250.6251597 -0.385209E-02  0.270E-02    0.01       1.0  T
   4   -250.6251561  0.364570E-05  0.247E-02    0.01       1.0  T
   5   -250.6253517 -0.195559E-03  0.533E-03    0.01       1.6  T
   6   -250.6253310  0.206487E-04  0.952E-03    0.01       1.0  T
   7   -250.6253604 -0.293602E-04  0.198E-03    0.01       4.4  T
   8   -250.6253615 -0.114446E-05  0.645E-04    0.01      13.6  T
   9   -250.6253616 -0.752016E-07  0.450E-04    0.01      19.5  T
  10   -250.6253617 -0.674704E-07  0.647E-05    0.01     135.5  T
  11   -250.6253617 -0.138238E-08  0.972E-06    0.01     902.6  T
     SCC iter.                  ...        0 min,  0.546 sec
     gradient                   ...        0 min,  0.303 sec
 * total energy  :  -246.9887562 Eh     change       -0.1309447E-05 Eh
   gradient norm :     0.0030046 Eh/α   predicted    -0.8698682E-05 ( 564.30%)
   displ. norm   :     0.0242831 α      lambda       -0.1899925E-04
   maximum displ.:     0.0126978 α      in ANC's #12, #24, #8, ...

........................................................................
.............................. CYCLE   46 ..............................
........................................................................
   1   -250.6248078 -0.250625E+03  0.546E-04    0.01       0.0  T
   2   -250.6248072  0.575772E-06  0.147E-03    0.01       6.0  T
   3   -250.6247393  0.678860E-04  0.143E-02    0.01       1.0  T
   4   -250.6248056 -0.662762E-04  0.272E-03    0.01       3.2  T
   5   -250.6248070 -0.142248E-05  0.152E-03    0.01       5.8  T
   6   -250.6248059  0.110707E-05  0.237E-03    0.01       3.7  T
   7   -250.6248078 -0.189356E-05  0.206E-04    0.01      42.6  T
   8   -250.6248078  0.433926E-07  0.414E-04    0.01      21.2  T
   9   -250.6248078 -0.584677E-07  0.222E-05    0.01     394.2  T
  10   -250.6248078 -0.129546E-09  0.109E-05    0.01     801.8  T
     SCC iter.                  ...        0 min,  0.502 sec
     gradient                   ...        0 min,  0.301 sec
 * total energy  :  -246.9887695 Eh     change       -0.1332984E-04 Eh
   gradient norm :     0.0018253 Eh/α   predicted    -0.9507711E-05 ( -28.67%)
   displ. norm   :     0.0605493 α      lambda       -0.1507850E-04
   maximum displ.:     0.0342076 α      in ANC's #12, #8, #17, ...

........................................................................
.............................. CYCLE   47 ..............................
........................................................................
   1   -250.6230048 -0.250623E+03  0.202E-03    0.01       0.0  T
   2   -250.6211248  0.188003E-02  0.750E-02    0.01       1.0  T
   3   -250.6229928 -0.186801E-02  0.768E-03    0.01       1.1  T
   4   -250.6229568  0.360390E-04  0.122E-02    0.01       1.0  T
   5   -250.6230034 -0.466277E-04  0.257E-03    0.01       3.4  T
   6   -250.6229927  0.107380E-04  0.618E-03    0.01       1.4  T
   7   -250.6230057 -0.130016E-04  0.199E-04    0.01      44.0  T
   8   -250.6230055  0.120932E-06  0.632E-04    0.01      13.9  T
   9   -250.6230057 -0.133742E-06  0.851E-05    0.01     103.1  T
  10   -250.6230057 -0.218895E-08  0.303E-05    0.01     289.2  T
     SCC iter.                  ...        0 min,  0.500 sec
     gradient                   ...        0 min,  0.304 sec
 * total energy  :  -246.9887780 Eh     change       -0.8471082E-05 Eh
   gradient norm :     0.0015879 Eh/α   predicted    -0.7552394E-05 ( -10.84%)
   displ. norm   :     0.0408626 α      lambda       -0.5991281E-05
   maximum displ.:     0.0238687 α      in ANC's #12, #8, #17, ...

........................................................................
.............................. CYCLE   48 ..............................
........................................................................
   1   -250.6233482 -0.250623E+03  0.562E-04    0.01       0.0  T
   2   -250.6230554  0.292851E-03  0.296E-02    0.01       1.0  T
   3   -250.6233326 -0.277236E-03  0.687E-03    0.01       1.3  T
   4   -250.6233349 -0.226326E-05  0.635E-03    0.01       1.4  T
   5   -250.6233477 -0.128240E-04  0.132E-03    0.01       6.7  T
   6   -250.6233461  0.159664E-05  0.255E-03    0.01       3.4  T
   7   -250.6233482 -0.210312E-05  0.566E-04    0.01      15.5  T
   8   -250.6233483 -0.844295E-07  0.264E-04    0.01      33.2  T
   9   -250.6233483 -0.237519E-07  0.277E-06    0.01    3163.5  T
  10   -250.6233483  0.397904E-11  0.420E-06    0.01    2087.7  T
     SCC iter.                  ...        0 min,  0.505 sec
     gradient                   ...        0 min,  0.302 sec
 * total energy  :  -246.9887848 Eh     change       -0.6799669E-05 Eh
   gradient norm :     0.0008001 Eh/α   predicted    -0.3001617E-05 ( -55.86%)
   displ. norm   :     0.0823653 α      lambda       -0.8235869E-05
   maximum displ.:     0.0489118 α      in ANC's #12, #8, #17, ...

........................................................................
.............................. CYCLE   49 ..............................
........................................................................
   1   -250.6237470 -0.250624E+03  0.152E-03    0.01       0.0  T
   2   -250.6228953  0.851738E-03  0.507E-02    0.01       1.0  T
   3   -250.6237006 -0.805333E-03  0.127E-02    0.01       1.0  T
   4   -250.6237323 -0.316536E-04  0.679E-03    0.01       1.3  T
   5   -250.6237468 -0.145401E-04  0.141E-03    0.01       6.2  T
   6   -250.6237462  0.596568E-06  0.195E-03    0.01       4.5  T
   7   -250.6237473 -0.104485E-05  0.832E-04    0.01      10.5  T
   8   -250.6237474 -0.191187E-06  0.351E-04    0.01      25.0  T
   9   -250.6237475 -0.421172E-07  0.181E-05    0.01     483.7  T
  10   -250.6237475 -0.958948E-10  0.764E-06    0.01    1148.6  T
     SCC iter.                  ...        0 min,  0.501 sec
     gradient                   ...        0 min,  0.304 sec
 * total energy  :  -246.9887930 Eh     change       -0.8248209E-05 Eh
   gradient norm :     0.0006966 Eh/α   predicted    -0.4133945E-05 ( -49.88%)
   displ. norm   :     0.0842672 α      lambda       -0.4883691E-05
   maximum displ.:     0.0513414 α      in ANC's #12, #8, #17, ...

........................................................................
.............................. CYCLE   50 ..............................
........................................................................
   1   -250.6235058 -0.250624E+03  0.152E-03    0.01       0.0  T
   2   -250.6234831  0.226435E-04  0.105E-02    0.01       1.0  T
   3   -250.6235015 -0.183357E-04  0.380E-03    0.01       2.3  T
[...]
                            10 C    0.104
    17   6 C    3.985 --    16 C    1.442     9 C    1.386    51 H    0.972
    18   6 C    3.917 --     8 C    1.328    21 N    1.196    19 C    1.183
    19   6 C    3.958 --    20 C    1.635    18 C    1.183    52 H    0.973
    20   6 C    3.961 --    19 C    1.635    22 C    1.191    53 H    0.973
    21   7 N    3.349 --    22 C    1.228    18 C    1.196     1 Co   0.633
    22   6 C    3.903 --    23 C    1.260    21 N    1.228    20 C    1.191
    23   6 C    3.935 --    22 C    1.260    24 C    1.258   128 C    1.192
    24   6 C    3.903 --    23 C    1.258    28 N    1.231    25 C    1.191
    25   6 C    3.961 --    26 C    1.636    24 C    1.191    54 H    0.973
    26   6 C    3.958 --    25 C    1.636    27 C    1.181    55 H    0.973
    27   6 C    3.917 --    29 C    1.332    28 N    1.192    26 C    1.181
    28   7 N    3.347 --    24 C    1.231    27 C    1.192     1 Co   0.636
    29   6 C    3.933 --    27 C    1.332    39 C    1.317    30 C    1.029
    30   6 C    3.988 --    38 C    1.405    31 C    1.388    29 C    1.029
                            33 C    0.102
    31   6 C    3.987 --    32 C    1.440    30 C    1.388    56 H    0.972
    32   6 C    3.994 --    33 C    1.450    31 C    1.440    57 H    0.972
                            38 C    0.104
    33   6 C    3.985 --    32 C    1.450    34 C    1.388    58 H    0.969
                            30 C    0.102
    34   6 C    3.988 --    38 C    1.400    33 C    1.388    35 C    1.004
    35   6 C    3.836 --    37 O    1.693    36 O    1.090    34 C    1.004
    36   8 O    2.099 --    35 C    1.090    59 H    0.838    37 O    0.129
    37   8 O    1.961 --    35 C    1.693    36 O    0.129
    38   6 C    3.985 --    30 C    1.405    34 C    1.400    60 H    0.969
                            32 C    0.104
    39   6 C    3.921 --    29 C    1.317    43 N    1.213    40 C    1.176
    40   6 C    3.963 --    41 C    1.649    39 C    1.176    61 H    0.973
    41   6 C    3.960 --    40 C    1.649    42 C    1.174    62 H    0.975
    42   6 C    3.923 --     2 C    1.365    43 N    1.199    41 C    1.174
    43   7 N    3.348 --    39 C    1.213    42 C    1.199     1 Co   0.638
    44   1 H    1.000 --     2 C    0.970
    45   1 H    0.997 --     4 C    0.975
    46   1 H    1.003 --     5 C    0.973
    47   1 H    1.007 --    10 C    0.967
    48   1 H    0.872 --    13 O    0.838
    49   1 H    1.005 --    15 C    0.970
    50   1 H    1.002 --    16 C    0.972
    51   1 H    1.004 --    17 C    0.972
    52   1 H    1.003 --    19 C    0.973
    53   1 H    1.001 --    20 C    0.973
    54   1 H    1.001 --    25 C    0.973
    55   1 H    1.003 --    26 C    0.973
    56   1 H    1.005 --    31 C    0.972
    57   1 H    1.001 --    32 C    0.972
    58   1 H    1.005 --    33 C    0.969
    59   1 H    0.873 --    36 O    0.838
    60   1 H    1.007 --    38 C    0.969
    61   1 H    1.003 --    40 C    0.973
    62   1 H    0.997 --    41 C    0.975
    63  27 Co   3.058 --    69 N    0.643   105 N    0.639    90 N    0.636
                            83 N    0.633
    64   6 C    3.930 --    65 C    1.365   104 C    1.365   106 H    0.970
    65   6 C    3.923 --    64 C    1.365    69 N    1.200    66 C    1.173
    66   6 C    3.959 --    67 C    1.651    65 C    1.173   107 H    0.975
    67   6 C    3.963 --    66 C    1.651    68 C    1.174   108 H    0.973
    68   6 C    3.921 --    70 C    1.322    69 N    1.210    67 C    1.174
    69   7 N    3.347 --    68 C    1.210    65 C    1.200    63 Co   0.643
    70   6 C    3.933 --    80 C    1.328    68 C    1.322    71 C    1.029
    71   6 C    3.988 --    72 C    1.407    79 C    1.387    70 C    1.029
                            77 C    0.102
    72   6 C    3.983 --    71 C    1.407    73 C    1.397   109 H    0.967
                            78 C    0.104
    73   6 C    3.988 --    72 C    1.397    77 C    1.391    74 C    1.004
    74   6 C    3.836 --    76 O    1.693    75 O    1.090    73 C    1.004
    75   8 O    2.099 --    74 C    1.090   110 H    0.838    76 O    0.129
    76   8 O    1.962 --    74 C    1.693    75 O    0.129
    77   6 C    3.986 --    78 C    1.448    73 C    1.391   111 H    0.970
                            71 C    0.102
    78   6 C    3.994 --    77 C    1.448    79 C    1.442   112 H    0.972
                            72 C    0.104
    79   6 C    3.985 --    78 C    1.442    71 C    1.387   113 H    0.972
    80   6 C    3.917 --    70 C    1.328    83 N    1.196    81 C    1.183
    81   6 C    3.958 --    82 C    1.635    80 C    1.183   114 H    0.973
    82   6 C    3.961 --    81 C    1.635    84 C    1.191   115 H    0.973
    83   7 N    3.349 --    84 C    1.228    80 C    1.196    63 Co   0.633
    84   6 C    3.903 --    85 C    1.259    83 N    1.228    82 C    1.191
    85   6 C    3.935 --    84 C    1.259    86 C    1.258   130 C    1.192
    86   6 C    3.903 --    85 C    1.258    90 N    1.231    87 C    1.191
    87   6 C    3.961 --    88 C    1.636    86 C    1.191   116 H    0.973
    88   6 C    3.958 --    87 C    1.636    89 C    1.181   117 H    0.973
    89   6 C    3.917 --    91 C    1.332    90 N    1.192    88 C    1.181
    90   7 N    3.347 --    86 C    1.231    89 C    1.192    63 Co   0.636
    91   6 C    3.933 --    89 C    1.332   101 C    1.317    92 C    1.029
    92   6 C    3.988 --   100 C    1.405    93 C    1.388    91 C    1.029
                            95 C    0.102
    93   6 C    3.987 --    94 C    1.440    92 C    1.388   118 H    0.972
    94   6 C    3.994 --    95 C    1.450    93 C    1.440   119 H    0.972
                           100 C    0.104
    95   6 C    3.985 --    94 C    1.450    96 C    1.388   120 H    0.969
                            92 C    0.102
    96   6 C    3.988 --   100 C    1.400    95 C    1.388    97 C    1.004
    97   6 C    3.836 --    99 O    1.693    98 O    1.090    96 C    1.004
    98   8 O    2.099 --    97 C    1.090   121 H    0.838    99 O    0.129
    99   8 O    1.961 --    97 C    1.693    98 O    0.129
   100   6 C    3.985 --    92 C    1.405    96 C    1.400   122 H    0.969
                            94 C    0.104
   101   6 C    3.921 --    91 C    1.317   105 N    1.214   102 C    1.176
   102   6 C    3.963 --   103 C    1.649   101 C    1.176   123 H    0.973
   103   6 C    3.960 --   102 C    1.649   104 C    1.174   124 H    0.975
   104   6 C    3.923 --    64 C    1.365   105 N    1.199   103 C    1.174
   105   7 N    3.348 --   101 C    1.214   104 C    1.199    63 Co   0.639
   106   1 H    1.000 --    64 C    0.970
   107   1 H    0.997 --    66 C    0.975
   108   1 H    1.003 --    67 C    0.973
   109   1 H    1.007 --    72 C    0.967
   110   1 H    0.872 --    75 O    0.838
   111   1 H    1.005 --    77 C    0.970
   112   1 H    1.002 --    78 C    0.972
   113   1 H    1.004 --    79 C    0.972
   114   1 H    1.003 --    81 C    0.973
   115   1 H    1.001 --    82 C    0.973
   116   1 H    1.001 --    87 C    0.973
   117   1 H    1.003 --    88 C    0.973
   118   1 H    1.005 --    93 C    0.972
   119   1 H    1.001 --    94 C    0.972
   120   1 H    1.005 --    95 C    0.969
   121   1 H    0.873 --    98 O    0.838
   122   1 H    1.007 --   100 C    0.969
   123   1 H    1.003 --   102 C    0.973
   124   1 H    0.997 --   103 C    0.975
   125   6 C    3.921 --   126 C    2.360   129 C    1.339   128 C    0.189
   126   6 C    3.921 --   125 C    2.360   127 C    1.339   130 C    0.189
   127   6 C    3.931 --   128 C    2.443   126 C    1.339
   128   6 C    3.885 --   127 C    2.443    23 C    1.192   125 C    0.189
   129   6 C    3.931 --   130 C    2.443   125 C    1.339
   130   6 C    3.885 --   129 C    2.443    85 C    1.192   126 C    0.189
 ---------------------------------------------------------------------------

Topologies differ in total number of bonds
Writing topology from bond orders to xtbtopo.mol

 dipole moment from electron density (au)
     X       Y       Z   
   0.0073   0.1437  -0.8639  total (Debye):    2.226

           -------------------------------------------------
          |                Geometry Summary                 |
           -------------------------------------------------

      molecular mass/u    :     1285.0114587
   center of mass at/Å    :       22.4713525      -0.0030247       0.0161853
  moments of inertia/u·Å² :        0.2851232E+05   0.8883973E+05   0.1153426E+06
rotational constants/cm⁻¹ :        0.5912403E-03   0.1897533E-03   0.1461527E-03

 * 129 selected distances

     #   Z          #   Z                                           value/Å
     2   6 C        3   6 C                                       1.3784123
     3   6 C        4   6 C                                       1.4314027
     4   6 C        5   6 C                                       1.3535199
     5   6 C        6   6 C                                       1.4341722 (max)
     3   6 C        7   7 N                                       1.3724717
     6   6 C        7   7 N                                       1.3718700
     6   6 C        8   6 C                                       1.3882732
     9   6 C       10   6 C                                       1.3921304
    10   6 C       11   6 C                                       1.3941629
    12   6 C       13   8 O                                       1.3407639
    12   6 C       14   8 O                                       1.2043332
    11   6 C       15   6 C                                       1.3947835
    15   6 C       16   6 C                                       1.3861128
     9   6 C       17   6 C                                       1.3970327
    16   6 C       17   6 C                                       1.3876663
     8   6 C       18   6 C                                       1.3874599
    18   6 C       19   6 C                                       1.4317594
    19   6 C       20   6 C                                       1.3552398
    18   6 C       21   7 N                                       1.3753999
    20   6 C       22   6 C                                       1.4283428
    21   7 N       22   6 C                                       1.3670269
    22   6 C       23   6 C                                       1.3971604
    23   6 C       24   6 C                                       1.3974638
    24   6 C       25   6 C                                       1.4283582
    25   6 C       26   6 C                                       1.3550221
    26   6 C       27   6 C                                       1.4321020
    24   6 C       28   7 N                                       1.3664750
    27   6 C       28   7 N                                       1.3766365
    27   6 C       29   6 C                                       1.3867401
    30   6 C       31   6 C                                       1.3968125
    31   6 C       32   6 C                                       1.3878555
    32   6 C       33   6 C                                       1.3848393
    33   6 C       34   6 C                                       1.3957491
    35   6 C       36   8 O                                       1.3407021
    35   6 C       37   8 O                                       1.2043726
    30   6 C       38   6 C                                       1.3933657
    34   6 C       38   6 C                                       1.3932794
    29   6 C       39   6 C                                       1.3889387
    39   6 C       40   6 C                                       1.4337038
    40   6 C       41   6 C                                       1.3539481
     2   6 C       42   6 C                                       1.3784696
    41   6 C       42   6 C                                       1.4313218
    39   6 C       43   7 N                                       1.3707972
    42   6 C       43   7 N                                       1.3726054
     2   6 C       44   1 H                                       1.0835238
     4   6 C       45   1 H                                       1.0782881
     5   6 C       46   1 H                                       1.0778795
    10   6 C       47   1 H                                       1.0845254
    13   8 O       48   1 H                                       0.9710624
    15   6 C       49   1 H                                       1.0832452
    16   6 C       50   1 H                                       1.0841257
    17   6 C       51   1 H                                       1.0842655
    19   6 C       52   1 H                                       1.0778685
    20   6 C       53   1 H                                       1.0780909
    25   6 C       54   1 H                                       1.0780811
    26   6 C       55   1 H                                       1.0778149
    31   6 C       56   1 H                                       1.0842639
    32   6 C       57   1 H                                       1.0840355
    33   6 C       58   1 H                                       1.0841506
    36   8 O       59   1 H                                       0.9710261 (min)
    38   6 C       60   1 H                                       1.0835908
    40   6 C       61   1 H                                       1.0779687
    41   6 C       62   1 H                                       1.0783240
    64   6 C       65   6 C                                       1.3784339
    65   6 C       66   6 C                                       1.4314044
    66   6 C       67   6 C                                       1.3535343
    67   6 C       68   6 C                                       1.4341571
    65   6 C       69   7 N                                       1.3724371
    68   6 C       69   7 N                                       1.3718933
    68   6 C       70   6 C                                       1.3882135
    71   6 C       72   6 C                                       1.3920914
    72   6 C       73   6 C                                       1.3941593
    74   6 C       75   8 O                                       1.3407135
    74   6 C       76   8 O                                       1.2043374
    73   6 C       77   6 C                                       1.3947775
    77   6 C       78   6 C                                       1.3861201
    71   6 C       79   6 C                                       1.3970015
    78   6 C       79   6 C                                       1.3876747
    70   6 C       80   6 C                                       1.3874292
    80   6 C       81   6 C                                       1.4317117
    81   6 C       82   6 C                                       1.3552756
    80   6 C       83   7 N                                       1.3754406
    82   6 C       84   6 C                                       1.4283258
    83   7 N       84   6 C                                       1.3669689
    84   6 C       85   6 C                                       1.3971869
    85   6 C       86   6 C                                       1.3974722
    86   6 C       87   6 C                                       1.4283727
    87   6 C       88   6 C                                       1.3550012
    88   6 C       89   6 C                                       1.4321362
    86   6 C       90   7 N                                       1.3665262
    89   6 C       90   7 N                                       1.3765818
    89   6 C       91   6 C                                       1.3867964
    92   6 C       93   6 C                                       1.3968468
    93   6 C       94   6 C                                       1.3878464
    94   6 C       95   6 C                                       1.3848357
    95   6 C       96   6 C                                       1.3957492
    97   6 C       98   8 O                                       1.3407056
    97   6 C       99   8 O                                       1.2043720
    92   6 C      100   6 C                                       1.3934127
    96   6 C      100   6 C                                       1.3932764
    91   6 C      101   6 C                                       1.3890135
   101   6 C      102   6 C                                       1.4337217
   102   6 C      103   6 C                                       1.3539413
    64   6 C      104   6 C                                       1.3784645
   103   6 C      104   6 C                                       1.4313180
   101   6 C      105   7 N                                       1.3707670
   104   6 C      105   7 N                                       1.3726431
    64   6 C      106   1 H                                       1.0835274
    66   6 C      107   1 H                                       1.0782905
    67   6 C      108   1 H                                       1.0778855
    72   6 C      109   1 H                                       1.0845202
    75   8 O      110   1 H                                       0.9710641
    77   6 C      111   1 H                                       1.0832470
    78   6 C      112   1 H                                       1.0841266
    79   6 C      113   1 H                                       1.0842661
    81   6 C      114   1 H                                       1.0778801
    82   6 C      115   1 H                                       1.0780885
    87   6 C      116   1 H                                       1.0780767
    88   6 C      117   1 H                                       1.0778093
    93   6 C      118   1 H                                       1.0842626
    94   6 C      119   1 H                                       1.0840345
    95   6 C      120   1 H                                       1.0841486
    98   8 O      121   1 H                                       0.9710437
   100   6 C      122   1 H                                       1.0835967
   102   6 C      123   1 H                                       1.0779632
   103   6 C      124   1 H                                       1.0783223
   125   6 C      126   6 C                                       1.2287877
   127   6 C      128   6 C                                       1.2242168
   129   6 C      130   6 C                                       1.2242161

 * 5 distinct bonds (by element types)

   Z      Z             #   av. dist./Å        max./Å        min./Å
   1 H    6 C          34     1.0811791     1.0845254     1.0778093
   6 C    6 C          67     1.3884854     1.4341722     1.2242161
   6 C    7 N          16     1.3716588     1.3766365     1.3664750
   1 H    8 O           4     0.9710491     0.9710641     0.9710261
   6 C    8 O           8     1.2725375     1.3407639     1.2043332


optimized geometry written to: xtbopt.xyz


           -------------------------------------------------
          | TOTAL ENERGY             -246.988834514109 Eh   |
          | GRADIENT NORM               0.000557936792 Eh/α |
          | HOMO-LUMO GAP               0.007860608130 eV   |
           -------------------------------------------------

------------------------------------------------------------------------
 * finished run on 2022/07/29 at 23:57:07.749     
------------------------------------------------------------------------
 total:
 * wall-time:     0 d,  0 h,  0 min, 56.913 sec
 *  cpu-time:     0 d,  0 h,  0 min, 56.590 sec
 * ratio c/w:     0.994 speedup
 SCF:
 * wall-time:     0 d,  0 h,  0 min,  2.273 sec
 *  cpu-time:     0 d,  0 h,  0 min,  2.259 sec
 * ratio c/w:     0.994 speedup
 ANC optimizer:
 * wall-time:     0 d,  0 h,  0 min, 54.487 sec
 *  cpu-time:     0 d,  0 h,  0 min, 54.197 sec
 * ratio c/w:     0.995 speedup

