244
 energy: -421.162446351112 gnorm: 1.814317173335 xtb: 6.5.1 (b24c23e)
Cu          51.40019600000000       -0.03827500000000        0.04264600000000
C           48.05860200000000        0.10501300000000        0.03314400000000
C           48.72087100000000        1.14408600000000       -0.48364600000000
C           48.07032199999999        2.29194200000000       -1.10383100000000
C           49.01053700000000        3.14042800000000       -1.47627500000000
C           50.31545999999999        2.57956300000000       -1.09940800000000
N           50.13830700000000        1.30605800000000       -0.47764600000000
C           51.50758200000000        3.18167800000000       -1.29204600000000
C           51.55730600000000        4.52721000000000       -1.90876700000000
C           52.11424600000000        4.69518900000000       -3.18544900000000
C           52.17750400000000        5.96619400000000       -3.76410600000000
C           51.68849599999999        7.08273300000000       -3.07117600000000
N           51.75340600000000        8.38255000000000       -3.66368500000000
C           51.13744700000000        6.91682700000000       -1.79262200000000
C           51.07453200000000        5.64647600000000       -1.21260700000000
C           52.79877000000000        2.55654900000000       -0.90197800000000
C           54.08222600000000        3.26919000000000       -0.89580800000000
C           55.01673899999999        2.41382000000000       -0.53392100000000
N           52.94143300000000        1.31466000000000       -0.55306000000000
C           54.33662500000000        1.14542800000000       -0.30239200000000
C           54.93082299999999       -0.01270700000000        0.02801500000000
C           54.16723999999999       -1.25871800000000        0.26081900000000
C           54.69776100000000       -2.47490300000000        0.24096800000000
C           53.65486499999999       -3.40650300000000        0.62471200000000
C           52.55723200000000       -2.69642400000000        0.85848100000000
N           52.79107800000000       -1.30458100000000        0.63805500000000
C           51.27861800000000       -3.26744700000000        1.35399100000000
C           51.30143799999999       -4.60543400000000        1.99390100000000
C           52.04039000000000       -4.80939900000000        3.16943100000000
C           52.08136600000000       -6.07305400000000        3.76589200000000
C           51.38918300000000       -7.14812400000000        3.19095200000000
N           51.43158100000000       -8.44048000000000        3.80155900000000
C           50.65772399999999       -6.94856300000000        2.01174500000000
C           50.61667100000000       -5.68561200000000        1.41393300000000
C           50.11656099999999       -2.59633700000000        1.23790200000000
C           48.80922900000000       -3.03897200000000        1.71984700000000
C           47.94756700000000       -2.11238700000000        1.34714000000000
C           48.69602500000000       -1.07355800000000        0.64149500000000
N           49.96088500000000       -1.34501700000000        0.57171000000000
H           46.97523900000000        0.12297600000000        0.00968500000000
H           47.00701099999999        2.43548400000000       -1.24708000000000
H           48.82273700000000        4.08229600000000       -1.97486900000000
H           52.49730700000000        3.84157000000000       -3.73124200000000
H           52.60785200000000        6.08111700000000       -4.75096600000000
H           52.16273500000000        8.51649500000000       -4.61519600000000
H           51.39241499999999        9.22045300000000       -3.15527700000000
H           50.75925299999999        7.77126200000000       -1.24562400000000
H           50.65185499999999        5.53351400000000       -0.22173900000000
H           54.25314400000000        4.30958900000000       -1.13925700000000
H           56.07051400000000        2.63906800000000       -0.43778100000000
H           55.72344300000000       -2.73015100000000        0.01056000000000
H           53.76361199999999       -4.47847900000000        0.72687900000000
H           52.58137200000000       -3.98863800000000        3.62442100000000
H           52.65274599999999       -6.21460400000000        4.67463300000000
H           51.97457100000000       -8.59938900000000        4.67949600000000
H           50.92008100000000       -9.24781300000000        3.38031000000000
H           50.12265900000000       -7.77155500000000        1.55490400000000
H           50.05523400000000       -5.54904300000000        0.49776800000000
H           48.56739200000000       -3.93702200000000        2.27281100000000
H           46.88301400000000       -2.12863100000000        1.54053100000000
Cu          83.97377000000000        0.01361600000000        0.01478700000000
C           87.31536300000000       -0.07347400000000        0.12896700000000
C           86.65309499999999       -1.07833200000000        0.70949100000000
C           87.30364299999998       -2.22947400000000        1.32355500000000
C           86.36342800000000       -3.00871400000000        1.82497900000000
C           85.05850500000000       -2.38470600000000        1.56573000000000
N           85.23565899999998       -1.16282400000000        0.84780900000000
C           83.86638299999998       -2.87795200000000        1.96115200000000
C           83.81665999999998       -4.13542800000000        2.74189300000000
C           83.25971999999999       -5.29235000000000        2.17650300000000
C           83.19646200000000       -6.47692100000000        2.91615700000000
C           83.68546900000000       -6.51628400000000        4.22964900000000
N           83.62055900000000       -7.72832000000000        4.98566400000000
C           84.23651800000000       -5.35894700000000        4.79780100000000
C           84.29943299999998       -4.17360600000000        4.05944300000000
C           82.57519499999998       -2.20743200000000        1.65563300000000
C           81.29173900000001       -2.59604200000000        2.25302500000000
C           80.35722599999998       -1.82179700000000        1.74003000000000
N           82.43253300000001       -1.23043400000000        0.81331000000000
C           81.03733999999999       -0.92799900000000        0.81075700000000
C           80.44314199999999       -0.01270700000000        0.02801500000000
C           81.20672500000001        0.86978900000000       -0.88190000000000
C           80.67620399999998        1.52521600000000       -1.90655300000000
C           81.71910000000000        2.35979900000000       -2.47100900000000
C           82.81673400000000        2.16230700000000       -1.74999700000000
N           82.58288800000000        1.20955400000000       -0.71169400000000
C           84.09534699999999        2.89081800000000       -1.95216100000000
C           84.07252699999999        4.16345300000000       -2.71380000000000
C           83.33357499999998        5.25594800000000       -2.23429300000000
C           83.29259900000000        6.45129700000000       -2.95798400000000
C           83.98478199999998        6.56609100000000       -4.17171900000000
N           83.94238400000000        7.78909000000000       -4.91151500000000
C           84.71624199999999        5.47296500000000       -4.65692900000000
C           84.75729400000000        4.27687800000000       -3.93457100000000
C           85.25740500000001        2.42325200000000       -1.45693600000000
C           86.56473600000000        3.06951900000000       -1.55958300000000
C           87.42639800000001        2.24690700000000       -0.99320900000000
C           86.67794099999999        1.08477400000000       -0.51723600000000
N           85.41308100000001        1.17659700000000       -0.78205500000000
H           88.39872600000000       -0.10295300000000        0.13097800000000
H           88.36695400000001       -2.42818200000000        1.36404800000000
H           86.55122799999998       -3.94469700000000        2.33453600000000
H           82.87665800000001       -5.27562000000000        1.16345000000000
H           82.76611399999999       -7.36296300000000        2.46667900000000
H           83.21123000000000       -8.59540900000000        4.57157200000000
H           83.98155000000000       -7.76752800000000        5.96496100000000
H           84.61471200000000       -5.37512500000000        5.81220000000000
H           84.72211100000000       -3.28530600000000        4.51277000000000
H           81.12082099999999       -3.37380400000000        2.98568100000000
H           79.30345100000000       -1.86612000000000        1.98089300000000
H           79.65052300000001        1.47420400000000       -2.24660700000000
H           81.61035400000000        3.03724900000000       -3.30804600000000
H           82.79259399999998        5.18168800000000       -1.29879800000000
H           82.72122000000000        7.28693900000000       -2.57386200000000
H           83.39939500000000        8.60864800000000       -4.55888200000000
H           84.45388500000000        7.88405400000000       -5.81717500000000
H           85.25130600000000        5.54691500000000       -5.59530500000000
H           85.31873200000000        3.43780100000000       -4.32694600000000
H           86.80657300000000        4.02660800000000       -2.00257700000000
H           88.49095199999999        2.41707200000000       -0.89989500000000
C           56.75199499999999       -0.01270700000000        0.02801500000000
C           57.97391300000000       -0.01270700000000        0.02801500000000
C           67.07602400000000       -0.01270700000000        0.02801500000000
C           68.29794200000001       -0.01270700000000        0.02801500000000
C           77.40005300000000       -0.01270700000000        0.02801500000000
C           78.62197000000000       -0.01270700000000        0.02801500000000
Cu          62.56044500000000       -0.04273500000000        0.05193000000000
C           59.07625900000000        0.01356800000000       -0.02991400000000
C           59.73311899999999        1.12346400000000       -0.41386100000000
C           59.08839400000000        2.35555000000000       -0.87398000000000
C           60.02641800000000        3.25114700000000       -1.10848800000000
C           61.32926600000000        2.64335800000000       -0.81872100000000
N           61.15284800000000        1.29333700000000       -0.38121100000000
C           62.51330200000000        3.28571700000000       -0.90573200000000
C           62.53468000000000        4.70581200000000       -1.31984700000000
C           62.40100800000000        5.04910600000000       -2.67366900000000
C           62.41803400000000        6.39184800000000       -3.06279200000000
C           62.57162300000000        7.40323500000000       -2.10311800000000
N           62.58955000000000        8.77656200000000       -2.50190600000000
C           62.70727600000000        7.05914600000000       -0.75005200000000
C           62.68817200000000        5.71689000000000       -0.35967900000000
C           63.81679100000000        2.64190800000000       -0.60157400000000
C           65.09570500000000        3.36301200000000       -0.56712000000000
C           66.04719299999999        2.48626600000000       -0.32124100000000
N           63.98023400000000        1.37194300000000       -0.39311300000000
C           65.38448099999999        1.19378200000000       -0.20518100000000
C           65.99957200000000        0.01356800000000       -0.02991400000000
C           65.25421400000000       -1.26085900000000        0.06521700000000
C           65.80271500000001       -2.46049100000000       -0.08012800000000
C           64.77019199999999       -3.44099900000000        0.19005400000000
C           63.66029200000000       -2.77436100000000        0.48524200000000
N           63.87481600000000       -1.36467400000000        0.41727500000000
C           62.39507600000000       -3.41062800000000        0.92738100000000
C           62.44825899999999       -4.79864300000000        1.44714400000000
C           61.80329700000000       -5.84156500000000        0.76094100000000
C           61.86944600000000       -7.15068600000000        1.24722800000000
C           62.58509000000000       -7.43263000000000        2.42048200000000
N           62.64925500000000       -8.77127300000000        2.92010000000000
C           63.23832899999999       -6.39359300000000        3.10073400000000
C           63.17403800000000       -5.08447100000000        2.61412300000000
C           61.21912799999999       -2.75504600000000        0.88468800000000
C           59.93653299999999       -3.26889400000000        1.35431100000000
C           59.04826600000000       -2.33307100000000        1.09085000000000
C           59.75170200000000       -1.21269600000000        0.45612300000000
N           61.02145199999999       -1.45147800000000        0.33557800000000
H           58.02903200000000        2.53736100000000       -0.99786000000000
H           59.83702100000000        4.26179600000000       -1.44787700000000
H           62.28187200000000        4.27680600000000       -3.42419200000000
H           62.31208399999999        6.64400800000000       -4.11060500000000
H           62.49044300000000        9.04258800000000       -3.50700000000000
H           62.70704700000000        9.53677300000000       -1.79494400000000
H           62.82774999999999        7.83061900000000        0.00047800000000
H           62.79366499999999        5.46389500000000        0.68851500000000
H           65.25468100000001        4.42213200000000       -0.72052700000000
H           67.10225600000000        2.71107400000000       -0.24072400000000
H           66.83402700000001       -2.67660400000000       -0.32386300000000
H           64.89591100000000       -4.51616200000000        0.18844000000000
H           61.25212699999999       -5.63932700000000       -0.14987600000000
H           61.36483999999999       -7.94496700000000        0.70959200000000
H           63.17916600000000       -8.99139500000000        3.79327900000000
H           62.16389800000000       -9.55173600000000        2.42323400000000
H           63.79685499999999       -6.59815000000000        4.00680300000000
H           63.68466100000000       -4.29207900000000        3.14928400000000
H           59.72891400000000       -4.21647100000000        1.83420600000000
H           57.99382599999999       -2.40011800000000        1.32215200000000
Cu          72.88447300000000       -0.04273500000000        0.05193000000000
C           69.40028800000000        0.01356800000000       -0.02991400000000
C           70.05714800000000        1.12346400000000       -0.41386100000000
C           69.41242300000000        2.35555000000000       -0.87398000000000
C           70.35044600000001        3.25114700000000       -1.10848800000000
C           71.65329500000000        2.64335800000000       -0.81872100000000
N           71.47687700000000        1.29333700000000       -0.38121100000000
C           72.83732999999999        3.28571700000000       -0.90573200000000
C           72.85870900000000        4.70581200000000       -1.31984700000000
C           72.72503700000000        5.04910600000000       -2.67366900000000
C           72.74206300000000        6.39184800000000       -3.06279200000000
C           72.89565200000000        7.40323500000000       -2.10311800000000
N           72.91357800000000        8.77656200000000       -2.50190600000000
C           73.03130500000000        7.05914600000000       -0.75005200000000
C           73.01220000000001        5.71689000000000       -0.35967900000000
C           74.14082000000001        2.64190800000000       -0.60157400000000
C           75.41973400000001        3.36301200000000       -0.56712000000000
C           76.37122100000001        2.48626600000000       -0.32124100000000
N           74.30426199999999        1.37194300000000       -0.39311300000000
C           75.70851000000000        1.19378200000000       -0.20518100000000
C           76.32360099999998        0.01356800000000       -0.02991400000000
C           75.57824200000000       -1.26085900000000        0.06521700000000
C           76.12674400000000       -2.46049100000000       -0.08012800000000
C           75.09422099999999       -3.44099900000000        0.19005400000000
C           73.98432000000000       -2.77436100000000        0.48524200000000
N           74.19884500000001       -1.36467400000000        0.41727500000000
C           72.71910400000000       -3.41062800000000        0.92738100000000
C           72.77228799999999       -4.79864300000000        1.44714400000000
C           72.12732600000000       -5.84156500000000        0.76094100000000
C           72.19347399999999       -7.15068600000000        1.24722800000000
C           72.90911900000000       -7.43263000000000        2.42048200000000
N           72.97328299999998       -8.77127300000000        2.92010000000000
C           73.56235800000000       -6.39359300000000        3.10073400000000
C           73.49806599999999       -5.08447100000000        2.61412300000000
C           71.54315699999999       -2.75504600000000        0.88468800000000
C           70.26056199999998       -3.26889400000000        1.35431100000000
C           69.37229499999998       -2.33307100000000        1.09085000000000
C           70.07573100000000       -1.21269600000000        0.45612300000000
N           71.34548100000001       -1.45147800000000        0.33557800000000
H           68.35306000000000        2.53736100000000       -0.99786000000000
H           70.16104900000001        4.26179600000000       -1.44787700000000
H           72.60590000000001        4.27680600000000       -3.42419200000000
H           72.63611299999999        6.64400800000000       -4.11060500000000
H           72.81447199999998        9.04258800000000       -3.50700000000000
H           73.03107500000000        9.53677300000000       -1.79494400000000
H           73.15177799999998        7.83061900000000        0.00047800000000
H           73.11769400000000        5.46389500000000        0.68851500000000
H           75.57871000000000        4.42213200000000       -0.72052700000000
H           77.42628400000000        2.71107400000000       -0.24072400000000
H           77.15805600000000       -2.67660400000000       -0.32386300000000
H           75.21993899999998       -4.51616200000000        0.18844000000000
H           71.57615600000000       -5.63932700000000       -0.14987600000000
H           71.68886899999998       -7.94496700000000        0.70959200000000
H           73.50319500000001       -8.99139500000000        3.79327900000000
H           72.48792700000000       -9.55173600000000        2.42323400000000
H           74.12088400000000       -6.59815000000000        4.00680300000000
H           74.00869000000000       -4.29207900000000        3.14928400000000
H           70.05294200000000       -4.21647100000000        1.83420600000000
H           68.31785499999999       -2.40011800000000        1.32215200000000
244
 energy: -421.741839172687 gnorm: 0.587319020016 xtb: 6.5.1 (b24c23e)
Cu          51.40505471338003       -0.03651063786106        0.04234125071657
C           48.05937211009331        0.09401197226284        0.03896930032859
C           48.72645521072680        1.14606812745097       -0.48465420690399
C           48.06921225472986        2.28773161063382       -1.10185000589834
C           49.01711679693921        3.14237658178271       -1.47681316195053
C           50.31332953786043        2.57475541276147       -1.09756416027943
N           50.12469705209038        1.31747417411048       -0.48324230329778
C           51.51825334636503        3.17971196955411       -1.29005470286932
C           51.55967762686004        4.52866345009522       -1.90842596601838
C           52.11384083852160        4.69964873317809       -3.18410865388345
C           52.17654880958992        5.96700585599872       -3.76253725535055
C           51.68885345566509        7.08995611945885       -3.07447383499563
N           51.75326039570552        8.37967901490835       -3.66237468125537
C           51.13817930145635        6.91602983652260       -1.79434484542627
C           51.07530625725830        5.64809803730994       -1.21687769193295
C           52.79333546760544        2.56733997545170       -0.90702723022363
C           54.07292961430068        3.27549575595235       -0.89942181052440
C           55.01673713498302        2.40865505587248       -0.53266123810870
N           52.95097528744950        1.31187150458821       -0.54896149061198
C           54.34229517084225        1.14512614239870       -0.30184514093930
C           54.94984419020383       -0.02353214673890        0.02860578245625
C           54.16688319887933       -1.24543641342213        0.26413117954069
C           54.69884130468295       -2.49156168723958        0.24388695811141
C           53.67058343981597       -3.40883435204684        0.62232478676759
C           52.54792340812394       -2.68620965234850        0.86226360768331
N           52.79707843924081       -1.30900981768863        0.63531789576769
C           51.28811531849097       -3.26308452161535        1.35159148247775
C           51.30466832146941       -4.60545652510385        1.99201874646419
C           52.03962310911525       -4.81353287399508        3.16807787637710
C           52.07999612079013       -6.07345798643516        3.76444031335648
C           51.38941809601204       -7.15541665929107        3.19440095838417
N           51.43146441346856       -8.43745812117471        3.80012953485726
C           50.65879954160194       -6.94750446897238        2.01317215251395
C           50.61788824153631       -5.68669125619128        1.41801537873880
C           50.11491583082038       -2.59525253968647        1.23790592960558
C           48.81524805668182       -3.04002871819108        1.71913389173504
C           47.94147147481946       -2.10477768648827        1.34369634435402
C           48.68203839886461       -1.06739360390004        0.63849844287626
N           49.96188567806335       -1.35205594191918        0.57604021006401
H           46.97559287437625        0.12111483331179        0.01120220112195
H           47.00701375769896        2.43215741951802       -1.24542114406481
H           48.82724855495957        4.08282062037487       -1.97476704315070
H           52.49676298887652        3.84253119835259       -3.73040014200939
H           52.60765474221841        6.08134206390249       -4.75080775176832
H           52.15786157198754        8.51371586079209       -4.60343636722353
H           51.39661716102795        9.20938438550645       -3.16071980733863
H           50.75945583289464        7.77126609823770       -1.24589120718953
H           50.65250569000813        5.53341749436142       -0.22298243851360
H           54.24937384181894        4.31129942973950       -1.14033888808983
H           56.06957939227471        2.63504741000205       -0.43650537120719
H           55.72353601138541       -2.73275830320683        0.01048014386053
H           53.76575694215028       -4.47871409504581        0.72590374399542
H           52.58067964428651       -3.98952094544470        3.62369281039445
H           52.65245506129520       -6.21471553783084        4.67445671174506
H           51.96814289329158       -8.59629340868733        4.66856279957550
H           50.92607767331793       -9.23708743210293        3.38468934073128
H           50.12293863306598       -7.77145783675793        1.55508616392527
H           50.05606442615105       -5.54895696655653        0.49883503162511
H           48.57171885261948       -3.93701641242903        2.27218737157217
H           46.88147545457509       -2.12568979905841        1.53917310725938
Cu          83.96907331409750        0.01249090348038        0.01613594425401
C           87.31454042816993       -0.06263304298053        0.12307642053960
C           86.64754778727536       -1.08025459719879        0.71066604350837
C           87.30480013390284       -2.22558443659693        1.32119216516216
C           86.35696986191336       -3.01024168416456        1.82637524172532
C           85.06073520273432       -2.38033781639940        1.56271138988896
N           85.24942296395632       -1.17434961422038        0.85414537203325
C           83.85558292589836       -2.87516991518819        1.96057308115678
C           83.81426297441489       -4.13594887706654        2.74328929636051
C           83.26012248417479       -5.29370434515196        2.18095852870858
C           83.19741575152170       -6.47606383347355        2.91770139312653
C           83.68511196131162       -6.52303169566889        4.23385182242373
N           83.62070211413166       -7.72563262917164        4.98399284698029
C           84.23578816704753       -5.35993939809487        4.79618498181667
C           84.29865812778337       -4.17805938444342        4.05843707005592
C           82.58070964297758       -2.21748684839998        1.66173331286504
C           81.30066649376722       -2.60239203433320        2.25636344523085
C           80.35673491910519       -1.81820099173855        1.73655692618963
N           82.42298975531315       -1.22571642740093        0.81342797755914
C           81.03172408045991       -0.92742114206605        0.81059017730313
C           80.42632782631473       -0.00589311672973        0.01927379539418
C           81.20715344383997        0.86552487219625       -0.86902737957635
C           80.67495210091815        1.53704241282406       -1.91902416315304
C           81.70319417935576        2.35904019869558       -2.47431912402180
C           82.82597620724486        2.15972968045072       -1.73924336826511
N           82.57671544684113        1.20998925840068       -0.71698947576776
C           84.08584200645299        2.88638018178459       -1.94981537184977
C           84.06928280873608        4.16188448312135       -2.71485016670137
C           83.33433397922799        5.25710599781130       -2.23848645467932
C           83.29396880874398        6.45031182653608       -2.95911846358335
C           83.98454534964294        6.57301418971903       -4.17590366292284
N           83.94250939191515        7.78621493401409       -4.90976849939483
C           84.71516895666778        5.47356311527561       -4.65525395438552
C           84.75608330861128        4.28087904806246       -3.93321545687586
C           85.25913144464114        2.42264894254489       -1.45604802427928
C           86.55879804410208        3.06954527247472       -1.56091267126034
C           87.43253789071650        2.23992524643657       -0.98877406124737
C           86.69186818272141        1.07899390827186       -0.51384832532640
N           85.41238718842482        1.18438306239396       -0.78559636519638
H           88.39836235017776       -0.10067980497973        0.13025502240898
H           88.36697106370872       -2.42497915898690        1.36220939721676
H           86.54673376801601       -3.94491585971819        2.33504083767910
H           82.87720326596094       -5.27545059319774        1.16471657896346
H           82.76631089755618       -7.36295365973143        2.46695454926828
H           83.21610630662863       -8.58406980863131        4.57575342099314
H           83.97734903184093       -7.76594728737810        5.95272881107223
H           84.61450882025332       -5.37534735520231        5.81205464978154
H           84.72146002969825       -3.28628815102804        4.51200358963564
H           81.12453387448082       -3.37564699771103        2.98648943067467
H           79.30384861557448       -1.86293298424315        1.97808822565654
H           79.65035258280365        1.47559415018462       -2.24884704410443
H           81.60817893724783        3.03654605443009       -3.30879314745793
H           82.79328567241740        5.18157144522252       -1.29993114247785
H           82.72151038641152        7.28685366661364       -2.57404896179834
H           83.40582039221435        8.59782120828082       -4.56234478290577
H           84.44788400607007        7.88177444777064       -5.80581483130138
H           85.25102451603377        5.54701016535216       -5.59511864432840
H           85.31790056162033        3.43864366880033       -4.32628292099633
H           86.80226147099869        4.02610648187871       -2.00292265502677
H           88.49251098855294        2.41433024749612       -0.89820265510013
C           56.67605039009143       -0.01298161267991        0.02750669399019
C           57.87556360572280       -0.01837336300687        0.03335598786794
C           67.12585397468983       -0.02401094888461        0.03546460359077
C           68.26165749300181       -0.01968333781322        0.03553713018961
C           77.50682532506406       -0.02299051433349        0.03385554903407
C           78.70206725476538       -0.01367315980569        0.02833234392261
Cu          62.55614552862600       -0.04138215365965        0.04868710685208
C           59.14529075252308        0.00386058088976       -0.02668659007061
C           59.76183198854602        1.13675090964464       -0.41973428036971
C           59.08874585324851        2.34816308402773       -0.87147380354711
C           60.03468752431016        3.25383834145073       -1.10916939522697
C           61.32758511953939        2.64018270037105       -0.81858872505397
N           61.14542823610748        1.30829077216189       -0.38418464474618
C           62.52439859655934        3.28455562769758       -0.90397193090672
C           62.53618144168575        4.70796242990041       -1.32016034486239
C           62.40095834061496        5.05320009102349       -2.67142604455376
C           62.41823017729880        6.39254677341389       -3.06075000338667
C           62.57176490140567        7.41068414152590       -2.10529268421613