      -----------------------------------------------------------      
     |                   =====================                   |     
     |                           x T B                           |     
     |                   =====================                   |     
     |                         S. Grimme                         |     
     |          Mulliken Center for Theoretical Chemistry        |     
     |                    University of Bonn                     |     
      -----------------------------------------------------------      

   * xtb version 6.5.1 (b24c23e) compiled by 'conda@728c89f4b128' on 2022-07-12

   xtb is free software: you can redistribute it and/or modify it under
   the terms of the GNU Lesser General Public License as published by
   the Free Software Foundation, either version 3 of the License, or
   (at your option) any later version.
   
   xtb is distributed in the hope that it will be useful,
   but WITHOUT ANY WARRANTY; without even the implied warranty of
   MERCHANTABILITY or FITNESS FOR A PARTICULAR PURPOSE.  See the
   GNU Lesser General Public License for more details.
   
   Cite this work as:
   * C. Bannwarth, E. Caldeweyher, S. Ehlert, A. Hansen, P. Pracht,
     J. Seibert, S. Spicher, S. Grimme, WIREs Comput. Mol. Sci., 2020, 11,
     e01493. DOI: 10.1002/wcms.1493
   
   for GFN2-xTB:
   * C. Bannwarth, S. Ehlert and S. Grimme., J. Chem. Theory Comput., 2019,
     15, 1652-1671. DOI: 10.1021/acs.jctc.8b01176
   for GFN1-xTB:
   * S. Grimme, C. Bannwarth, P. Shushkov, J. Chem. Theory Comput., 2017,
     13, 1989-2009. DOI: 10.1021/acs.jctc.7b00118
   for GFN0-xTB:
   * P. Pracht, E. Caldeweyher, S. Ehlert, S. Grimme, ChemRxiv, 2019, preprint.
     DOI: 10.26434/chemrxiv.8326202.v1
   for GFN-FF:
   * S. Spicher and S. Grimme, Angew. Chem. Int. Ed., 2020, 59, 15665-15673.
     DOI: 10.1002/anie.202004239
   
   for ALPB and GBSA implicit solvation:
   * S. Ehlert, M. Stahn, S. Spicher, S. Grimme, J. Chem. Theory Comput.,
     2021, 17, 4250-4261. DOI: 10.1021/acs.jctc.1c00471
   
   for DFT-D4:
   * E. Caldeweyher, C. Bannwarth and S. Grimme, J. Chem. Phys., 2017,
     147, 034112. DOI: 10.1063/1.4993215
   * E. Caldeweyher, S. Ehlert, A. Hansen, H. Neugebauer, S. Spicher,
     C. Bannwarth and S. Grimme, J. Chem. Phys., 2019, 150, 154122.
     DOI: 10.1063/1.5090222
   * E. Caldeweyher, J.-M. Mewes, S. Ehlert and S. Grimme, Phys. Chem. Chem. Phys.
     2020, 22, 8499-8512. DOI: 10.1039/D0CP00502A
   
   for sTDA-xTB:
   * S. Grimme and C. Bannwarth, J. Chem. Phys., 2016, 145, 054103.
     DOI: 10.1063/1.4959605
   
   in the mass-spec context:
   * V. Asgeirsson, C. Bauer and S. Grimme, Chem. Sci., 2017, 8, 4879.
     DOI: 10.1039/c7sc00601b
   * J. Koopman and S. Grimme, ACS Omega 2019, 4, 12, 15120-15133.
     DOI: 10.1021/acsomega.9b02011
   
   for metadynamics refer to:
   * S. Grimme, J. Chem. Theory Comput., 2019, 155, 2847-2862
     DOI: 10.1021/acs.jctc.9b00143
   
   for SPH calculations refer to:
   * S. Spicher and S. Grimme, J. Chem. Theory Comput., 2021, 17, 1701-1714
     DOI: 10.1021/acs.jctc.0c01306
   
   with help from (in alphabetical order)
   P. Atkinson, C. Bannwarth, F. Bohle, G. Brandenburg, E. Caldeweyher
   M. Checinski, S. Dohm, S. Ehlert, S. Ehrlich, I. Gerasimov, C. Hölzer
   A. Katbashev, J. Koopman, C. Lavigne, S. Lehtola, F. März, M. Müller,
   F. Musil, H. Neugebauer, J. Pisarek, C. Plett, P. Pracht, F. Pultar,
   J. Seibert, P. Shushkov, S. Spicher, M. Stahn, M. Steiner, T. Strunk,
   J. Stückrath, T. Rose, and J. Unsleber
   
 * started run on 2022/07/30 at 00:17:41.484     

           -------------------------------------------------
          |                Calculation Setup                |
           -------------------------------------------------

          program call               : xtb Fe_PhCN_C6_2.xyz --gfn 1 --opt -T 48
          hostname                   : cx3-15-13.cx3.hpc.ic.ac.uk
          coordinate file            : Fe_PhCN_C6_2.xyz
          omp threads                :                     1

   ID    Z sym.   atoms
    1   26 Fe     1, 59
    2    6 C      2-6, 8-13, 15-19, 21-26, 28-33, 35-40, 60-64, 66-71, 73-77,
                  79-84, 86-91, 93-98, 117-122
    3    7 N      7, 14, 20, 27, 34, 41, 65, 72, 78, 85, 92, 99
    4    1 H      42-58, 100-116
########################################################################
[WARNING] Please study the warnings concerning your input carefully
-1- prog_main_parseArguments: Unknown option '-T' provided
########################################################################

           -------------------------------------------------
          |                 G F N 1 - x T B                 |
           -------------------------------------------------

        Reference                      10.1021/acs.jctc.7b00118
      * Hamiltonian:
        H0-scaling (s, p, d)           1.850000    2.250000    2.000000
        zeta-weighting                 0.000000
      * Dispersion:
        s8                             2.400000
        a1                             0.630000
        a2                             5.000000
        s9                             0.000000
      * Repulsion:
        kExp                           1.500000
        rExp                           1.000000
      * Coulomb:
        alpha                          2.000000
        third order                    atomic
        anisotropic                    false
      * Halogen bond correction:
        rad-scale                      1.300000
        damping                        0.440000


          ...................................................
          :                      SETUP                      :
          :.................................................:
          :  # basis functions                 432          :
          :  # atomic orbitals                 430          :
          :  # shells                          246          :
          :  # electrons                       406          :
          :  # halogen bonds                     0          :
          :  max. iterations                   250          :
          :  Hamiltonian                  GFN1-xTB          :
          :  restarted?                      false          :
          :  GBSA solvation                  false          :
          :  PC potential                    false          :
          :  electronic temp.          300.0000000     K    :
          :  accuracy                    1.0000000          :
          :  -> integral cutoff          0.2500000E+02      :
          :  -> integral neglect         0.1000000E-07      :
          :  -> SCF convergence          0.1000000E-05 Eh   :
          :  -> wf. convergence          0.2000000E-04 e    :
          :  Broyden damping             0.4000000          :
          ...................................................

 iter      E             dE          RMSdq      gap      omega  full diag
   1   -201.0959356 -0.201096E+03  0.123E+01    0.07       0.0  T
   2   -123.8418979  0.772540E+02  0.130E+01    0.08       1.0  T
   3   -206.5598439 -0.827179E+02  0.764E+00    0.06       1.0  T
   4   -169.2122093  0.373476E+02  0.833E+00    0.19       1.0  T
   5      4.9106656  0.174123E+03  0.121E+01    0.21       1.0  T
   6    -71.3507386 -0.762614E+02  0.979E+00    0.09       1.0  T
   7   -213.2171507 -0.141866E+03  0.418E+00    0.08       1.0  T
   8   -206.1016772  0.711547E+01  0.459E+00    0.06       1.0  T
   9   -207.3656809 -0.126400E+01  0.501E+00    0.12       1.0  T
  10   -219.8497852 -0.124841E+02  0.251E+00    0.25       1.0  T
  11   -208.0812930  0.117685E+02  0.481E+00    0.13       1.0  T
  12   -214.1648881 -0.608360E+01  0.374E+00    0.02       1.0  T
  13   -217.1116986 -0.294681E+01  0.304E+00    0.06       1.0  T
  14   -217.1085092  0.318942E-02  0.299E+00    0.05       1.0  T
  15   -217.8620637 -0.753554E+00  0.274E+00    0.07       1.0  T
  16   -219.3743684 -0.151230E+01  0.220E+00    0.15       1.0  T
  17   -222.2626010 -0.288823E+01  0.510E-01    0.03       1.0  T
  18   -222.2113210  0.512800E-01  0.565E-01    0.01       1.0  T
  19   -220.2129562  0.199836E+01  0.182E+00    0.12       1.0  T
  20   -221.2085232 -0.995567E+00  0.134E+00    0.06       1.0  T
  21   -220.0702101  0.113831E+01  0.189E+00    0.12       1.0  T
  22   -219.0729033  0.997307E+00  0.227E+00    0.12       1.0  T
  23   -221.7133558 -0.264045E+01  0.102E+00    0.05       1.0  T
  24   -222.2840835 -0.570728E+00  0.406E-01    0.01       1.0  T
  25   -222.2145145  0.695690E-01  0.514E-01    0.02       1.0  T
  26   -221.7403396  0.474175E+00  0.100E+00    0.04       1.0  T
  27   -221.8167180 -0.763784E-01  0.939E-01    0.03       1.0  T
  28   -222.1322599 -0.315542E+00  0.627E-01    0.02       1.0  T
  29   -222.1395699 -0.730998E-02  0.619E-01    0.02       1.0  T
  30   -222.3519208 -0.212351E+00  0.231E-01    0.01       1.0  T
  31   -222.3817475 -0.298267E-01  0.878E-02    0.01       1.0  T
  32   -222.3865781 -0.483057E-02  0.138E-02    0.01       1.0  T
  33   -222.3850369  0.154122E-02  0.502E-02    0.01       1.0  T
  34   -222.3865736 -0.153672E-02  0.129E-02    0.01       1.0  T
  35   -222.3862567  0.316869E-03  0.258E-02    0.01       1.0  T
  36   -222.3865418 -0.285043E-03  0.149E-02    0.01       1.0  T
  37   -222.3866761 -0.134297E-03  0.194E-03    0.01       4.7  T
  38   -222.3866654  0.106389E-04  0.441E-03    0.01       2.1  T
  39   -222.3866219  0.435665E-04  0.931E-03    0.01       1.0  T
  40   -222.3866467 -0.248015E-04  0.704E-03    0.01       1.3  T
  41   -222.3866759 -0.292773E-04  0.221E-03    0.01       4.1  T
  42   -222.3866779 -0.191566E-05  0.141E-03    0.01       6.4  T
  43   -222.3866782 -0.307810E-06  0.118E-03    0.01       7.6  T
  44   -222.3866791 -0.899607E-06  0.248E-04    0.01      36.5  T
  45   -222.3866791 -0.357416E-07  0.278E-05    0.01     325.8  T
  46   -222.3866790  0.681216E-07  0.330E-04    0.01      27.5  T
  47   -222.3866791 -0.583121E-07  0.129E-04    0.01      70.1  T

   *** convergence criteria satisfied after 47 iterations ***

         #    Occupation            Energy/Eh            Energy/eV
      -------------------------------------------------------------
         1        2.0000           -0.7823839             -21.2897
       ...           ...                  ...                  ...
       197        2.0000           -0.3945966             -10.7375
       198        1.9993           -0.3890892             -10.5877
       199        1.9990           -0.3887627             -10.5788
       200        1.9966           -0.3875783             -10.5465
       201        1.9966           -0.3875736             -10.5464
       202        1.4413           -0.3824295             -10.4064
       203        1.2903           -0.3820971             -10.3974 (HOMO)
       204        1.0931           -0.3817066             -10.3868 (LUMO)
       205        0.1840           -0.3793539             -10.3227
       206                         -0.3625385              -9.8652
       207                         -0.3422508              -9.3131
       208                         -0.3405585              -9.2671
       ...                                ...                  ...
       430                          7.2132651             196.2829
      -------------------------------------------------------------
                  HL-Gap            0.0003905 Eh            0.0106 eV
             Fermi-level           -0.3815292 Eh          -10.3819 eV

 SCC (total)                   0 d,  0 h,  0 min,  4.059 sec
 SCC setup                      ...        0 min,  0.007 sec (  0.165%)
 Dispersion                     ...        0 min,  0.006 sec (  0.143%)
 classical contributions        ...        0 min,  0.002 sec (  0.050%)
 integral evaluation            ...        0 min,  0.233 sec (  5.730%)
 iterations                     ...        0 min,  3.234 sec ( 79.673%)
 molecular gradient             ...        0 min,  0.559 sec ( 13.771%)
 printout                       ...        0 min,  0.019 sec (  0.467%)

         :::::::::::::::::::::::::::::::::::::::::::::::::::::
         ::                     SUMMARY                     ::
         :::::::::::::::::::::::::::::::::::::::::::::::::::::
         :: total energy            -217.293724279202 Eh    ::
         :: gradient norm              4.432498458555 Eh/a0 ::
         :: HOMO-LUMO gap              0.010626139907 eV    ::
         ::.................................................::
         :: SCC energy              -222.386679091573 Eh    ::
         :: -> electrostatic           0.174194867480 Eh    ::
         :: repulsion energy           5.203169280655 Eh    ::
         :: dispersion energy         -0.110214468284 Eh    ::
         :: halogen bond corr.         0.000000000000 Eh    ::
         :: add. restraining           0.000000000000 Eh    ::
         :: total charge               0.000000000001 e     ::
         :::::::::::::::::::::::::::::::::::::::::::::::::::::

      ----------------------------------------------------------- 
     |                   =====================                   |
     |                        A N C O P T                        |
     |                   =====================                   |
     |               Approximate Normal Coordinate               |
     |                Rational Function Optimizer                |
      ----------------------------------------------------------- 

          ...................................................
          :                      SETUP                      :
          :.................................................:
          :   optimization level            normal          :
          :   max. optcycles                   366          :
          :   ANC micro-cycles                  20          :
          :   degrees of freedom               360          :
          :.................................................:
          :   RF solver                   davidson          :
          :   write xtbopt.log                true          :
          :   linear?                        false          :
          :   energy convergence         0.5000000E-05 Eh   :
          :   grad. convergence          0.1000000E-02 Eh/α :
          :   maximium RF displ.         1.0000000          :
          :   Hlow (freq-cutoff)         0.1000000E-01      :
          :   Hmax (freq-cutoff)         5.0000000          :
          :   S6 in model hess.         20.0000000          :
          ...................................................

generating ANC from model Hessian ...
Using Lindh-Hessian (1995)
 Shifting diagonal of input Hessian by    1.0033146836383134E-002
 Lowest  eigenvalues of input Hessian
    0.010000    0.010014    0.010028    0.000000    0.000000    0.000000
    0.000000    0.000000    0.000000    0.010048    0.010088    0.010161
    0.010180    0.010197    0.010213    0.010307    0.010327    0.010496
 Highest eigenvalues
    2.536470    2.676732    4.385957    4.433885    4.740425    4.744656


........................................................................
.............................. CYCLE    1 ..............................
........................................................................
   1   -222.3866791 -0.222387E+03  0.277E-05    0.01       0.0  T
   2   -222.3866527  0.264141E-04  0.639E-03    0.01       1.4  T
   3   -222.3866788 -0.261538E-04  0.634E-04    0.01      14.3  T
   4   -222.3866790 -0.140252E-06  0.447E-04    0.01      20.3  T
   5   -222.3866791 -0.103676E-06  0.157E-04    0.01      57.7  T
   6   -222.3866791  0.104188E-07  0.205E-04    0.01      44.1  T
   7   -222.3866791 -0.180366E-07  0.119E-04    0.01      76.1  T
     SCC iter.                  ...        0 min,  0.479 sec
     gradient                   ...        0 min,  0.572 sec
 * total energy  :  -217.2937243 Eh     change       -0.1088409E-08 Eh
   gradient norm :     4.4324984 Eh/α   predicted     0.0000000E+00 (-100.00%)
   displ. norm   :     0.6450538 α      lambda       -0.2796161E+01
   maximum displ.:     0.4827070 α      in ANC's #360, #359, #356, ...

........................................................................
.............................. CYCLE    2 ..............................
........................................................................
   1   -222.4932203 -0.222493E+03  0.377E-01    0.01       0.0  T
   2   -219.2003446  0.329288E+01  0.261E+00    0.21       1.0  T
   3   -222.3785233 -0.317818E+01  0.514E-01    0.02       1.0  T
   4   -217.0436749  0.533485E+01  0.292E+00    0.02       1.0  T
   5   -222.2487629 -0.520509E+01  0.653E-01    0.01       1.0  T
   6   -219.4937222  0.275504E+01  0.214E+00    0.15       1.0  T
   7   -221.1482572 -0.165453E+01  0.145E+00    0.07       1.0  T
   8   -220.9775606  0.170697E+00  0.153E+00    0.08       1.0  T
   9   -222.3353324 -0.135777E+01  0.543E-01    0.01       1.0  T
  10   -222.3609698 -0.256374E-01  0.507E-01    0.01       1.0  T
  11   -222.4650823 -0.104113E+00  0.312E-01    0.01       1.0  T
  12   -222.4584131  0.666926E-02  0.328E-01    0.01       1.0  T
  13   -222.5249459 -0.665328E-01  0.781E-02    0.01       1.0  T
  14   -222.5261759 -0.123004E-02  0.654E-02    0.01       1.0  T
  15   -222.5289606 -0.278463E-02  0.273E-03    0.01       3.3  T
  16   -222.5289282  0.323813E-04  0.764E-03    0.01       1.2  T
  17   -222.5289033  0.249122E-04  0.970E-03    0.01       1.0  T
  18   -222.5289649 -0.616295E-04  0.104E-03    0.01       8.7  T
  19   -222.5289610  0.388526E-05  0.263E-03    0.01       3.4  T
  20   -222.5289609  0.119423E-06  0.267E-03    0.01       3.4  T
  21   -222.5289649 -0.399855E-05  0.102E-03    0.01       8.9  T
  22   -222.5289656 -0.668681E-06  0.118E-04    0.01      76.5  T
  23   -222.5289656 -0.773119E-08  0.430E-05    0.01     210.7  T
     SCC iter.                  ...        0 min,  1.588 sec
     gradient                   ...        0 min,  0.559 sec
 * total energy  :  -218.4718701 Eh     change       -0.1178146E+01 Eh
   gradient norm :     0.6302567 Eh/α   predicted    -0.1979940E+01 (  68.06%)
   displ. norm   :     0.4563226 α      lambda       -0.2386956E+00
   maximum displ.:     0.1376749 α      in ANC's #290, #292, #286, ...

........................................................................
.............................. CYCLE    3 ..............................
........................................................................
   1   -222.4929816 -0.222493E+03  0.139E-01    0.00       0.0  T
   2   -219.9693543  0.252363E+01  0.227E+00    0.20       1.0  T
   3   -222.2830794 -0.231373E+01  0.613E-01    0.02       1.0  T
   4   -219.4949065  0.278817E+01  0.215E+00    0.14       1.0  T
   5   -222.2230475 -0.272814E+01  0.661E-01    0.04       1.0  T
   6   -221.8629923  0.360055E+00  0.988E-01    0.06       1.0  T
   7   -222.4551786 -0.592186E+00  0.267E-01    0.01       1.0  T
   8   -222.2123985  0.242780E+00  0.664E-01    0.04       1.0  T
   9   -222.2650833 -0.526849E-01  0.600E-01    0.03       1.0  T
  10   -222.4960098 -0.230926E+00  0.909E-02    0.00       1.0  T
  11   -222.5006502 -0.464041E-02  0.340E-02    0.00       1.0  T
  12   -222.5012974 -0.647186E-03  0.131E-02    0.00       1.0  T
  13   -222.5010578  0.239574E-03  0.226E-02    0.00       1.0  T
  14   -222.5013744 -0.316522E-03  0.447E-03    0.00       2.0  T
  15   -222.5013445  0.298804E-04  0.788E-03    0.00       1.1  T
  16   -222.5013591 -0.146492E-04  0.625E-03    0.00       1.4  T
  17   -222.5013702 -0.111150E-04  0.467E-03    0.00       1.9  T
  18   -222.5013840 -0.137162E-04  0.909E-04    0.00      10.0  T
  19   -222.5013844 -0.445483E-06  0.370E-04    0.00      24.5  T
  20   -222.5013844 -0.334288E-07  0.293E-04    0.00      30.9  T
  21   -222.5013845 -0.448595E-07  0.131E-04    0.00      69.4  T
  22   -222.5013845 -0.104211E-07  0.328E-05    0.00     275.8  T
     SCC iter.                  ...        0 min,  1.526 sec
     gradient                   ...        0 min,  0.560 sec
 * total energy  :  -218.6081380 Eh     change       -0.1362679E+00 Eh
   gradient norm :     0.3913771 Eh/α   predicted    -0.1442003E+00 (   5.82%)
   displ. norm   :     0.4779658 α      lambda       -0.8324320E-01
   maximum displ.:     0.1586699 α      in ANC's #88, #112, #108, ...

........................................................................
.............................. CYCLE    4 ..............................
........................................................................
   1   -222.5314939 -0.222531E+03  0.133E-01    0.03       0.0  T
   2   -219.5963194  0.293517E+01  0.242E+00    0.18       1.0  T
   3   -222.2823038 -0.268598E+01  0.703E-01    0.02       1.0  T
   4   -219.7840015  0.249830E+01  0.207E+00    0.09       1.0  T
   5   -222.2278610 -0.244386E+01  0.747E-01    0.03       1.0  T
   6   -222.2715428 -0.436819E-01  0.670E-01    0.03       1.0  T
   7   -221.6929189  0.578624E+00  0.114E+00    0.03       1.0  T
   8   -222.3235057 -0.630587E+00  0.576E-01    0.01       1.0  T
   9   -222.5382773 -0.214772E+00  0.614E-02    0.02       1.0  T
  10   -222.2196956  0.318582E+00  0.700E-01    0.01       1.0  T
  11   -222.4013487 -0.181653E+00  0.462E-01    0.01       1.0  T
  12   -222.5042908 -0.102942E+00  0.235E-01    0.01       1.0  T
  13   -222.5143421 -0.100514E-01  0.200E-01    0.01       1.0  T
  14   -222.5395977 -0.252555E-01  0.265E-02    0.02       1.0  T
  15   -222.5384173  0.118037E-02  0.501E-02    0.02       1.0  T
  16   -222.5379541  0.463209E-03  0.566E-02    0.02       1.0  T
  17   -222.5400260 -0.207186E-02  0.280E-03    0.02       3.2  T
  18   -222.5398203  0.205702E-03  0.180E-02    0.02       1.0  T
  19   -222.5398868 -0.665773E-04  0.149E-02    0.02       1.0  T
  20   -222.5400176 -0.130801E-03  0.434E-03    0.02       2.1  T
  21   -222.5400247 -0.710900E-05  0.280E-03    0.02       3.2  T
  22   -222.5400286 -0.380781E-05  0.140E-03    0.02       6.5  T
  23   -222.5400297 -0.115483E-05  0.334E-04    0.02      27.1  T
  24   -222.5400297 -0.305394E-07  0.195E-04    0.02      46.3  T
  25   -222.5400298 -0.168381E-07  0.747E-05    0.02     121.2  T
     SCC iter.                  ...        0 min,  1.719 sec
     gradient                   ...        0 min,  0.566 sec
 * total energy  :  -218.6708014 Eh     change       -0.6266337E-01 Eh
   gradient norm :     0.2358471 Eh/α   predicted    -0.5113048E-01 ( -18.40%)
   displ. norm   :     0.5395805 α      lambda       -0.4890446E-01
   maximum displ.:     0.2112655 α      in ANC's #88, #96, #112, ...

........................................................................
.............................. CYCLE    5 ..............................
........................................................................
   1   -222.5579912 -0.222558E+03  0.195E-01    0.09       0.0  T
   2   -218.8632166  0.369477E+01  0.268E+00    0.16       1.0  T
   3   -222.4344644 -0.357125E+01  0.545E-01    0.01       1.0  T
   4   -219.2521580  0.318231E+01  0.228E+00    0.05       1.0  T
   5   -222.1845465 -0.293239E+01  0.857E-01    0.03       1.0  T
   6   -222.0102191  0.174327E+00  0.934E-01    0.01       1.0  T
   7   -221.6055721  0.404647E+00  0.122E+00    0.01       1.0  T
   8   -222.5215842 -0.916012E+00  0.336E-01    0.11       1.0  T
   9   -222.5505744 -0.289902E-01  0.234E-01    0.09       1.0  T
  10   -222.4856390  0.649354E-01  0.375E-01    0.04       1.0  T
  11   -222.5335481 -0.479091E-01  0.268E-01    0.06       1.0  T
  12   -222.5784845 -0.449364E-01  0.139E-02    0.06       1.0  T
  13   -222.5756601  0.282441E-02  0.667E-02    0.05       1.0  T
  14   -222.5762180 -0.557874E-03  0.604E-02    0.05       1.0  T
  15   -222.5782409 -0.202291E-02  0.238E-02    0.06       1.0  T
  16   -222.5785630 -0.322143E-03  0.609E-03    0.06       1.5  T
  17   -222.5785503  0.127189E-04  0.747E-03    0.06       1.2  T
  18   -222.5785434  0.691081E-05  0.755E-03    0.06       1.2  T
  19   -222.5785534 -0.100088E-04  0.636E-03    0.06       1.4  T
  20   -222.5785733 -0.199003E-04  0.309E-03    0.06       2.9  T
  21   -222.5785764 -0.309841E-05  0.218E-03    0.06       4.2  T
  22   -222.5785788 -0.234747E-05  0.101E-03    0.06       8.9  T
  23   -222.5785794 -0.643534E-06  0.102E-04    0.06      89.0  T
  24   -222.5785794 -0.472880E-08  0.376E-05    0.06     240.5  T
     SCC iter.                  ...        0 min,  1.641 sec
     gradient                   ...        0 min,  0.564 sec
 * total energy  :  -218.7051023 Eh     change       -0.3430090E-01 Eh
   gradient norm :     0.1119590 Eh/α   predicted    -0.3157144E-01 (  -7.96%)
   displ. norm   :     0.5801908 α      lambda       -0.2041593E-01
   maximum displ.:     0.2527314 α      in ANC's #26, #88, #40, ...

........................................................................
.............................. CYCLE    6 ..............................
........................................................................
   1   -222.5526741 -0.222553E+03  0.247E-01    0.12       0.0  T
   2   -218.3249514  0.422772E+01  0.284E+00    0.15       1.0  T
   3   -222.5759195 -0.425097E+01  0.120E-01    0.09       1.0  T
   4   -219.8064346  0.276948E+01  0.208E+00    0.03       1.0  T
   5   -222.5590513 -0.275262E+01  0.227E-01    0.04       1.0  T
   6   -222.5263646  0.326867E-01  0.336E-01    0.03       1.0  T
   7   -222.5371682 -0.108036E-01  0.302E-01    0.03       1.0  T
   8   -222.4424291  0.947390E-01  0.478E-01    0.08       1.0  T
   9   -222.5684934 -0.126064E+00  0.160E-01    0.07       1.0  T
  10   -222.5709344 -0.244094E-02  0.144E-01    0.07       1.0  T
  11   -222.5813966 -0.104623E-01  0.726E-02    0.08       1.0  T
  12   -222.5821538 -0.757128E-03  0.589E-02    0.07       1.0  T
  13   -222.5836649 -0.151114E-02  0.366E-02    0.07       1.0  T
  14   -222.5843414 -0.676478E-03  0.152E-02    0.07       1.0  T
  15   -222.5844298 -0.883673E-04  0.952E-03    0.07       1.0  T
  16   -222.5844860 -0.561956E-04  0.190E-03    0.07       4.8  T
  17   -222.5844843  0.170097E-05  0.237E-03    0.07       3.8  T
  18   -222.5844874 -0.315964E-05  0.860E-04    0.07      10.5  T
  19   -222.5844876 -0.164836E-06  0.685E-04    0.07      13.2  T
  20   -222.5844878 -0.212497E-06  0.374E-04    0.07      24.2  T
  21   -222.5844878 -0.721650E-08  0.356E-04    0.07      25.4  T
  22   -222.5844878 -0.507989E-07  0.208E-04    0.07      43.5  T
  23   -222.5844879 -0.196719E-07  0.108E-04    0.07      84.2  T
  24   -222.5844879 -0.723233E-08  0.123E-05    0.07     735.4  T
     SCC iter.                  ...        0 min,  1.602 sec
     gradient                   ...        0 min,  0.539 sec
 * total energy  :  -218.7206273 Eh     change       -0.1552500E-01 Eh
   gradient norm :     0.0646061 Eh/α   predicted    -0.1364420E-01 ( -12.11%)
   displ. norm   :     0.6385431 α      lambda       -0.1276321E-01
   maximum displ.:     0.3640140 α      in ANC's #26, #40, #34, ...

........................................................................
.............................. CYCLE    7 ..............................
........................................................................
   1   -222.5445020 -0.222545E+03  0.246E-01    0.13       0.0  T
   2   -218.3423335  0.420217E+01  0.283E+00    0.13       1.0  T
   3   -222.5418092 -0.419948E+01  0.245E-01    0.13       1.0  T
   4   -219.0893174  0.345249E+01  0.232E+00    0.03       1.0  T
   5   -222.5731890 -0.348387E+01  0.492E-02    0.08       1.0  T
   6   -222.5236537  0.495352E-01  0.321E-01    0.03       1.0  T
   7   -222.5235058  0.147939E-03  0.322E-01    0.03       1.0  T
   8   -222.5006642  0.228416E-01  0.334E-01    0.05       1.0  T
   9   -222.5692480 -0.685838E-01  0.926E-02    0.07       1.0  T
  10   -222.5642543  0.499378E-02  0.128E-01    0.08       1.0  T
  11   -222.5720059 -0.775162E-02  0.663E-02    0.07       1.0  T
  12   -222.5746015 -0.259560E-02  0.249E-02    0.08       1.0  T
  13   -222.5747727 -0.171231E-03  0.162E-02    0.08       1.0  T
  14   -222.5749068 -0.134077E-03  0.767E-03    0.08       1.2  T
  15   -222.5749354 -0.286561E-04  0.326E-03    0.08       2.8  T
  16   -222.5749371 -0.166006E-05  0.283E-03    0.08       3.2  T
  17   -222.5749386 -0.145606E-05  0.240E-03    0.08       3.8  T
  18   -222.5749405 -0.198801E-05  0.155E-03    0.08       5.8  T
  19   -222.5749416 -0.110495E-05  0.736E-04    0.08      12.3  T
  20   -222.5749419 -0.205704E-06  0.439E-04    0.08      20.6  T
  21   -222.5749420 -0.114153E-06  0.124E-04    0.08      73.1  T
  22   -222.5749420 -0.541667E-08  0.463E-05    0.08     195.7  T
     SCC iter.                  ...        0 min,  1.447 sec
     gradient                   ...        0 min,  0.557 sec
 * total energy  :  -218.7307298 Eh     change       -0.1010251E-01 Eh
   gradient norm :     0.0456771 Eh/α   predicted    -0.8983639E-02 ( -11.08%)
   displ. norm   :     0.6808697 α      lambda       -0.8952252E-02
   maximum displ.:     0.4894328 α      in ANC's #26, #34, #40, ...

........................................................................
.............................. CYCLE    8 ..............................
........................................................................
   1   -222.5407188 -0.222541E+03  0.204E-01    0.13       0.0  T
   2   -218.7088683  0.383185E+01  0.272E+00    0.11       1.0  T
   3   -222.5295629 -0.382069E+01  0.242E-01    0.14       1.0  T
   4   -219.1515954  0.337797E+01  0.229E+00    0.02       1.0  T
   5   -222.5518064 -0.340021E+01  0.127E-01    0.11       1.0  T
   6   -222.5512453  0.561055E-03  0.145E-01    0.06       1.0  T
   7   -222.5433256  0.791970E-02  0.190E-01    0.05       1.0  T
   8   -222.5430614  0.264207E-03  0.191E-01    0.05       1.0  T
   9   -222.5139501  0.291113E-01  0.274E-01    0.05       1.0  T
  10   -222.5563334 -0.423833E-01  0.864E-02    0.08       1.0  T
  11   -222.5565592 -0.225755E-03  0.834E-02    0.08       1.0  T
  12   -222.5604361 -0.387693E-02  0.371E-02    0.08       1.0  T
  13   -222.5610542 -0.618153E-03  0.185E-02    0.08       1.0  T
  14   -222.5611991 -0.144808E-03  0.861E-03    0.08       1.1  T
  15   -222.5612366 -0.375428E-04  0.162E-03    0.08       5.6  T
  16   -222.5612327  0.387130E-05  0.293E-03    0.08       3.1  T
  17   -222.5612353 -0.254689E-05  0.216E-03    0.08       4.2  T
  18   -222.5612363 -0.985840E-06  0.175E-03    0.08       5.2  T
  19   -222.5612376 -0.134304E-05  0.888E-04    0.08      10.2  T
  20   -222.5612380 -0.346768E-06  0.334E-04    0.08      27.1  T
  21   -222.5612380 -0.509305E-07  0.141E-04    0.08      64.1  T
  22   -222.5612380 -0.119449E-07  0.249E-05    0.08     363.8  T
     SCC iter.                  ...        0 min,  1.428 sec
     gradient                   ...        0 min,  0.551 sec
 * total energy  :  -218.7377354 Eh     change       -0.7005590E-02 Eh
   gradient norm :     0.0305976 Eh/α   predicted    -0.6551190E-02 (  -6.49%)
   displ. norm   :     0.7385775 α      lambda       -0.7196847E-02
   maximum displ.:     0.5014870 α      in ANC's #26, #40, #16, ...

........................................................................
.............................. CYCLE    9 ..............................
........................................................................
   1   -222.5337101 -0.222534E+03  0.150E-01    0.11       0.0  T
   2   -219.1694058  0.336430E+01  0.257E+00    0.10       1.0  T
   3   -222.5188596 -0.334945E+01  0.219E-01    0.14       1.0  T
   4   -219.2059190  0.331294E+01  0.227E+00    0.01       1.0  T
   5   -222.5305804 -0.332466E+01  0.158E-01    0.12       1.0  T
   6   -222.5433388 -0.127584E-01  0.372E-02    0.08       1.0  T
   7   -222.5407464  0.259234E-02  0.835E-02    0.07       1.0  T
   8   -222.5412187 -0.472252E-03  0.793E-02    0.07       1.0  T
   9   -222.5283063  0.129124E-01  0.160E-01    0.06       1.0  T
  10   -222.5414033 -0.130969E-01  0.670E-02    0.08       1.0  T
  11   -222.5426234 -0.122009E-02  0.498E-02    0.08       1.0  T
  12   -222.5436685 -0.104512E-02  0.303E-02    0.08       1.0  T
  13   -222.5442536 -0.585150E-03  0.709E-03    0.08       1.3  T
  14   -222.5442733 -0.197064E-04  0.299E-03    0.08       3.0  T
  15   -222.5442740 -0.711326E-06  0.274E-03    0.08       3.3  T
  16   -222.5442774 -0.339195E-05  0.146E-03    0.08       6.2  T
  17   -222.5442775 -0.848960E-07  0.141E-03    0.08       6.4  T
  18   -222.5442777 -0.179978E-06  0.129E-03    0.08       7.0  T
  19   -222.5442786 -0.932279E-06  0.377E-04    0.08      24.0  T
  20   -222.5442787 -0.816738E-07  0.345E-05    0.08     262.2  T
  21   -222.5442787 -0.436557E-09  0.445E-06    0.08    2036.8  T
     SCC iter.                  ...        0 min,  1.375 sec
     gradient                   ...        0 min,  0.557 sec
 * total energy  :  -218.7416307 Eh     change       -0.3895278E-02 Eh
   gradient norm :     0.0263028 Eh/α   predicted    -0.5561356E-02 (  42.77%)
   displ. norm   :     0.6197895 α      lambda       -0.6246521E-02
   maximum displ.:     0.5350369 α      in ANC's #26, #29, #34, ...

........................................................................
.............................. CYCLE   10 ..............................
........................................................................
   1   -222.5463839 -0.222546E+03  0.585E-02    0.09       0.0  T
   2   -220.2925950  0.225379E+01  0.213E+00    0.09       1.0  T
   3   -222.5381597 -0.224556E+01  0.138E-01    0.11       1.0  T
   4   -222.1066812  0.431479E+00  0.823E-01    0.05       1.0  T
   5   -222.5388853 -0.432204E+00  0.129E-01    0.11       1.0  T
   6   -222.5420686 -0.318330E-02  0.104E-01    0.10       1.0  T
   7   -222.5463227 -0.425405E-02  0.536E-02    0.09       1.0  T
   8   -222.5475866 -0.126387E-02  0.218E-02    0.09       1.0  T
   9   -222.5478363 -0.249709E-03  0.330E-03    0.08       2.7  T
  10   -222.5475312  0.305085E-03  0.215E-02    0.08       1.0  T
  11   -222.5475793 -0.481350E-04  0.197E-02    0.08       1.0  T
  12   -222.5478156 -0.236237E-03  0.617E-03    0.08       1.5  T
  13   -222.5478401 -0.245276E-04  0.125E-03    0.08       7.2  T
  14   -222.5478405 -0.403518E-06  0.845E-04    0.08      10.7  T
  15   -222.5478409 -0.407539E-06  0.337E-04    0.08      26.8  T
  16   -222.5478410 -0.659386E-07  0.932E-05    0.08      97.1  T
  17   -222.5478410 -0.304604E-08  0.562E-05    0.08     161.0  T
     SCC iter.                  ...        0 min,  1.104 sec
     gradient                   ...        0 min,  0.548 sec
 * total energy  :  -218.7456537 Eh     change       -0.4022978E-02 Eh
   gradient norm :     0.0203937 Eh/α   predicted    -0.4323049E-02 (   7.46%)
   displ. norm   :     0.5794694 α      lambda       -0.3075941E-02
   maximum displ.:     0.4895949 α      in ANC's #26, #16, #12, ...

........................................................................
.............................. CYCLE   11 ..............................
........................................................................
   1   -222.5406095 -0.222541E+03  0.128E-02    0.08       0.0  T
   2   -222.5043554  0.362541E-01  0.257E-01    0.12       1.0  T
   3   -222.4260908  0.782646E-01  0.419E-01    0.07       1.0  T
   4   -222.5397512 -0.113660E+00  0.427E-02    0.09       1.0  T
   5   -222.5403952 -0.644056E-03  0.234E-02    0.09       1.0  T
   6   -222.5392777  0.111755E-02  0.461E-02    0.08       1.0  T
   7   -222.5396283 -0.350596E-03  0.394E-02    0.08       1.0  T
   8   -222.5405353 -0.907061E-03  0.154E-02    0.08       1.0  T
   9   -222.5406534 -0.118089E-03  0.626E-03    0.08       1.4  T
  10   -222.5406781 -0.246655E-04  0.198E-03    0.08       4.6  T
  11   -222.5406778  0.339212E-06  0.194E-03    0.08       4.7  T
  12   -222.5406802 -0.240063E-05  0.962E-05    0.08      94.1  T
  13   -222.5406802  0.283109E-08  0.113E-04    0.08      80.4  T
  14   -222.5406802 -0.469191E-08  0.750E-05    0.08     120.8  T
     SCC iter.                  ...        0 min,  0.923 sec
     gradient                   ...        0 min,  0.548 sec
 * total energy  :  -218.7481920 Eh     change       -0.2538287E-02 Eh
   gradient norm :     0.0168609 Eh/α   predicted    -0.2054402E-02 ( -19.06%)
   displ. norm   :     0.7353635 α      lambda       -0.3979043E-02
   maximum displ.:     0.5565628 α      in ANC's #26, #16, #12, ...

........................................................................
.............................. CYCLE   12 ..............................
........................................................................
   1   -222.5260684 -0.222526E+03  0.942E-02    0.07       0.0  T
   2   -222.1880142  0.338054E+00  0.760E-01    0.12       1.0  T
   3   -218.7645969  0.342342E+01  0.241E+00    0.01       1.0  T
   4   -222.5239671 -0.375937E+01  0.115E-01    0.11       1.0  T
   5   -222.5053340  0.186331E-01  0.195E-01    0.08       1.0  T
   6   -222.4524500  0.528839E-01  0.344E-01    0.05       1.0  T
   7   -222.5251503 -0.727003E-01  0.926E-02    0.09       1.0  T
   8   -222.5286060 -0.345566E-02  0.574E-02    0.08       1.0  T
   9   -222.5302002 -0.159416E-02  0.242E-02    0.08       1.0  T
  10   -222.5304564 -0.256264E-03  0.121E-02    0.08       1.0  T
  11   -222.5304874 -0.309726E-04  0.959E-03    0.08       1.0  T
  12   -222.5305058 -0.184377E-04  0.806E-03    0.09       1.1  T
  13   -222.5305411 -0.352976E-04  0.334E-03    0.08       2.7  T
  14   -222.5305461 -0.498488E-05  0.213E-03    0.08       4.3  T
  15   -222.5305476 -0.147684E-05  0.150E-03    0.08       6.1  T
  16   -222.5305482 -0.633754E-06  0.102E-03    0.08       8.9  T
  17   -222.5305485 -0.280395E-06  0.766E-04    0.08      11.8  T
  18   -222.5305489 -0.366031E-06  0.254E-04    0.08      35.6  T
  19   -222.5305489 -0.273515E-07  0.145E-04    0.08      62.3  T
  20   -222.5305489 -0.979276E-08  0.791E-05    0.08     114.5  T
     SCC iter.                  ...        0 min,  1.321 sec
     gradient                   ...        0 min,  0.511 sec
 * total energy  :  -218.7507684 Eh     change       -0.2576448E-02 Eh
   gradient norm :     0.0251873 Eh/α   predicted    -0.3065377E-02 (  18.98%)
   displ. norm   :     0.6320075 α      lambda       -0.3051809E-02
   maximum displ.:     0.4837523 α      in ANC's #26, #16, #12, ...

........................................................................
.............................. CYCLE   13 ..............................
........................................................................
   1   -222.5294467 -0.222529E+03  0.899E-02    0.08       0.0  T
   2   -221.0325053  0.149694E+01  0.154E+00    0.02       1.0  T
   3   -218.1744279  0.285808E+01  0.259E+00    0.02       1.0  T
   4   -222.4945573 -0.432013E+01  0.251E-01    0.11       1.0  T
   5   -222.3461022  0.148455E+00  0.552E-01    0.03       1.0  T
   6   -222.3802365 -0.341343E-01  0.484E-01    0.08       1.0  T
   7   -222.3861334 -0.589692E-02  0.472E-01    0.08       1.0  T
   8   -222.5284771 -0.142344E+00  0.925E-02    0.11       1.0  T
   9   -222.5082682  0.202090E-01  0.198E-01    0.08       1.0  T
  10   -222.5318075 -0.235393E-01  0.518E-02    0.08       1.0  T
  11   -222.5320951 -0.287640E-03  0.448E-02    0.09       1.0  T
  12   -222.5333595 -0.126436E-02  0.806E-03    0.09       1.1  T
  13   -222.5332664  0.930624E-04  0.136E-02    0.09       1.0  T
  14   -222.5331336  0.132832E-03  0.201E-02    0.09       1.0  T
  15   -222.5332883 -0.154776E-03  0.132E-02    0.09       1.0  T
  16   -222.5333334 -0.450234E-04  0.982E-03    0.09       1.0  T
  17   -222.5333744 -0.410516E-04  0.468E-03    0.09       1.9  T
  18   -222.5333831 -0.872201E-05  0.209E-03    0.09       4.3  T
  19   -222.5333857 -0.253649E-05  0.744E-04    0.09      12.2  T
  20   -222.5333859 -0.231904E-06  0.393E-04    0.09      23.0  T
  21   -222.5333860 -0.107146E-06  0.115E-04    0.09      78.7  T
  22   -222.5333860 -0.690434E-08  0.291E-05    0.09     310.6  T
     SCC iter.                  ...        0 min,  1.472 sec
     gradient                   ...        0 min,  0.517 sec
 * total energy  :  -218.7528591 Eh     change       -0.2090680E-02 Eh
   gradient norm :     0.0155028 Eh/α   predicted    -0.2135405E-02 (   2.14%)
   displ. norm   :     0.6247167 α      lambda       -0.1604935E-02
   maximum displ.:     0.4706628 α      in ANC's #26, #16, #12, ...

........................................................................
.............................. CYCLE   14 ..............................
........................................................................
   1   -222.5245488 -0.222525E+03  0.201E-02    0.10       0.0  T
   2   -222.2974552  0.227094E+00  0.605E-01    0.08       1.0  T
   3   -221.4460516  0.851404E+00  0.129E+00    0.02       1.0  T
   4   -222.5030461 -0.105699E+01  0.181E-01    0.10       1.0  T
   5   -222.4363040  0.667422E-01  0.366E-01    0.07       1.0  T
   6   -222.5219081 -0.856041E-01  0.727E-02    0.12       1.0  T
   7   -222.5106350  0.112731E-01  0.147E-01    0.10       1.0  T
   8   -222.5246980 -0.140630E-01  0.654E-03    0.10       1.4  T
   9   -222.5239658  0.732224E-03  0.345E-02    0.10       1.0  T
  10   -222.5243218 -0.356011E-03  0.250E-02    0.10       1.0  T
  11   -222.5245917 -0.269940E-03  0.144E-02    0.10       1.0  T
  12   -222.5246309 -0.391655E-04  0.120E-02    0.10       1.0  T
  13   -222.5246724 -0.415686E-04  0.884E-03    0.10       1.0  T
  14   -222.5247040 -0.315899E-04  0.528E-03    0.10       1.7  T
  15   -222.5247159 -0.118740E-04  0.298E-03    0.10       3.0  T
  16   -222.5247180 -0.204919E-05  0.237E-03    0.10       3.8  T
  17   -222.5247199 -0.194911E-05  0.160E-03    0.10       5.7  T
  18   -222.5247214 -0.148257E-05  0.443E-04    0.10      20.5  T
  19   -222.5247215 -0.109790E-06  0.881E-05    0.10     102.8  T
  20   -222.5247215 -0.339207E-08  0.205E-05    0.10     440.7  T
     SCC iter.                  ...        0 min,  1.319 sec
     gradient                   ...        0 min,  0.489 sec
 * total energy  :  -218.7541501 Eh     change       -0.1291022E-02 Eh
   gradient norm :     0.0109347 Eh/α   predicted    -0.1115653E-02 ( -13.58%)
   displ. norm   :     0.6119270 α      lambda       -0.1267307E-02
   maximum displ.:     0.4277990 α      in ANC's #26, #16, #12, ...

........................................................................
.............................. CYCLE   15 ..............................
........................................................................
   1   -222.5194246 -0.222519E+03  0.164E-02    0.11       0.0  T
   2   -219.9992733  0.252015E+01  0.197E+00    0.00       1.0  T
   3   -222.4231576 -0.242388E+01  0.384E-01    0.09       1.0  T
   4   -222.4457544 -0.225968E-01  0.378E-01    0.06       1.0  T
   5   -222.4872110 -0.414566E-01  0.232E-01    0.12       1.0  T
   6   -222.5161096 -0.288985E-01  0.720E-02    0.12       1.0  T
   7   -222.5179902 -0.188067E-02  0.496E-02    0.11       1.0  T
   8   -222.5174740  0.516180E-03  0.563E-02    0.11       1.0  T
   9   -222.5194923 -0.201825E-02  0.862E-03    0.11       1.1  T
  10   -222.5193798  0.112495E-03  0.164E-02    0.11       1.0  T
  11   -222.5192109  0.168903E-03  0.226E-02    0.11       1.0  T
  12   -222.5195027 -0.291786E-03  0.812E-03    0.11       1.1  T
  13   -222.5195043 -0.165778E-05  0.800E-03    0.11       1.1  T
  14   -222.5195220 -0.176916E-04  0.470E-03    0.11       1.9  T
  15   -222.5195265 -0.450152E-05  0.328E-03    0.11       2.8  T
  16   -222.5195262  0.368626E-06  0.324E-03    0.11       2.8  T
  17   -222.5195289 -0.272715E-05  0.243E-03    0.11       3.7  T
  18   -222.5195325 -0.361225E-05  0.437E-04    0.11      20.7  T
  19   -222.5195326 -0.117560E-06  0.362E-05    0.11     249.9  T
  20   -222.5195326 -0.493827E-09  0.166E-05    0.11     544.7  T
     SCC iter.                  ...        0 min,  1.386 sec
     gradient                   ...        0 min,  0.521 sec
 * total energy  :  -218.7550853 Eh     change       -0.9351521E-03 Eh
   gradient norm :     0.0085024 Eh/α   predicted    -0.8709326E-03 (  -6.87%)
   displ. norm   :     0.6222080 α      lambda       -0.1124496E-02
   maximum displ.:     0.3729787 α      in ANC's #26, #12, #16, ...

........................................................................
.............................. CYCLE   16 ..............................
........................................................................
   1   -222.5148712 -0.222515E+03  0.287E-02    0.12       0.0  T
   2   -218.9610795  0.355379E+01  0.235E+00    0.00       1.0  T
   3   -222.1698836 -0.320880E+01  0.727E-01    0.06       1.0  T
   4   -222.4126997 -0.242816E+00  0.396E-01    0.09       1.0  T
   5   -222.4197275 -0.702783E-02  0.391E-01    0.08       1.0  T
   6   -222.5124658 -0.927382E-01  0.664E-02    0.12       1.0  T
   7   -222.5066016  0.586419E-02  0.116E-01    0.11       1.0  T
   8   -222.5150009 -0.839935E-02  0.230E-02    0.12       1.0  T
   9   -222.5138071  0.119385E-02  0.486E-02    0.11       1.0  T
  10   -222.5149498 -0.114277E-02  0.229E-02    0.12       1.0  T
  11   -222.5149690 -0.192076E-04  0.199E-02    0.12       1.0  T
  12   -222.5151802 -0.211138E-03  0.592E-03    0.12       1.5  T
  13   -222.5151448  0.353976E-04  0.914E-03    0.12       1.0  T
  14   -222.5151420  0.280271E-05  0.922E-03    0.12       1.0  T
  15   -222.5151757 -0.336823E-04  0.560E-03    0.12       1.6  T
  16   -222.5151953 -0.196035E-04  0.536E-04    0.12      16.9  T
  17   -222.5151954 -0.133093E-06  0.274E-04    0.12      33.0  T
  18   -222.5151954  0.235643E-07  0.334E-04    0.12      27.1  T
  19   -222.5151954 -0.669731E-07  0.770E-05    0.12     117.6  T
  20   -222.5151954 -0.330024E-08  0.257E-05    0.12     351.8  T
     SCC iter.                  ...        0 min,  1.546 sec
     gradient                   ...        0 min,  0.503 sec
 * total energy  :  -218.7551863 Eh     change       -0.1010598E-03 Eh
   gradient norm :     0.0278114 Eh/α   predicted    -0.7799188E-03 ( 671.74%)
   displ. norm   :     0.2713713 α      lambda       -0.1323165E-02
   maximum displ.:     0.1140126 α      in ANC's #12, #26, #16, ...

........................................................................
.............................. CYCLE   17 ..............................
........................................................................
   1   -222.5176440 -0.222518E+03  0.859E-03    0.12       0.0  T
   2   -222.4839463  0.336976E-01  0.229E-01    0.10       1.0  T
   3   -222.5162123 -0.322660E-01  0.488E-02    0.11       1.0  T
   4   -222.5104778  0.573454E-02  0.108E-01    0.12       1.0  T
   5   -222.5165586 -0.608088E-02  0.400E-02    0.12       1.0  T
   6   -222.5139843  0.257433E-02  0.747E-02    0.12       1.0  T
   7   -222.5176484 -0.366405E-02  0.204E-03    0.12       4.4  T
   8   -222.5176436  0.477520E-05  0.348E-03    0.12       2.6  T
   9   -222.5176388  0.483641E-05  0.440E-03    0.12       2.1  T
  10   -222.5176419 -0.310891E-05  0.379E-03    0.12       2.4  T
  11   -222.5176505 -0.860288E-05  0.895E-04    0.12      10.1  T
  12   -222.5176510 -0.494195E-06  0.217E-04    0.12      41.8  T
  13   -222.5176510 -0.197466E-07  0.119E-04    0.12      75.8  T
  14   -222.5176510  0.603677E-09  0.109E-04    0.12      82.7  T
     SCC iter.                  ...        0 min,  1.650 sec
     gradient                   ...        0 min,  0.520 sec
 * total energy  :  -218.7557975 Eh     change       -0.6111845E-03 Eh
   gradient norm :     0.0109485 Eh/α   predicted    -0.7103064E-03 (  16.22%)
   displ. norm   :     0.1778200 α      lambda       -0.4386252E-03
   maximum displ.:     0.0861512 α      in ANC's #12, #8, #16, ...

........................................................................
.............................. CYCLE   18 ..............................
........................................................................
   1   -222.5138558 -0.222514E+03  0.138E-02    0.11       0.0  T
   2   -220.2429498  0.227091E+01  0.188E+00    0.00       1.0  T
   3   -222.4617370 -0.221879E+01  0.285E-01    0.10       1.0  T
   4   -222.4694028 -0.766577E-02  0.285E-01    0.07       1.0  T
   5   -222.4837053 -0.143025E-01  0.222E-01    0.12       1.0  T
   6   -222.5099094 -0.262041E-01  0.774E-02    0.11       1.0  T
   7   -222.5102651 -0.355706E-03  0.758E-02    0.11       1.0  T
   8   -222.5128486 -0.258352E-02  0.412E-02    0.11       1.0  T
   9   -222.5138458 -0.997228E-03  0.127E-02    0.11       1.0  T
  10   -222.5135735  0.272327E-03  0.242E-02    0.11       1.0  T
  11   -222.5137236 -0.150101E-03  0.185E-02    0.11       1.0  T
  12   -222.5138918 -0.168149E-03  0.931E-03    0.11       1.0  T
  13   -222.5139112 -0.194134E-04  0.759E-03    0.11       1.2  T
  14   -222.5139394 -0.282229E-04  0.339E-03    0.11       2.7  T
  15   -222.5139409 -0.153180E-05  0.285E-03    0.11       3.2  T
  16   -222.5139395  0.140254E-05  0.308E-03    0.11       2.9  T
  17   -222.5139427 -0.321599E-05  0.201E-03    0.11       4.5  T
  18   -222.5139451 -0.231690E-05  0.535E-04    0.11      16.9  T
  19   -222.5139452 -0.174716E-06  0.763E-05    0.11     118.6  T
  20   -222.5139452 -0.303800E-08  0.335E-05    0.11     270.5  T
     SCC iter.                  ...        0 min,  1.825 sec
     gradient                   ...        0 min,  0.528 sec
 * total energy  :  -218.7560099 Eh     change       -0.2123474E-03 Eh
   gradient norm :     0.0087992 Eh/α   predicted    -0.2262566E-03 (   6.55%)
   displ. norm   :     0.2617253 α      lambda       -0.3273346E-03
   maximum displ.:     0.1385923 α      in ANC's #12, #8, #10, ...

........................................................................
.............................. CYCLE   19 ..............................
........................................................................
   1   -222.5146651 -0.222515E+03  0.382E-03    0.11       0.0  T
   2   -222.4613097  0.533554E-01  0.288E-01    0.10       1.0  T
   3   -222.5110804 -0.497707E-01  0.741E-02    0.11       1.0  T
   4   -222.5130384 -0.195799E-02  0.517E-02    0.11       1.0  T
   5   -222.5136298 -0.591421E-03  0.395E-02    0.11       1.0  T
   6   -222.5137772 -0.147363E-03  0.369E-02    0.11       1.0  T
   7   -222.5146617 -0.884494E-03  0.349E-03    0.11       2.6  T
   8   -222.5146502  0.114876E-04  0.549E-03    0.11       1.6  T
   9   -222.5146665 -0.163286E-04  0.216E-03    0.11       4.2  T
  10   -222.5146678 -0.127600E-05  0.145E-03    0.11       6.2  T
  11   -222.5146688 -0.101101E-05  0.504E-04    0.11      18.0  T
  12   -222.5146688 -0.489712E-07  0.378E-04    0.11      23.9  T
  13   -222.5146689 -0.256747E-07  0.319E-04    0.11      28.4  T
  14   -222.5146689 -0.548531E-07  0.130E-04    0.11      69.5  T
  15   -222.5146689 -0.107502E-07  0.119E-05    0.11     757.7  T
     SCC iter.                  ...        0 min,  1.090 sec
     gradient                   ...        0 min,  0.518 sec
 * total energy  :  -218.7562798 Eh     change       -0.2699822E-03 Eh
   gradient norm :     0.0059392 Eh/α   predicted    -0.1748812E-03 ( -35.22%)
   displ. norm   :     0.5809442 α      lambda       -0.7291037E-03
   maximum displ.:     0.2964680 α      in ANC's #12, #8, #10, ...

........................................................................
.............................. CYCLE   20 ..............................
........................................................................
   1   -222.5148079 -0.222515E+03  0.216E-02    0.10       0.0  T
   2   -218.9707930  0.354401E+01  0.234E+00    0.00       1.0  T
   3   -222.4695135 -0.349872E+01  0.271E-01    0.11       1.0  T
   4   -222.4846930 -0.151794E-01  0.241E-01    0.07       1.0  T
   5   -222.4802878  0.440513E-02  0.235E-01    0.11       1.0  T
   6   -222.5148345 -0.345466E-01  0.192E-02    0.10       1.0  T
   7   -222.5109832  0.385122E-02  0.788E-02    0.10       1.0  T
   8   -222.5147095 -0.372625E-02  0.221E-02    0.10       1.0  T
   9   -222.5148608 -0.151317E-03  0.173E-02    0.10       1.0  T
  10   -222.5147012  0.159621E-03  0.229E-02    0.10       1.0  T
  11   -222.5150398 -0.338601E-03  0.159E-03    0.10       5.7  T
  12   -222.5150313  0.852284E-05  0.417E-03    0.10       2.2  T
  13   -222.5150379 -0.664068E-05  0.244E-03    0.10       3.7  T
  14   -222.5150395 -0.157748E-05  0.165E-03    0.10       5.5  T
  15   -222.5150355  0.399794E-05  0.289E-03    0.10       3.1  T
  16   -222.5150361 -0.650139E-06  0.267E-03    0.10       3.4  T
  17   -222.5150386 -0.248480E-05  0.178E-03    0.10       5.1  T
  18   -222.5150406 -0.197331E-05  0.207E-04    0.10      43.8  T
  19   -222.5150406 -0.202717E-07  0.981E-05    0.10      92.3  T
  20   -222.5150406 -0.564521E-08  0.294E-05    0.10     308.4  T
     SCC iter.                  ...        0 min,  1.319 sec
     gradient                   ...        0 min,  0.500 sec
 * total energy  :  -218.7564257 Eh     change       -0.1458342E-03 Eh
   gradient norm :     0.0255561 Eh/α   predicted    -0.4875882E-03 ( 234.34%)
   displ. norm   :     0.3399647 α      lambda       -0.8789853E-03
   maximum displ.:     0.1751957 α      in ANC's #8, #12, #10, ...
 * RMSD in coord.:     0.6764819 α      energy gain  -0.1462701E+01 Eh

generating ANC from model Hessian ...
Using Lindh-Hessian (1995)
 Shifting diagonal of input Hessian by    1.0027446170346510E-002
 Lowest  eigenvalues of input Hessian
    0.010000    0.010010    0.010019    0.000000    0.000000    0.000000
    0.000000    0.000000    0.000000    0.010036    0.010060    0.010156
    0.010172    0.010219    0.010397    0.010516    0.010547    0.010600
 Highest eigenvalues
    2.592082    2.598011    2.599890    2.601422    2.663702    2.991505


........................................................................
.............................. CYCLE   21 ..............................
........................................................................
   1   -222.5158451 -0.222516E+03  0.169E-02    0.10       0.0  T
   2   -220.3028537  0.221299E+01  0.185E+00    0.00       1.0  T
   3   -222.4830199 -0.218017E+01  0.242E-01    0.12       1.0  T
   4   -222.5054577 -0.224378E-01  0.135E-01    0.09       1.0  T
   5   -222.5013666  0.409105E-02  0.149E-01    0.10       1.0  T
   6   -222.5145964 -0.132298E-01  0.510E-02    0.11       1.0  T
   7   -222.5157377 -0.114124E-02  0.195E-02    0.10       1.0  T
   8   -222.5159217 -0.184073E-03  0.958E-03    0.10       1.0  T
   9   -222.5154943  0.427454E-03  0.274E-02    0.10       1.0  T
  10   -222.5159739 -0.479613E-03  0.435E-03    0.10       2.1  T
  11   -222.5159851 -0.112019E-04  0.139E-03    0.10       6.5  T
  12   -222.5159836  0.149564E-05  0.205E-03    0.10       4.4  T
  13   -222.5159848 -0.118618E-05  0.152E-03    0.10       5.9  T
  14   -222.5159855 -0.700829E-06  0.110E-03    0.10       8.2  T
  15   -222.5159858 -0.335755E-06  0.821E-04    0.10      11.0  T
  16   -222.5159860 -0.171736E-06  0.631E-04    0.10      14.3  T
  17   -222.5159862 -0.182840E-06  0.324E-04    0.10      28.0  T
  18   -222.5159862 -0.645084E-07  0.501E-05    0.10     180.8  T
  19   -222.5159862 -0.124439E-08  0.207E-05    0.10     437.4  T
     SCC iter.                  ...        0 min,  1.274 sec
     gradient                   ...        0 min,  0.517 sec
 * total energy  :  -218.7569088 Eh     change       -0.4831071E-03 Eh
   gradient norm :     0.0101481 Eh/α   predicted     0.0000000E+00 (-100.00%)
   displ. norm   :     0.1010030 α      lambda       -0.2538763E-03
   maximum displ.:     0.0581533 α      in ANC's #9, #24, #30, ...

........................................................................
.............................. CYCLE   22 ..............................
........................................................................
   1   -222.5154193 -0.222515E+03  0.407E-03    0.10       0.0  T
   2   -222.5035846  0.118347E-01  0.136E-01    0.10       1.0  T
   3   -222.5073885 -0.380389E-02  0.111E-01    0.10       1.0  T
   4   -222.5122700 -0.488148E-02  0.720E-02    0.10       1.0  T
   5   -222.5143681 -0.209813E-02  0.394E-02    0.11       1.0  T
   6   -222.5145165 -0.148423E-03  0.371E-02    0.10       1.0  T
   7   -222.5154139 -0.897356E-03  0.371E-03    0.10       2.4  T
   8   -222.5154012  0.127087E-04  0.576E-03    0.10       1.6  T
   9   -222.5154145 -0.132585E-04  0.336E-03    0.10       2.7  T
  10   -222.5154214 -0.689978E-05  0.688E-04    0.10      13.2  T
  11   -222.5154215 -0.103892E-06  0.505E-04    0.10      17.9  T
  12   -222.5154215 -0.708942E-07  0.313E-04    0.10      29.0  T
  13   -222.5154216 -0.495753E-07  0.109E-04    0.10      83.4  T
  14   -222.5154216 -0.229988E-09  0.104E-04    0.10      87.3  T
     SCC iter.                  ...        0 min,  0.940 sec
     gradient                   ...        0 min,  0.520 sec
 * total energy  :  -218.7570220 Eh     change       -0.1131950E-03 Eh
   gradient norm :     0.0057377 Eh/α   predicted    -0.1282359E-03 (  13.29%)
   displ. norm   :     0.2116758 α      lambda       -0.4032938E-03
   maximum displ.:     0.1029431 α      in ANC's #8, #9, #17, ...

........................................................................
.............................. CYCLE   23 ..............................
........................................................................
   1   -222.5152242 -0.222515E+03  0.138E-02    0.11       0.0  T
   2   -220.4814275  0.203380E+01  0.178E+00    0.00       1.0  T
   3   -222.4723792 -0.199095E+01  0.259E-01    0.11       1.0  T
   4   -222.4700573  0.232190E-02  0.290E-01    0.07       1.0  T
   5   -222.4960138 -0.259565E-01  0.178E-01    0.12       1.0  T
   6   -222.5135345 -0.175206E-01  0.510E-02    0.11       1.0  T
   7   -222.5112880  0.224646E-02  0.790E-02    0.11       1.0  T
   8   -222.5150265 -0.373854E-02  0.209E-02    0.11       1.0  T
   9   -222.5152939 -0.267396E-03  0.470E-03    0.11       1.9  T
  10   -222.5148976  0.396366E-03  0.253E-02    0.11       1.0  T
  11   -222.5152139 -0.316354E-03  0.120E-02    0.11       1.0  T
  12   -222.5152710 -0.571205E-04  0.764E-03    0.11       1.2  T
  13   -222.5152802 -0.917050E-05  0.659E-03    0.11       1.4  T
  14   -222.5153020 -0.218323E-04  0.245E-03    0.11       3.7  T
  15   -222.5152964  0.559236E-05  0.365E-03    0.11       2.5  T
  16   -222.5153003 -0.381102E-05  0.264E-03    0.11       3.4  T
  17   -222.5153024 -0.218500E-05  0.183E-03    0.11       4.9  T
  18   -222.5153044 -0.200089E-05  0.396E-04    0.11      22.8  T
  19   -222.5153045 -0.952631E-07  0.637E-05    0.11     142.2  T
  20   -222.5153045 -0.206182E-08  0.285E-05    0.11     317.3  T
     SCC iter.                  ...        0 min,  1.363 sec
     gradient                   ...        0 min,  0.512 sec
 * total energy  :  -218.7571196 Eh     change       -0.9767086E-04 Eh
   gradient norm :     0.0146382 Eh/α   predicted    -0.2106840E-03 ( 115.71%)
   displ. norm   :     0.0958962 α      lambda       -0.2606556E-03
   maximum displ.:     0.0605633 α      in ANC's #9, #26, #24, ...

........................................................................
.............................. CYCLE   24 ..............................
........................................................................
   1   -222.5172862 -0.222517E+03  0.467E-03    0.11       0.0  T
   2   -222.4968207  0.204656E-01  0.181E-01    0.12       1.0  T
   3   -222.5032940 -0.647333E-02  0.148E-01    0.12       1.0  T
   4   -222.5168518 -0.135578E-01  0.265E-02    0.11       1.0  T
   5   -222.5165533  0.298506E-03  0.333E-02    0.11       1.0  T
   6   -222.5168312 -0.277942E-03  0.265E-02    0.11       1.0  T
   7   -222.5172384 -0.407220E-03  0.896E-03    0.11       1.0  T
   8   -222.5172805 -0.420600E-04  0.420E-03    0.11       2.2  T
   9   -222.5172906 -0.100841E-04  0.144E-03    0.11       6.3  T
  10   -222.5172918 -0.124126E-05  0.381E-04    0.11      23.8  T
  11   -222.5172918  0.367208E-07  0.431E-04    0.11      21.0  T
  12   -222.5172919 -0.729671E-07  0.259E-04    0.11      34.9  T
  13   -222.5172919 -0.364410E-07  0.828E-05    0.11     109.3  T
  14   -222.5172919 -0.427022E-08  0.128E-05    0.11     707.7  T
     SCC iter.                  ...        0 min,  0.929 sec
     gradient                   ...        0 min,  0.520 sec
 * total energy  :  -218.7572908 Eh     change       -0.1711437E-03 Eh
   gradient norm :     0.0054560 Eh/α   predicted    -0.1315309E-03 ( -23.15%)
   displ. norm   :     0.1620504 α      lambda       -0.1688014E-03
   maximum displ.:     0.1095719 α      in ANC's #9, #8, #24, ...

........................................................................
.............................. CYCLE   25 ..............................
........................................................................
   1   -222.5172385 -0.222517E+03  0.456E-03    0.11       0.0  T
   2   -222.5030814  0.141571E-01  0.153E-01    0.12       1.0  T
   3   -222.4944199  0.866149E-02  0.189E-01    0.11       1.0  T
   4   -222.5171620 -0.227421E-01  0.120E-02    0.11       1.0  T
   5   -222.5170354  0.126670E-03  0.177E-02    0.11       1.0  T
   6   -222.5169958  0.395482E-04  0.195E-02    0.11       1.0  T
   7   -222.5171791 -0.183271E-03  0.100E-02    0.11       1.0  T
   8   -222.5172380 -0.589438E-04  0.336E-03    0.11       2.7  T
   9   -222.5172453 -0.731840E-05  0.412E-04    0.11      22.0  T
  10   -222.5172454 -0.669410E-07  0.257E-04    0.11      35.2  T
  11   -222.5172454 -0.113217E-07  0.207E-04    0.11      43.7  T
  12   -222.5172454 -0.990667E-08  0.164E-04    0.11      55.1  T
  13   -222.5172454 -0.128065E-07  0.824E-05    0.11     109.9  T
     SCC iter.                  ...        0 min,  0.874 sec
     gradient                   ...        0 min,  0.503 sec
 * total energy  :  -218.7574002 Eh     change       -0.1094034E-03 Eh
   gradient norm :     0.0053582 Eh/α   predicted    -0.8661743E-04 ( -20.83%)
   displ. norm   :     0.2478041 α      lambda       -0.1770789E-03
   maximum displ.:     0.1605268 α      in ANC's #9, #8, #24, ...

........................................................................
.............................. CYCLE   26 ..............................
........................................................................
   1   -222.5160667 -0.222516E+03  0.271E-03    0.11       0.0  T
   2   -222.5140440  0.202266E-02  0.611E-02    0.12       1.0  T
   3   -222.5110898  0.295419E-02  0.878E-02    0.11       1.0  T
   4   -222.5160640 -0.497418E-02  0.322E-03    0.11       2.8  T
   5   -222.5160553  0.869339E-05  0.460E-03    0.11       2.0  T
   6   -222.5160346  0.206502E-04  0.724E-03    0.11       1.3  T
   7   -222.5160480 -0.134137E-04  0.565E-03    0.11       1.6  T
   8   -222.5160659 -0.178655E-04  0.225E-03    0.11       4.0  T
   9   -222.5160693 -0.334676E-05  0.195E-04    0.11      46.3  T
  10   -222.5160693 -0.250036E-07  0.182E-05    0.11     497.5  T
  11   -222.5160693 -0.797797E-10  0.149E-05    0.11     605.8  T
     SCC iter.                  ...        0 min,  0.750 sec
     gradient                   ...        0 min,  0.480 sec
 * total energy  :  -218.7575165 Eh     change       -0.1163267E-03 Eh
   gradient norm :     0.0072340 Eh/α   predicted    -0.9398129E-04 ( -19.21%)
   displ. norm   :     0.3155913 α      lambda       -0.2024705E-03
   maximum displ.:     0.2065344 α      in ANC's #9, #8, #24, ...

........................................................................
.............................. CYCLE   27 ..............................
........................................................................
   1   -222.5145521 -0.222515E+03  0.305E-03    0.11       0.0  T
   2   -222.4934890  0.210631E-01  0.182E-01    0.11       1.0  T
   3   -222.5103624 -0.168734E-01  0.821E-02    0.11       1.0  T
   4   -222.5143082 -0.394576E-02  0.195E-02    0.11       1.0  T
   5   -222.5142744  0.337934E-04  0.206E-02    0.11       1.0  T
   6   -222.5143613 -0.869163E-04  0.172E-02    0.11       1.0  T
   7   -222.5145493 -0.188047E-03  0.302E-03    0.11       3.0  T
   8   -222.5145471  0.224595E-05  0.359E-03    0.11       2.5  T
   9   -222.5145544 -0.728856E-05  0.130E-03    0.11       7.0  T
  10   -222.5145553 -0.949205E-06  0.476E-04    0.11      19.0  T
  11   -222.5145554 -0.815716E-07  0.314E-04    0.11      28.9  T
  12   -222.5145555 -0.409525E-07  0.185E-04    0.11      49.0  T
  13   -222.5145555 -0.134057E-07  0.113E-04    0.11      80.4  T
     SCC iter.                  ...        0 min,  0.870 sec
     gradient                   ...        0 min,  0.482 sec
 * total energy  :  -218.7576635 Eh     change       -0.1469675E-03 Eh
   gradient norm :     0.0047877 Eh/α   predicted    -0.1113191E-03 ( -24.26%)
   displ. norm   :     0.3608715 α      lambda       -0.2105646E-03
   maximum displ.:     0.2455066 α      in ANC's #9, #8, #11, ...

........................................................................
.............................. CYCLE   28 ..............................
........................................................................
   1   -222.5155156 -0.222516E+03  0.565E-03    0.10       0.0  T
   2   -222.3696439  0.145872E+00  0.477E-01    0.08       1.0  T
   3   -222.5012628 -0.131619E+00  0.152E-01    0.11       1.0  T
   4   -222.5138674 -0.126046E-01  0.504E-02    0.10       1.0  T
   5   -222.5121136  0.175375E-02  0.720E-02    0.11       1.0  T
   6   -222.5149241 -0.281055E-02  0.305E-02    0.10       1.0  T
   7   -222.5154960 -0.571866E-03  0.741E-03    0.10       1.2  T
   8   -222.5155048 -0.877496E-05  0.642E-03    0.10       1.4  T
   9   -222.5155038  0.101038E-05  0.646E-03    0.10       1.4  T
  10   -222.5155259 -0.221115E-04  0.270E-03    0.10       3.3  T
  11   -222.5155295 -0.363290E-05  0.133E-03    0.10       6.8  T
  12   -222.5155295  0.117991E-07  0.130E-03    0.10       6.9  T
  13   -222.5155306 -0.105695E-05  0.132E-04    0.10      68.6  T
  14   -222.5155305  0.210697E-07  0.223E-04    0.10      40.6  T
  15   -222.5155306 -0.657744E-08  0.198E-04    0.10      45.8  T
  16   -222.5155306 -0.217053E-07  0.725E-05    0.10     124.8  T
     SCC iter.                  ...        0 min,  1.070 sec
     gradient                   ...        0 min,  0.485 sec
 * total energy  :  -218.7578160 Eh     change       -0.1525097E-03 Eh
   gradient norm :     0.0040166 Eh/α   predicted    -0.1189965E-03 ( -21.97%)
   displ. norm   :     0.3261512 α      lambda       -0.1566394E-03
   maximum displ.:     0.2292169 α      in ANC's #9, #8, #11, ...

........................................................................
.............................. CYCLE   29 ..............................
........................................................................
   1   -222.5173907 -0.222517E+03  0.678E-03    0.10       0.0  T
   2   -222.3764400  0.140951E+00  0.471E-01    0.09       1.0  T
   3   -222.4829740 -0.106534E+00  0.235E-01    0.11       1.0  T
   4   -222.5162289 -0.332549E-01  0.424E-02    0.10       1.0  T
   5   -222.5140259  0.220300E-02  0.714E-02    0.10       1.0  T
   6   -222.5166678 -0.264185E-02  0.338E-02    0.10       1.0  T
   7   -222.5174045 -0.736731E-03  0.389E-03    0.10       2.3  T
   8   -222.5173920  0.124873E-04  0.592E-03    0.10       1.5  T
   9   -222.5173828  0.924121E-05  0.690E-03    0.10       1.3  T
  10   -222.5174109 -0.281610E-04  0.201E-03    0.10       4.5  T
  11   -222.5174118 -0.860876E-06  0.165E-03    0.10       5.5  T
  12   -222.5174127 -0.877408E-06  0.114E-03    0.10       7.9  T
  13   -222.5174134 -0.717717E-06  0.413E-04    0.10      21.9  T
  14   -222.5174135 -0.106964E-06  0.481E-05    0.10     188.2  T
  15   -222.5174135  0.234388E-08  0.767E-05    0.10     118.1  T
     SCC iter.                  ...        0 min,  0.984 sec
     gradient                   ...        0 min,  0.482 sec
 * total energy  :  -218.7579357 Eh     change       -0.1197439E-03 Eh
   gradient norm :     0.0040028 Eh/α   predicted    -0.8665537E-04 ( -27.63%)
   displ. norm   :     0.2533716 α      lambda       -0.1205017E-03
   maximum displ.:     0.1798041 α      in ANC's #9, #8, #11, ...

........................................................................
.............................. CYCLE   30 ..............................
........................................................................
   1   -222.5192632 -0.222519E+03  0.405E-03    0.10       0.0  T
   2   -222.4986334  0.206299E-01  0.183E-01    0.11       1.0  T
   3   -222.4974393  0.119404E-02  0.185E-01    0.10       1.0  T
   4   -222.5188282 -0.213889E-01  0.259E-02    0.10       1.0  T
   5   -222.5184551  0.373099E-03  0.348E-02    0.10       1.0  T
   6   -222.5189582 -0.503051E-03  0.218E-02    0.10       1.0  T
   7   -222.5192694 -0.311219E-03  0.114E-03    0.10       8.0  T
   8   -222.5192593  0.101029E-04  0.411E-03    0.10       2.2  T
   9   -222.5192676 -0.825705E-05  0.204E-03    0.10       4.4  T
  10   -222.5192696 -0.201380E-05  0.101E-03    0.10       8.9  T
  11   -222.5192700 -0.379045E-06  0.657E-04    0.10      13.8  T
  12   -222.5192701 -0.168755E-06  0.412E-04    0.10      22.0  T
  13   -222.5192702 -0.839552E-07  0.195E-04    0.10      46.3  T
  14   -222.5192702 -0.217785E-07  0.639E-05    0.10     141.8  T
     SCC iter.                  ...        0 min,  0.912 sec
     gradient                   ...        0 min,  0.461 sec
 * total energy  :  -218.7580327 Eh     change       -0.9696039E-04 Eh
   gradient norm :     0.0034720 Eh/α   predicted    -0.6412120E-04 ( -33.87%)
   displ. norm   :     0.2138730 α      lambda       -0.9172455E-04
   maximum displ.:     0.1520488 α      in ANC's #9, #8, #11, ...

........................................................................
.............................. CYCLE   31 ..............................
........................................................................
   1   -222.5190651 -0.222519E+03  0.258E-03    0.10       0.0  T
   2   -222.5118943  0.717081E-02  0.108E-01    0.11       1.0  T
   3   -222.5130115 -0.111721E-02  0.976E-02    0.10       1.0  T
   4   -222.5189269 -0.591546E-02  0.153E-02    0.10       1.0  T
   5   -222.5189964 -0.694352E-04  0.103E-02    0.10       1.0  T
   6   -222.5190200 -0.236712E-04  0.847E-03    0.10       1.1  T
   7   -222.5190591 -0.390873E-04  0.359E-03    0.10       2.5  T
   8   -222.5190642 -0.504249E-05  0.227E-03    0.10       4.0  T
   9   -222.5190674 -0.323851E-05  0.333E-04    0.10      27.2  T
  10   -222.5190675 -0.527168E-07  0.725E-05    0.10     124.9  T
  11   -222.5190675  0.305590E-09  0.718E-05    0.10     126.1  T
     SCC iter.                  ...        0 min,  0.719 sec
     gradient                   ...        0 min,  0.444 sec
 * total energy  :  -218.7581075 Eh     change       -0.7477209E-04 Eh
   gradient norm :     0.0025575 Eh/α   predicted    -0.4796182E-04 ( -35.86%)
   displ. norm   :     0.1932872 α      lambda       -0.7194565E-04
   maximum displ.:     0.1384467 α      in ANC's #9, #8, #11, ...

........................................................................
.............................. CYCLE   32 ..............................
........................................................................
   1   -222.5181419 -0.222518E+03  0.466E-03    0.10       0.0  T
   2   -222.4383222  0.798197E-01  0.353E-01    0.10       1.0  T
   3   -222.5071326 -0.688104E-01  0.133E-01    0.11       1.0  T
   4   -222.5176910 -0.105583E-01  0.287E-02    0.10       1.0  T
   5   -222.5177268 -0.358777E-04  0.254E-02    0.10       1.0  T
   6   -222.5179896 -0.262779E-03  0.158E-02    0.10       1.0  T
   7   -222.5181426 -0.152997E-03  0.392E-03    0.10       2.3  T
   8   -222.5181391  0.354470E-05  0.454E-03    0.10       2.0  T
   9   -222.5181487 -0.962629E-05  0.211E-03    0.10       4.3  T
  10   -222.5181511 -0.238558E-05  0.789E-04    0.10      11.5  T
  11   -222.5181514 -0.293151E-06  0.266E-04    0.10      34.1  T
  12   -222.5181514 -0.917240E-08  0.211E-04    0.10      43.0  T
  13   -222.5181514 -0.249556E-07  0.480E-05    0.10     188.5  T
  14   -222.5181514 -0.129998E-08  0.157E-05    0.10     577.0  T
     SCC iter.                  ...        0 min,  0.904 sec
     gradient                   ...        0 min,  0.439 sec
 * total energy  :  -218.7581646 Eh     change       -0.5712948E-04 Eh
   gradient norm :     0.0023701 Eh/α   predicted    -0.3731790E-04 ( -34.68%)
   displ. norm   :     0.1821540 α      lambda       -0.6003297E-04
   maximum displ.:     0.1328909 α      in ANC's #9, #8, #11, ...

........................................................................
.............................. CYCLE   33 ..............................
........................................................................
   1   -222.5167452 -0.222517E+03  0.763E-03    0.10       0.0  T
   2   -222.3676118  0.149133E+00  0.484E-01    0.09       1.0  T
   3   -222.4722664 -0.104655E+00  0.266E-01    0.11       1.0  T
   4   -222.5152922 -0.430258E-01  0.491E-02    0.10       1.0  T
   5   -222.5135224  0.176982E-02  0.702E-02    0.11       1.0  T
   6   -222.5163830 -0.286065E-02  0.246E-02    0.10       1.0  T
   7   -222.5167617 -0.378673E-03  0.439E-03    0.10       2.1  T
   8   -222.5167421  0.195789E-04  0.688E-03    0.10       1.3  T
   9   -222.5167570 -0.149446E-04  0.468E-03    0.11       1.9  T
  10   -222.5167704 -0.133293E-04  0.870E-04    0.11      10.4  T
  11   -222.5167705 -0.174892E-06  0.573E-04    0.11      15.8  T
  12   -222.5167705  0.415881E-08  0.504E-04    0.11      18.0  T
  13   -222.5167707 -0.162700E-06  0.453E-05    0.11     199.7  T
  14   -222.5167707  0.394664E-09  0.488E-05    0.11     185.5  T
     SCC iter.                  ...        0 min,  0.881 sec
     gradient                   ...        0 min,  0.451 sec
 * total energy  :  -218.7582088 Eh     change       -0.4423573E-04 Eh
   gradient norm :     0.0021333 Eh/α   predicted    -0.3101312E-04 ( -29.89%)
   displ. norm   :     0.1482676 α      lambda       -0.4152217E-04
   maximum displ.:     0.1101320 α      in ANC's #9, #8, #11, ...

........................................................................
.............................. CYCLE   34 ..............................
........................................................................
   1   -222.5161041 -0.222516E+03  0.704E-03    0.11       0.0  T
   2   -222.4425667  0.735374E-01  0.343E-01    0.10       1.0  T
   3   -222.4563792 -0.138125E-01  0.307E-01    0.10       1.0  T
   4   -222.5151583 -0.587791E-01  0.392E-02    0.11       1.0  T
   5   -222.5137924  0.136588E-02  0.593E-02    0.11       1.0  T
   6   -222.5157853 -0.199296E-02  0.229E-02    0.11       1.0  T
   7   -222.5161028 -0.317487E-03  0.673E-03    0.11       1.3  T
   8   -222.5161056 -0.277181E-05  0.572E-03    0.11       1.6  T
   9   -222.5161159 -0.102714E-04  0.406E-03    0.11       2.2  T
  10   -222.5161250 -0.914625E-05  0.141E-03    0.11       6.4  T
  11   -222.5161257 -0.678844E-06  0.906E-04    0.11      10.0  T
  12   -222.5161261 -0.430109E-06  0.382E-04    0.11      23.7  T
  13   -222.5161262 -0.756128E-07  0.157E-04    0.11      57.6  T
  14   -222.5161262 -0.715011E-08  0.114E-04    0.11      79.3  T
     SCC iter.                  ...        0 min,  0.913 sec
     gradient                   ...        0 min,  0.442 sec
 * total energy  :  -218.7582414 Eh     change       -0.3260235E-04 Eh
   gradient norm :     0.0018469 Eh/α   predicted    -0.2121972E-04 ( -34.91%)
   displ. norm   :     0.1983389 α      lambda       -0.3348020E-04
   maximum displ.:     0.1494504 α      in ANC's #9, #8, #11, ...

........................................................................
.............................. CYCLE   35 ..............................
........................................................................
   1   -222.5150775 -0.222515E+03  0.422E-03    0.11       0.0  T
   2   -222.5005988  0.144787E-01  0.155E-01    0.12       1.0  T
   3   -222.4854695  0.151293E-01  0.215E-01    0.11       1.0  T
   4   -222.5147965 -0.293270E-01  0.212E-02    0.11       1.0  T
   5   -222.5145081  0.288378E-03  0.294E-02    0.11       1.0  T
   6   -222.5149753 -0.467245E-03  0.130E-02    0.11       1.0  T
   7   -222.5150809 -0.105606E-03  0.284E-03    0.11       3.2  T
   8   -222.5150799  0.109713E-05  0.298E-03    0.11       3.0  T
   9   -222.5150844 -0.458700E-05  0.127E-03    0.11       7.1  T
  10   -222.5150851 -0.680384E-06  0.743E-04    0.11      12.2  T
  11   -222.5150853 -0.226090E-06  0.446E-04    0.11      20.3  T
  12   -222.5150854 -0.935815E-07  0.230E-04    0.11      39.3  T
  13   -222.5150855 -0.259275E-07  0.110E-04    0.11      82.5  T
  14   -222.5150855 -0.511130E-08  0.618E-05    0.11     146.4  T
     SCC iter.                  ...        0 min,  0.904 sec
     gradient                   ...        0 min,  0.442 sec
 * total energy  :  -218.7582798 Eh     change       -0.3836692E-04 Eh
   gradient norm :     0.0018680 Eh/α   predicted    -0.1703454E-04 ( -55.60%)
   displ. norm   :     0.1638424 α      lambda       -0.2827110E-04
   maximum displ.:     0.1254484 α      in ANC's #9, #8, #11, ...

........................................................................
.............................. CYCLE   36 ..............................
........................................................................
   1   -222.5152908 -0.222515E+03  0.439E-03    0.11       0.0  T
   2   -222.4657588  0.495320E-01  0.281E-01    0.08       1.0  T
   3   -222.4957165 -0.299578E-01  0.176E-01    0.09       1.0  T
   4   -222.5148325 -0.191160E-01  0.283E-02    0.11       1.0  T
   5   -222.5151509 -0.318431E-03  0.154E-02    0.11       1.0  T
   6   -222.5150730  0.779006E-04  0.188E-02    0.11       1.0  T
   7   -222.5152941 -0.221099E-03  0.284E-03    0.11       3.2  T
   8   -222.5152970 -0.284569E-05  0.154E-03    0.11       5.9  T
   9   -222.5152978 -0.771820E-06  0.117E-03    0.11       7.7  T
  10   -222.5152968  0.936504E-06  0.165E-03    0.11       5.5  T
  11   -222.5152985 -0.168594E-05  0.231E-04    0.11      39.2  T
  12   -222.5152985 -0.295917E-07  0.944E-05    0.11      95.9  T
  13   -222.5152985  0.237500E-08  0.104E-04    0.11      86.9  T
     SCC iter.                  ...        0 min,  0.841 sec
     gradient                   ...        0 min,  0.443 sec
 * total energy  :  -218.7583075 Eh     change       -0.2773939E-04 Eh
   gradient norm :     0.0026077 Eh/α   predicted    -0.1430602E-04 ( -48.43%)
   displ. norm   :     0.1008166 α      lambda       -0.2774497E-04
   maximum displ.:     0.0756301 α      in ANC's #9, #8, #4, ...

........................................................................
.............................. CYCLE   37 ..............................
........................................................................
   1   -222.5148843 -0.222515E+03  0.478E-03    0.11       0.0  T
   2   -222.4695062  0.453781E-01  0.272E-01    0.08       1.0  T
   3   -222.4795539 -0.100477E-01  0.235E-01    0.09       1.0  T
   4   -222.5144293 -0.348754E-01  0.279E-02    0.11       1.0  T
   5   -222.5147216 -0.292300E-03  0.164E-02    0.11       1.0  T
   6   -222.5146972  0.243862E-04  0.177E-02    0.11       1.0  T
[...]
     1  26 Fe   3.189 --    41 N    0.678     7 N    0.671    20 N    0.670
                            27 N    0.664
     2   6 C    3.929 --    40 C    1.364     3 C    1.363    42 H    0.970
     3   6 C    3.923 --     2 C    1.363     7 N    1.208     4 C    1.173
     4   6 C    3.959 --     5 C    1.649     3 C    1.173    43 H    0.975
     5   6 C    3.961 --     4 C    1.649     6 C    1.175    44 H    0.973
     6   6 C    3.920 --     8 C    1.313     7 N    1.224     5 C    1.175
     7   7 N    3.383 --     6 C    1.224     3 C    1.208     1 Fe   0.671
     8   6 C    3.931 --    17 C    1.331     6 C    1.313     9 C    1.031
     9   6 C    3.963 --    16 C    1.385    10 C    1.385     8 C    1.031
    10   6 C    3.987 --    11 C    1.464     9 C    1.385    45 H    0.971
                            15 C    0.102
    11   6 C    3.993 --    10 C    1.464    12 C    1.364    46 H    0.972
                            16 C    0.102
    12   6 C    3.984 --    15 C    1.364    11 C    1.364    13 C    1.098
    13   6 C    3.958 --    14 N    2.820    12 C    1.098
    14   7 N    2.973 --    13 C    2.820
    15   6 C    3.993 --    16 C    1.463    12 C    1.364    47 H    0.972
                            10 C    0.102
    16   6 C    3.987 --    15 C    1.463     9 C    1.385    48 H    0.971
                            11 C    0.102
    17   6 C    3.916 --     8 C    1.331    20 N    1.201    18 C    1.179
    18   6 C    3.957 --    19 C    1.638    17 C    1.179    49 H    0.973
    19   6 C    3.959 --    18 C    1.638    21 C    1.188    50 H    0.973
    20   7 N    3.386 --    21 C    1.242    17 C    1.201     1 Fe   0.670
    21   6 C    3.903 --    22 C    1.254    20 N    1.242    19 C    1.188
    22   6 C    3.931 --    21 C    1.254    23 C    1.253   120 C    1.198
    23   6 C    3.904 --    22 C    1.253    27 N    1.242    24 C    1.189
    24   6 C    3.959 --    25 C    1.637    23 C    1.189    51 H    0.973
    25   6 C    3.957 --    24 C    1.637    26 C    1.180    52 H    0.973
    26   6 C    3.916 --    28 C    1.330    27 N    1.202    25 C    1.180
    27   7 N    3.383 --    23 C    1.242    26 C    1.202     1 Fe   0.664
    28   6 C    3.931 --    26 C    1.330    37 C    1.314    29 C    1.031
    29   6 C    3.963 --    36 C    1.385    30 C    1.385    28 C    1.031
    30   6 C    3.987 --    31 C    1.464    29 C    1.385    53 H    0.971
                            35 C    0.102
    31   6 C    3.993 --    30 C    1.464    32 C    1.364    54 H    0.972
                            36 C    0.102
    32   6 C    3.984 --    35 C    1.364    31 C    1.364    33 C    1.098
    33   6 C    3.958 --    34 N    2.820    32 C    1.098
    34   7 N    2.973 --    33 C    2.820
    35   6 C    3.993 --    36 C    1.463    32 C    1.364    55 H    0.972
                            30 C    0.102
    36   6 C    3.987 --    35 C    1.463    29 C    1.385    56 H    0.971
                            31 C    0.102
    37   6 C    3.920 --    28 C    1.314    41 N    1.224    38 C    1.174
    38   6 C    3.961 --    39 C    1.650    37 C    1.174    57 H    0.973
    39   6 C    3.959 --    38 C    1.650    40 C    1.173    58 H    0.975
    40   6 C    3.923 --     2 C    1.364    41 N    1.207    39 C    1.173
    41   7 N    3.386 --    37 C    1.224    40 C    1.207     1 Fe   0.678
    42   1 H    1.000 --     2 C    0.970
    43   1 H    0.997 --     4 C    0.975
    44   1 H    1.004 --     5 C    0.973
    45   1 H    1.003 --    10 C    0.971
    46   1 H    1.000 --    11 C    0.972
    47   1 H    1.000 --    15 C    0.972
    48   1 H    1.003 --    16 C    0.971
    49   1 H    1.004 --    18 C    0.973
    50   1 H    1.001 --    19 C    0.973
    51   1 H    1.001 --    24 C    0.973
    52   1 H    1.004 --    25 C    0.973
    53   1 H    1.003 --    30 C    0.971
    54   1 H    1.000 --    31 C    0.972
    55   1 H    1.000 --    35 C    0.972
    56   1 H    1.003 --    36 C    0.971
    57   1 H    1.004 --    38 C    0.973
    58   1 H    0.997 --    39 C    0.975
    59  26 Fe   3.190 --    99 N    0.679    65 N    0.671    78 N    0.670
                            85 N    0.664
    60   6 C    3.930 --    98 C    1.364    61 C    1.363   100 H    0.970
    61   6 C    3.923 --    60 C    1.363    65 N    1.208    62 C    1.173
    62   6 C    3.959 --    63 C    1.649    61 C    1.173   101 H    0.975
    63   6 C    3.961 --    62 C    1.649    64 C    1.175   102 H    0.973
    64   6 C    3.920 --    66 C    1.313    65 N    1.224    63 C    1.175
    65   7 N    3.383 --    64 C    1.224    61 C    1.208    59 Fe   0.671
    66   6 C    3.931 --    75 C    1.331    64 C    1.313    67 C    1.031
    67   6 C    3.963 --    68 C    1.385    74 C    1.385    66 C    1.031
    68   6 C    3.987 --    69 C    1.464    67 C    1.385   103 H    0.971
                            73 C    0.102
    69   6 C    3.993 --    68 C    1.464    70 C    1.364   104 H    0.972
                            74 C    0.102
    70   6 C    3.984 --    73 C    1.364    69 C    1.364    71 C    1.098
    71   6 C    3.958 --    72 N    2.820    70 C    1.098
    72   7 N    2.973 --    71 C    2.820
    73   6 C    3.993 --    74 C    1.463    70 C    1.364   105 H    0.972
                            68 C    0.102
    74   6 C    3.987 --    73 C    1.463    67 C    1.385   106 H    0.971
                            69 C    0.102
    75   6 C    3.916 --    66 C    1.331    78 N    1.201    76 C    1.179
    76   6 C    3.957 --    77 C    1.638    75 C    1.179   107 H    0.973
    77   6 C    3.959 --    76 C    1.638    79 C    1.188   108 H    0.973
    78   7 N    3.386 --    79 C    1.242    75 C    1.201    59 Fe   0.670
    79   6 C    3.903 --    80 C    1.254    78 N    1.242    77 C    1.188
    80   6 C    3.931 --    79 C    1.254    81 C    1.253   122 C    1.198
    81   6 C    3.904 --    80 C    1.253    85 N    1.241    82 C    1.189
    82   6 C    3.959 --    83 C    1.637    81 C    1.189   109 H    0.973
    83   6 C    3.957 --    82 C    1.637    84 C    1.180   110 H    0.973
    84   6 C    3.916 --    86 C    1.329    85 N    1.202    83 C    1.180
    85   7 N    3.383 --    81 C    1.241    84 C    1.202    59 Fe   0.664
    86   6 C    3.931 --    84 C    1.329    95 C    1.314    87 C    1.031
    87   6 C    3.963 --    94 C    1.385    88 C    1.385    86 C    1.031
    88   6 C    3.987 --    89 C    1.464    87 C    1.385   111 H    0.971
                            93 C    0.102
    89   6 C    3.993 --    88 C    1.464    90 C    1.364   112 H    0.972
                            94 C    0.102
    90   6 C    3.984 --    93 C    1.364    89 C    1.364    91 C    1.098
    91   6 C    3.958 --    92 N    2.820    90 C    1.098
    92   7 N    2.973 --    91 C    2.820
    93   6 C    3.993 --    94 C    1.463    90 C    1.364   113 H    0.972
                            88 C    0.102
    94   6 C    3.987 --    93 C    1.463    87 C    1.385   114 H    0.971
                            89 C    0.102
    95   6 C    3.920 --    86 C    1.314    99 N    1.224    96 C    1.174
    96   6 C    3.961 --    97 C    1.650    95 C    1.174   115 H    0.973
    97   6 C    3.959 --    96 C    1.650    98 C    1.173   116 H    0.975
    98   6 C    3.923 --    60 C    1.364    99 N    1.207    97 C    1.173
    99   7 N    3.386 --    95 C    1.224    98 C    1.207    59 Fe   0.679
   100   1 H    1.000 --    60 C    0.970
   101   1 H    0.997 --    62 C    0.975
   102   1 H    1.004 --    63 C    0.973
   103   1 H    1.003 --    68 C    0.971
   104   1 H    1.000 --    69 C    0.972
   105   1 H    1.000 --    73 C    0.972
   106   1 H    1.003 --    74 C    0.971
   107   1 H    1.004 --    76 C    0.973
   108   1 H    1.001 --    77 C    0.973
   109   1 H    1.001 --    82 C    0.973
   110   1 H    1.004 --    83 C    0.973
   111   1 H    1.003 --    88 C    0.971
   112   1 H    1.000 --    89 C    0.972
   113   1 H    1.000 --    93 C    0.972
   114   1 H    1.003 --    94 C    0.971
   115   1 H    1.004 --    96 C    0.973
   116   1 H    0.997 --    97 C    0.975
   117   6 C    3.915 --   118 C    2.349   121 C    1.345   120 C    0.187
   118   6 C    3.915 --   117 C    2.349   119 C    1.345   122 C    0.187
   119   6 C    3.924 --   120 C    2.431   118 C    1.345
   120   6 C    3.881 --   119 C    2.431    22 C    1.198   117 C    0.187
   121   6 C    3.924 --   122 C    2.431   117 C    1.345
   122   6 C    3.881 --   121 C    2.431    80 C    1.198   118 C    0.187
 ---------------------------------------------------------------------------

Topologies differ in total number of bonds
Writing topology from bond orders to xtbtopo.mol

 dipole moment from electron density (au)
     X       Y       Z   
   0.0125  -0.0104  -0.3433  total (Debye):    0.873

           -------------------------------------------------
          |                Geometry Summary                 |
           -------------------------------------------------

      molecular mass/u    :     1202.8351695
   center of mass at/Å    :       23.6138070      -0.0005312      -0.0071777
  moments of inertia/u·Å² :        0.2618928E+05   0.7793365E+05   0.1011872E+06
rotational constants/cm⁻¹ :        0.6436845E-03   0.2163075E-03   0.1665985E-03

 * 121 selected distances

     #   Z          #   Z                                           value/Å
     2   6 C        3   6 C                                       1.3797094
     3   6 C        4   6 C                                       1.4317004
     4   6 C        5   6 C                                       1.3539215
     5   6 C        6   6 C                                       1.4345293
     3   6 C        7   7 N                                       1.3704754
     6   6 C        7   7 N                                       1.3683561
     6   6 C        8   6 C                                       1.3908979
     9   6 C       10   6 C                                       1.3968322
    10   6 C       11   6 C                                       1.3832435
    11   6 C       12   6 C                                       1.3980571
    13   6 C       14   7 N                                       1.1508015
    12   6 C       15   6 C                                       1.3980345
     9   6 C       16   6 C                                       1.3967356
    15   6 C       16   6 C                                       1.3833134
     8   6 C       17   6 C                                       1.3882283
    17   6 C       18   6 C                                       1.4327772
    18   6 C       19   6 C                                       1.3546963
    17   6 C       20   7 N                                       1.3745396
    19   6 C       21   6 C                                       1.4292951
    20   7 N       21   6 C                                       1.3639639
    21   6 C       22   6 C                                       1.3996482
    22   6 C       23   6 C                                       1.3996414
    23   6 C       24   6 C                                       1.4290863
    24   6 C       25   6 C                                       1.3549641
    25   6 C       26   6 C                                       1.4326678
    23   6 C       27   7 N                                       1.3638656
    26   6 C       27   7 N                                       1.3741603
    26   6 C       28   6 C                                       1.3884317
    29   6 C       30   6 C                                       1.3968675
    30   6 C       31   6 C                                       1.3832280
    31   6 C       32   6 C                                       1.3980666
    33   6 C       34   7 N                                       1.1506790
    32   6 C       35   6 C                                       1.3980321
    29   6 C       36   6 C                                       1.3967347
    35   6 C       36   6 C                                       1.3833352
    28   6 C       37   6 C                                       1.3908239
    37   6 C       38   6 C                                       1.4346926 (max)
    38   6 C       39   6 C                                       1.3537446
     2   6 C       40   6 C                                       1.3795450
    39   6 C       40   6 C                                       1.4317530
    37   6 C       41   7 N                                       1.3687349
    40   6 C       41   7 N                                       1.3707558
     2   6 C       42   1 H                                       1.0841183
     4   6 C       43   1 H                                       1.0783561
     5   6 C       44   1 H                                       1.0779265
    10   6 C       45   1 H                                       1.0841265
    11   6 C       46   1 H                                       1.0836992
    15   6 C       47   1 H                                       1.0836954
    16   6 C       48   1 H                                       1.0841207
    18   6 C       49   1 H                                       1.0777212
    19   6 C       50   1 H                                       1.0780081
    24   6 C       51   1 H                                       1.0780682
    25   6 C       52   1 H                                       1.0777714
    30   6 C       53   1 H                                       1.0841330
    31   6 C       54   1 H                                       1.0837029
    35   6 C       55   1 H                                       1.0836946
    36   6 C       56   1 H                                       1.0841163
    38   6 C       57   1 H                                       1.0778947
    39   6 C       58   1 H                                       1.0783539
    60   6 C       61   6 C                                       1.3797307
    61   6 C       62   6 C                                       1.4317266
    62   6 C       63   6 C                                       1.3539354
    63   6 C       64   6 C                                       1.4345112
    61   6 C       65   7 N                                       1.3704693
    64   6 C       65   7 N                                       1.3683782
    64   6 C       66   6 C                                       1.3908657
    67   6 C       68   6 C                                       1.3967845
    68   6 C       69   6 C                                       1.3832734
    69   6 C       70   6 C                                       1.3980461
    71   6 C       72   7 N                                       1.1507018
    70   6 C       73   6 C                                       1.3980489
    67   6 C       74   6 C                                       1.3967793
    73   6 C       74   6 C                                       1.3832835
    66   6 C       75   6 C                                       1.3882563
    75   6 C       76   6 C                                       1.4327852
    76   6 C       77   6 C                                       1.3546971
    75   6 C       78   7 N                                       1.3745122
    77   6 C       79   6 C                                       1.4292715
    78   7 N       79   6 C                                       1.3639541
    79   6 C       80   6 C                                       1.3996414
    80   6 C       81   6 C                                       1.3996159
    81   6 C       82   6 C                                       1.4290555
    82   6 C       83   6 C                                       1.3549665
    83   6 C       84   6 C                                       1.4326819
    81   6 C       85   7 N                                       1.3639085
    84   6 C       85   7 N                                       1.3740983
    84   6 C       86   6 C                                       1.3885055
    87   6 C       88   6 C                                       1.3968421
    88   6 C       89   6 C                                       1.3832535
    89   6 C       90   6 C                                       1.3980489
    91   6 C       92   7 N                                       1.1507575
    90   6 C       93   6 C                                       1.3980478
    87   6 C       94   6 C                                       1.3967807
    93   6 C       94   6 C                                       1.3832970
    86   6 C       95   6 C                                       1.3907977
    95   6 C       96   6 C                                       1.4346857
    96   6 C       97   6 C                                       1.3537561
    60   6 C       98   6 C                                       1.3795800
    97   6 C       98   6 C                                       1.4317701
    95   6 C       99   7 N                                       1.3687794
    98   6 C       99   7 N                                       1.3707408
    60   6 C      100   1 H                                       1.0841242
    62   6 C      101   1 H                                       1.0783597
    63   6 C      102   1 H                                       1.0779334
    68   6 C      103   1 H                                       1.0841239
    69   6 C      104   1 H                                       1.0836976
    73   6 C      105   1 H                                       1.0836960
    74   6 C      106   1 H                                       1.0841231
    76   6 C      107   1 H                                       1.0777165 (min)
    77   6 C      108   1 H                                       1.0780059
    82   6 C      109   1 H                                       1.0780656
    83   6 C      110   1 H                                       1.0777648
    88   6 C      111   1 H                                       1.0841300
    89   6 C      112   1 H                                       1.0837025
    93   6 C      113   1 H                                       1.0836938
    94   6 C      114   1 H                                       1.0841181
    96   6 C      115   1 H                                       1.0778991
    97   6 C      116   1 H                                       1.0783569
   117   6 C      118   6 C                                       1.2296048
   119   6 C      120   6 C                                       1.2250333
   121   6 C      122   6 C                                       1.2250362

 * 3 distinct bonds (by element types)

   Z      Z             #   av. dist./Å        max./Å        min./Å
   1 H    6 C          34     1.0811476     1.0841330     1.0777165
   6 C    6 C          67     1.3893467     1.4346926     1.2250333
   6 C    7 N          20     1.3256316     1.3745396     1.1506790


optimized geometry written to: xtbopt.xyz


           -------------------------------------------------
          | TOTAL ENERGY             -218.758424316577 Eh   |
          | GRADIENT NORM               0.000438110000 Eh/α |
          | HOMO-LUMO GAP               0.103188282409 eV   |
           -------------------------------------------------

------------------------------------------------------------------------
 * finished run on 2022/07/30 at 00:19:22.147     
------------------------------------------------------------------------
 total:
 * wall-time:     0 d,  0 h,  1 min, 40.663 sec
 *  cpu-time:     0 d,  0 h,  1 min, 40.095 sec
 * ratio c/w:     0.994 speedup
 SCF:
 * wall-time:     0 d,  0 h,  0 min,  4.061 sec
 *  cpu-time:     0 d,  0 h,  0 min,  4.036 sec
 * ratio c/w:     0.994 speedup
 ANC optimizer:
 * wall-time:     0 d,  0 h,  1 min, 36.395 sec
 *  cpu-time:     0 d,  0 h,  1 min, 35.857 sec
 * ratio c/w:     0.994 speedup

