78
 energy: -132.144476013361 gnorm: 0.515980961962 xtb: 6.5.1 (b24c23e)
C            4.01370500000000       -0.00103700000000        0.00001300000000
C            4.74813900000000       -1.37819400000000       -0.07187400000000
C            4.16099300000000       -2.62185900000000       -0.13679000000000
C            5.21291100000000       -3.57775700000000       -0.18669200000000
C            6.40136400000000       -2.88057100000000       -0.15030300000000
N            6.10967100000000       -1.54489200000000       -0.08057600000000
C            7.83271900000000       -3.49889300000000       -0.18258800000000
C            8.95528100000000       -2.75408600000000       -0.14370500000000
C           10.24026700000000       -3.40655300000000       -0.17777500000000
C           11.17755000000000       -2.46532400000000       -0.12863800000000
N            9.17711200000000       -1.41187000000000       -0.07362900000000
C           10.52649000000000       -1.16745700000000       -0.06087600000000
C           11.22325200000000        0.00029500000000        0.00008300000000
C           10.44858600000000        1.39258300000000        0.07277100000000
C           11.01216500000000        2.65312200000000        0.13858500000000
C            9.95414100000000        3.59728000000000        0.18787300000000
C            8.77622900000000        2.88735000000000        0.15080100000000
N            9.08157800000000        1.55021400000000        0.08099200000000
C            7.34343200000000        3.51191200000000        0.18339900000000
C            6.22591200000000        2.76230400000000        0.14426400000000
C            4.92214300000000        3.38702600000000        0.17687000000000
C            4.00566000000000        2.42297200000000        0.12654400000000
C            4.69971500000000        1.15733600000000        0.06048100000000
N            6.03579600000000        1.41856200000000        0.07412000000000
H            2.93098900000000        0.00718100000000        0.00043900000000
H            3.10031700000000       -2.81952500000000       -0.14710700000000
H            5.11364700000000       -4.65081900000000       -0.24270700000000
H            6.78969600000000       -0.78885300000000       -0.04111300000000
H            7.91076200000000       -4.57832600000000       -0.23894700000000
H           10.40522700000000       -4.46746700000000       -0.23316600000000
H           12.23558900000000       -2.65272300000000       -0.13842500000000
H           12.06753900000000        2.87789800000000        0.15032400000000
H           10.04256800000000        4.67137600000000        0.24395100000000
H            8.40287500000000        0.79237300000000        0.04142700000000
H            7.26220000000000        4.59079200000000        0.23971600000000
H            4.73616800000000        4.44418100000000        0.23205200000000
H            2.93877800000000        2.55237300000000        0.13329500000000
C           25.11575300000000        0.00160700000000       -0.00015800000000
C           24.38131900000000        1.35814300000000       -0.24823300000000
C           24.96846499999999        2.58318500000000       -0.47226000000000
C           23.91654700000000        3.52476800000000       -0.64445500000000
C           22.72809400000000        2.83802200000000       -0.51887100000000
N           23.01978700000000        1.52234500000000       -0.27826200000000
C           21.29673900000000        3.44708400000000       -0.63026200000000
C           20.17417800000000        2.71343100000000       -0.49609100000000
C           18.88919200000000        3.35612500000000       -0.61363500000000
C           17.95190800000000        2.42899200000000       -0.44408000000000
N           19.95234700000000        1.39131400000000       -0.25429700000000
C           18.60296800000000        1.15056000000000       -0.21027400000000
C           17.90620700000000        0.00029500000000        0.00008300000000
C           18.68087200000000       -1.37114300000000        0.25089500000000
C           18.11729300000000       -2.61280400000000        0.47797800000000
C           19.17531700000000       -3.54282400000000        0.64805900000000
C           20.35322900000000       -2.84352700000000        0.52016100000000
N           20.04788000000000       -1.52641500000000        0.27928400000000
C           21.78602600000000       -3.45873700000000        0.63266300000000
C           22.90354600000000       -2.72035400000000        0.49762600000000
C           24.20731500000000       -3.33572100000000        0.61015600000000
C           25.12379800000000       -2.38610400000000        0.43649300000000
C           24.42974400000000       -1.13942000000000        0.20850900000000
N           23.09366200000000       -1.39673400000000        0.25556800000000
H           26.19846900000000       -0.00648800000000        0.00132000000000
H           26.02914100000000        2.77789200000000       -0.50786500000000
H           24.01581100000000        4.58176200000000       -0.83775500000000
H           22.33976200000000        0.77762700000000       -0.14207400000000
H           21.21869600000000        4.51035200000000       -0.82472000000000
H           18.72423100000000        4.40115200000000       -0.80475600000000
H           16.89386900000000        2.61358400000000       -0.47784300000000
H           17.06191900000000       -2.83421300000000        0.51847500000000
H           19.08689000000000       -4.60083500000000        0.84155200000000
H           20.72658300000000       -0.77992200000000        0.14276200000000
H           21.86725800000000       -4.52146100000000        0.82700900000000
H           24.39329000000000       -4.37704700000000        0.80058700000000
H           26.19068000000000       -2.51356800000000        0.45979900000000
C           13.82088200000000        0.01371900000000        0.00280400000000
C           12.56861100000000       -0.00546200000000       -0.00154400000000
C           15.13455000000000        0.01295300000000        0.00473700000000
C           16.63768400000000       -0.00546200000000       -0.00154400000000
78
 energy: -132.285999929096 gnorm: 0.316462308677 xtb: 6.5.1 (b24c23e)
C            4.04903368129620       -0.04096113142944       -0.00207174696813
C            4.74675995162295       -1.36032739062670       -0.07093939084576
C            4.16734199510645       -2.62536714937554       -0.13697702108064
C            5.20908757775402       -3.57221181856034       -0.18639262709352
C            6.41802157258366       -2.87972086528294       -0.15023139139834
N            6.11140727063249       -1.54128717414257       -0.08038178397982
C            7.79254695697114       -3.46431568042423       -0.18091470964063
C            8.95300872164196       -2.74301106650515       -0.14339694726905
C           10.24213808545876       -3.41422078690705       -0.17815994703807
C           11.18539317618432       -2.46593054392647       -0.12843117850924
N            9.17155255133559       -1.39317194444275       -0.07229959448357
C           10.51187599045017       -1.17354700548116       -0.05926200523599
C           11.21445594041381        0.03805806302018        0.00243220006207
C           10.45231412412001        1.37874610200777        0.07026911236600
C           11.00875986774837        2.65319670306235        0.13829248646441
C            9.95843518760999        3.59043124030965        0.18756575166008
C            8.75954028781543        2.88642531212606        0.15085950331666
N            9.08264670944352        1.54707626927824        0.08049421838827
C            7.38575788003711        3.47887348686356        0.18177111821123
C            6.22838421470888        2.75105570362714        0.14369274957947
C            4.91967415836424        3.39442066583882        0.17725329909721
C            3.99852622682218        2.42536190077541        0.12666696648932
C            4.71085934046618        1.15542269296457        0.06038209346857
N            6.04896571580895        1.40465359597504        0.07338423200054
H            2.95876015066088       -0.02086188231410       -0.00102487772802
H            3.10616694426846       -2.82439214818129       -0.14736215507493
H            5.10868721276782       -4.64584291438688       -0.24244727841604
H            6.78961025487092       -0.78794389677611       -0.04106632281216
H            7.88229042668868       -4.55096114135250       -0.23746987366488
H           10.40137391097344       -4.47676753597606       -0.23367860802347
H           12.24658631780387       -2.64325041412017       -0.13795456132793
H           12.06431574760182        2.87867715512317        0.15035479241056
H           10.04814005198836        4.66526308969547        0.24368983748468
H            8.40592389913825        0.79133643189286        0.04130685835470
H            7.29274271540057        4.56459066202535        0.23832193930744
H            4.73985205641096        4.45382791874189        0.23255696121484
H            2.92961549967981        2.54840144736474        0.13308794038974
C           25.08057131403178        0.04073860804081       -0.00731448773506
C           24.38271171774424        1.34071101553189       -0.24504301137838
C           24.96209901209257        2.58656570700224       -0.47288162745522
C           23.92013263737842        3.51934087835669       -0.64345287916802
C           22.71153756528106        2.83713266138626       -0.51868653794227
N           23.01817210630044        1.51872000066258       -0.27759422988501
C           21.33621968319171        3.41212405817124       -0.62400157219122
C           20.17571485636435        2.70226648761238       -0.49432698010042
C           18.88797515688576        3.36451980289837       -0.61514485373098
C           17.94382177558423        2.43072702955604       -0.44411265609739
N           19.95329564393414        1.37085364606912       -0.25026853322226
C           18.61367458038285        1.15918632414822       -0.20998048207443
C           17.89176862843811       -0.03543996459119        0.00676159904620
C           18.67603377690175       -1.35962472602022        0.24695974907647
C           18.12064316773636       -2.61315619560358        0.47775472074997
C           19.17167898194750       -3.53633764280289        0.64693046841939
C           20.36969206611930       -2.84277409669154        0.52012281969579
N           20.04615971623864       -1.52340020174820        0.27835304939848
C           21.74415161413232       -3.42629846611621        0.62682868992610
C           22.90112238158271       -2.70941349863904        0.49564096195239
C           24.20985902161765       -3.34303986903688        0.61149168289361
C           25.13094632775126       -2.38850234907484        0.43692941237401
C           24.41865679690499       -1.13754703245714        0.20816721048951
N           23.08047724098450       -1.38294134368634        0.25303607118258
H           26.17079623063663        0.02105113341295       -0.00371661960079
H           26.02326501196767        2.78266166668229       -0.50873844413672
H           24.02062746769086        4.57688640412658       -0.83686335136537
H           22.34000765829324        0.77662654885022       -0.14189223436126
H           21.24691790191550        4.48280948903705       -0.81962880573811
H           18.72862942683679        4.41087800163829       -0.80655753738439
H           16.88257965847727        2.60461455142307       -0.47621443946032
H           17.06499269559253       -2.83489499246632        0.51858514538344
H           19.08162792512956       -4.59495492879837        0.84054048792587
H           20.72289945769989       -0.77881759824320        0.14248163275639
H           21.83690912946667       -4.49574594596594        0.82228348708522
H           24.38965499911685       -4.38657447097569        0.80233061864560
H           26.19985497998046       -2.50967082439680        0.45908641925482
C           13.86559043715225        0.02063447643310        0.00302931254920
C           12.59286117377072        0.01934507400374       -0.00048611399850
C           15.19586545566590        0.00540896381642        0.00399658917584
C           16.54093024843026       -0.02879933202604        0.00430522936966
78
 energy: -132.347456642381 gnorm: 0.240496364700 xtb: 6.5.1 (b24c23e)
C            4.09626288328384       -0.09112082942690       -0.00469403426768
C            4.74648189650447       -1.33307848597496       -0.06952284442234
C            4.17872209726402       -2.63170014832107       -0.13731094688925
C            5.20243038218794       -3.56170999389419       -0.18585230035290
C            6.44435238783382       -2.87620971240002       -0.15008848069135
N            6.11480828560863       -1.53571516906697       -0.08010922152117
C            7.74292239167271       -3.41724288938896       -0.17837111527389
C            8.95436447406102       -2.72903450821317       -0.14248695348458
C           10.24258333837582       -3.41488123736508       -0.17827598346129
C           11.19386887327566       -2.46110576589239       -0.12773804384805
N            9.17417999823863       -1.37483268142408       -0.07091106678760
C           10.50728085623985       -1.17287600294303       -0.05934699683967
C           11.20463386989306        0.08472328910861        0.00411180314102
C           10.46363966644781        1.34999873676131        0.06893018902385
C           11.00418716286831        2.65456620372875        0.13827028507826
C            9.96815477909361        3.57742307469084        0.18690607803651
C            8.73764259659469        2.87997914722200        0.15046270349447
N            9.08901496009531        1.53714358625083        0.07981930760787
C            7.44091522512692        3.43227328732035        0.17931575540620
C            6.23101955372589        2.73962893725933        0.14308340941293
C            4.92206386864437        3.39817752399099        0.17744058124853
C            3.99551669121706        2.42397452241180        0.12659110371018
C            4.72196183072540        1.15443254038390        0.06032304372852
N            6.05832906840094        1.39421200862198        0.07285050211963
H            2.99739528184668       -0.05107136840929       -0.00260713138492
H            3.11565966629096       -2.82993634815493       -0.14765739572538
H            5.10302930891375       -4.63709549841015       -0.24199045618371
H            6.79215520331744       -0.78428734591764       -0.04087176278925
H            7.85204035732728       -4.51172016562598       -0.23546504489525
H           10.39293930592590       -4.48050532079561       -0.23409654429453
H           12.25697249536464       -2.62923578084396       -0.13700791725273
H           12.06013897904335        2.88088132954652        0.15034110629619
H           10.05516659862204        4.65449092338974        0.24322158648311
H            8.41046230318364        0.78504918330856        0.04082564405747
H            7.32777436926577        4.52582784853516        0.23633656135425
H            4.74892188568881        4.46005749247622        0.23287397912943
H            2.92432528144808        2.53985907863268        0.13263734830550
C           25.03339291503796        0.09017966268521       -0.01634539142718
C           24.38300630915775        1.31380440516657       -0.24011559372610
C           24.95064094967624        2.59277528175393       -0.47400678642253
C           23.92645881673484        3.50885940915308       -0.64153388986425
C           22.68494233795208        2.83324462408294       -0.51799860882203
N           23.01473118034993        1.51298651698581       -0.27655160620945
C           21.38455144799561        3.36405765153014       -0.61510831657407
C           20.17271071313062        2.68616905589545       -0.49117681417963
C           18.88656085802070        3.36410788194659       -0.61518997829646
C           17.93311085072235        2.42611053862676       -0.44301617193944
N           19.94622856077029        1.34952666685266       -0.24566442144970
C           18.61193600844815        1.15560981939026       -0.20920198703605
C           17.88569824845712       -0.07755678026720        0.01439823900058
C           18.65791770338685       -1.32851005318163        0.24147188492015
C           18.12298527739076       -2.61425652550189        0.47777494312382
C           19.16087438161487       -3.52291322506990        0.64449795516699
C           20.38935756739502       -2.83425750584260        0.51852760563337
N           20.03480174503111       -1.51084148332791        0.27598039084207
C           21.68778540056887       -3.37930877067394        0.61822056040496
C           22.89805770649988       -2.69787249140682        0.49353038939143
C           24.20715076061098       -3.34667229808709        0.61216256569343
C           25.13383772072351       -2.38715667095395        0.43669586264744
C           24.40757398880175       -1.13656079075268        0.20799375666840
N           23.07116592329740       -1.37247593127108        0.25114630861972
H           26.13221062071696        0.05085948076226       -0.00915690949988
H           26.01369237056291        2.78820423050425       -0.50974278321798
H           24.02612908291179        4.56814900144002       -0.83525463695065
H           22.33744787900706        0.77281952960313       -0.14118289167615
H           21.27637279740176        4.44279910240554       -0.81236003696404
H           18.73706717935755        4.41397366676045       -0.80734851468900
H           16.87059538900991        2.59231432730085       -0.47378792426489
H           17.06782470015690       -2.83835745924748        0.51908516128531
H           19.07460409831107       -4.58402593487580        0.83864267615572
H           20.71524522892577       -0.77123574379645        0.14098718553904
H           21.80103065389422       -4.45675653637689        0.81519911654831
H           24.38035108938947       -4.39266241544483        0.80345137194238
H           26.20505596463036       -2.50130353768080        0.45756880149637
C           13.89294104426588        0.02497431325571        0.00229967736530
C           12.63361221971351        0.04720731628058        0.00174707844038
C           15.28226327458546       -0.00949762381754        0.00931614511854
C           16.44743886176670       -0.04825516597677        0.00473883993736
78
 energy: -132.369498918802 gnorm: 0.084227187138 xtb: 6.5.1 (b24c23e)
C            4.12094572458095       -0.10445919800549       -0.00536737383709
C            4.75806145017237       -1.33282520198052       -0.06948549719204
C            4.18632068649059       -2.63387462912350       -0.13740117050638
C            5.20337797526742       -3.55497775110069       -0.18548168597807
C            6.44618625195684       -2.86173527514732       -0.14929563468953
N            6.12188466419489       -1.52605618421562       -0.07957076347754
C            7.73257855517517       -3.38507448596776       -0.17666983273137
C            8.95411706709798       -2.70987684388394       -0.14117196072034
C           10.23925216315758       -3.40299485306899       -0.17756714316240
C           11.19415343329725       -2.44928140143221       -0.12687792564795
N            9.17128656308305       -1.35856093856530       -0.06924037494896
C           10.50377417297993       -1.16241592885810       -0.05821689127675
C           11.18661787951465        0.10131702547143        0.00573084727094
C           10.46877356849524        1.34220520899082        0.06832768956498
C           11.00935344377187        2.65106111545634        0.13758945123581
C            9.97821463819921        3.56394921355479        0.18608152383560
C            8.74784515708976        2.85836371850571        0.14920850853809
N            9.09756367659001        1.51951070839568        0.07864316155548
C            7.46361097458486        3.39874723225461        0.17761263166267
C            6.24058478306477        2.72440107782157        0.14232930396377
C            4.93445924869605        3.39115838661150        0.17710474213471
C            4.00422157174307        2.41657800671079        0.12623028472670
C            4.73380882633426        1.14899065236664        0.06006332088540
N            6.06829269555016        1.38204107090750        0.07223656321769
H            3.02882079688713       -0.08613452608414       -0.00441246500062
H            3.12466203828445       -2.83401111756672       -0.14784857009566
H            5.10294756940845       -4.62927411571619       -0.24156414379331
H            6.79832701819059       -0.77365186850233       -0.04028866711025
H            7.82037018095348       -4.47448651981807       -0.23360497715819
H           10.38162061429587       -4.47256596410508       -0.23390573518653
H           12.26097837653796       -2.60990004321268       -0.13583142222307
H           12.06343979016688        2.88007869213293        0.15007706588008
H           10.06257953102955        4.64036384163368        0.24264312739743
H            8.41899761780048        0.76740616978787        0.03976315055127
H            7.37363154668102        4.48786691894958        0.23442388100667
H            4.76639023694778        4.45662485808925        0.23272296650869
H            2.92991323043984        2.52839383302657        0.13206506671165
C           25.00865097033240        0.10345507800350       -0.01876849152310
C           24.37137470326801        1.31347096161655       -0.24004821953347
C           24.94288483789142        2.59495406602073       -0.47439645518352
C           23.92547708221032        3.50221514231842       -0.64031215000432
C           22.68297208719371        2.81913553085301       -0.51544301082417
N           23.00753589862410        1.50350913020107       -0.27481789482153
C           21.39585204588874        3.33398539468122       -0.60968087190931
C           20.17471903680507        2.66899544662923       -0.48805313294177
C           18.89017050053665        3.35215992513601       -0.61269381645788
C           17.93504578750496        2.41266715949956       -0.43964331857299
N           19.95658674521399        1.33625363118286       -0.24423999476557
C           18.62567755441686        1.14482621621360       -0.20801590161128
C           17.93293176444315       -0.09905353462645        0.01599319206050
C           18.65781171641071       -1.32306408828691        0.23925331387653
C           18.11877828256336       -2.61138919777685        0.47707071629375
C           19.15107290284445       -3.51040108602132        0.64217449724920
C           20.38009681276317       -2.81422795436738        0.51466083774004
N           20.02899922843286       -1.49510117441873        0.27223455202790
C           21.66505002741579       -3.34616195700754        0.61221578211536
C           22.88838689239891       -2.68274483820506        0.49078524939563
C           24.19459023199412       -3.33970855349716        0.61089870896725
C           25.12499915822567       -2.37986278860745        0.43536378641461
C           24.39565252404668       -1.13114103964410        0.20700649897856
N           23.06117322735535       -1.36037388791803        0.24893016242364
H           26.10075781174530        0.08546421979876       -0.01547778842629
H           26.00452254138387        2.79229521383217       -0.51048100497866
H           24.02614458360621        4.56041569551219       -0.83383336953339
H           22.33123809199832        0.76228820484348       -0.13924780416404
H           21.30797949313858        4.40720155086696       -0.80581883578360
H           18.74754818151757        4.40570240030478       -0.80585062667981
H           16.86796437293133        2.57069793046030       -0.46931734722799
H           17.06484172449443       -2.83737574587019        0.51878191719355
H           19.06702642525728       -4.57063285282830        0.83645295052527
H           20.70840275109316       -0.75482183575710        0.13744219812848
H           21.75482794861237       -4.41910696026340        0.80839123517144
H           24.36270591302265       -4.38923796598526        0.80283293241086
H           26.19932540777319       -2.49006959859509        0.45551838136976
C           13.85103966512755        0.04084165344198        0.00648668918955
C           12.61649032431254        0.07195064482195       -0.00062669826412
C           15.23091815103392       -0.00704267106686        0.00212234459947
C           16.49549087546002       -0.08027334980754        0.02372973516382
78
 energy: -132.378776658482 gnorm: 0.038117517219 xtb: 6.5.1 (b24c23e)
C            4.12980615640313       -0.10372497904442       -0.00542387966653
C            4.77228080918426       -1.33435005796926       -0.06963793756024
C            4.19808239292739       -2.63500143848819       -0.13756054280045
C            5.21589345009480       -3.54688933509885       -0.18514557966725
C            6.45295367670172       -2.83969843519088       -0.14810018359450
N            6.13171778899453       -1.51042809099354       -0.07874562548702
C            7.74677105828408       -3.35519298491598       -0.17488679367810
C            8.96708262463930       -2.68303417359553       -0.13914117287996
C           10.24413375459109       -3.38160976947392       -0.17627012482569
C           11.20456445153243       -2.43437127311097       -0.12588998019647
N            9.18682887937018       -1.33583681333866       -0.06718669721999
C           10.52327115326282       -1.14846451462042       -0.05737907027497
C           11.20570728621334        0.10560378760747        0.00622956279664
C           10.49527434979935        1.33370409302285        0.06811830283785
C           11.03319852718437        2.64536236864800        0.13688694494358
C            9.99907954524407        3.54441671778560        0.18475921349289
C            8.77627659626893        2.82294998144695        0.14716103468980
N            9.12706589689336        1.49037566769015        0.07712764104740
C            7.48729142562849        3.36372820647460        0.17566565626777
C            6.26001205752525        2.70253579052283        0.14111414867004
C            4.96200062434045        3.37759770821999        0.17634201067744
C            4.02509347535298        2.40908034625163        0.12575830291308
C            4.74565359058376        1.14297955151646        0.05966723594116
N            6.08059551861129        1.36373461048135        0.07119554512965
H            3.04365859153542       -0.10522658674201       -0.00551649359982
H            3.13785104203500       -2.83753623145655       -0.14816000060546
H            5.11995765486499       -4.62058578874942       -0.24119951525055
H            6.80494125421660       -0.75362855253826       -0.03920821377914
H            7.81502885479593       -4.43989205329771       -0.23202190228336
H           10.37245516256871       -4.45306603023914       -0.23320975208072
H           12.27192675681410       -2.58996828335604       -0.13451892867575
H           12.08536782657765        2.87874809783684        0.14944397370998
H           10.07331090725080        4.62029814935348        0.24152323008997
H            8.45272278355293        0.73285054150501        0.03790535870053
H            7.42375558462983        4.44892046122210        0.23239255229922
H            4.80450210552743        4.44505814436581        0.23205387732789
H            2.95050629630102        2.51990724708149        0.13152365077960
C           24.99969887693624        0.10283857615671       -0.01860569900502
C           24.35699937882014        1.31491686069816       -0.24024541834737
C           24.93070506269254        2.59615944114012       -0.47455574476017
C           23.91242538105813        3.49407622269837       -0.63872503641246
C           22.67569600335849        2.79711392053592       -0.51110856174098
N           22.99746980937356        1.48785607741193       -0.27179903676150
C           21.38144873525109        3.30442118955198       -0.60363444844610
C           20.16098841904187        2.64324301730266       -0.48247836473882
C           18.88456463288952        3.33215948793501       -0.60912210004380
C           17.92329989155076        2.39974920619136       -0.43869330406863
N           19.94004500823965        1.31561945147357       -0.23855963710934
C           18.60477739815830        1.13319204705640       -0.20657197357808
C           17.91764261612544       -0.10165995743708        0.01474943404089
C           18.62904054818562       -1.31178541397981        0.23700221050702
C           18.09297366300185       -2.60391250408351        0.47430222478761
C           19.12827342679577       -3.48870998836392        0.63788095589943
C           20.34992371189723       -2.77697595462721        0.50762783919977
N           19.99729401617601       -1.46426950752224        0.26648857547354
C           21.63934857844607       -3.30963092936782        0.60557801532009
C           22.86762875226300       -2.66001663888272        0.48670709946407
C           24.16548277867131       -3.32588062154395        0.60847561593177
C           25.10309315700778       -2.37247400310022        0.43409444004588
C           24.38338234636801       -1.12491214862627        0.20592789359183
N           23.04831960751232       -1.34136915571541        0.24550553510701
H           26.08583842180073        0.10419315174151       -0.01883898684099
H           25.99087846719076        2.79604454981874       -0.51112484693857
H           24.00841015744691        4.55169548683309       -0.83214635898555
H           22.32455949736048        0.74212157657438       -0.13542344218535
H           21.31330187826135        4.37279258246230       -0.79953823984648
H           18.75688852658323        4.38754690804651       -0.80265794449443