676
 energy: -1307.756316533218 gnorm: 0.000756774226 xtb: 6.5.1 (b24c23e)
C          126.79836197000223       -0.23468911420697        0.05735639666633
C          127.41260872971634       -1.01202019768326       -0.91605713577698
C          126.76468574742316       -1.79794475319481       -1.91016253924928
C          127.72994046631840       -2.40775847506356       -2.66071571923440
C          128.99939987134303       -2.02503931227623       -2.14070121677588
N          128.75679692006679       -1.17454776499098       -1.09932252675588
C          130.26596810999541       -2.41571752449572       -2.59038812426676
C          130.31110857436218       -3.36818692434343       -3.72722933318861
C          130.95385900705065       -3.00017072027816       -4.91277622839534
C          130.99530180059458       -3.88781917932402       -5.98043176035969
O          131.60061694414563       -3.59439978383434       -7.17411985718370
C          130.40396022173624       -5.14396650387827       -5.87188959942344
O          130.43356960652849       -6.03929577647473       -6.90848420774508
C          129.76431721170195       -5.51380993243899       -4.68763502527130
O          129.19549768252685       -6.74013280332639       -4.59038708883875
C          129.71542787611699       -4.62522260022547       -3.61975335018056
C          131.47592270091954       -1.97436024799286       -2.04834255303060
C          132.77822477525558       -2.45934236424673       -2.46897897292091
C          133.69064189643618       -1.80039969709541       -1.72484961072039
N          131.61940983750702       -1.05536292110529       -1.05411041535829
C          132.94466728511927       -0.92002127583995       -0.84691078380474
C          133.57205348846131       -0.04467811363208        0.06264471507036
C          132.92981942463155        0.81288811232785        0.97530386561098
C          133.56707788317325        1.72254384864548        1.86040782013467
C          132.59683947769645        2.34869471273856        2.59237692367581
C          131.33610793591058        1.83173235386200        2.18346439718013
N          131.58913802091885        0.91662716064400        1.19550854883805
C          130.07245135031337        2.18504814472425        2.66828702663004
C          130.03174519883586        3.17415042988254        3.77297307500426
C          130.67267051683544        2.90332634217133        4.98256695537661
C          130.63350694360585        3.83157607441988        6.01634247623556
O          131.24705651176646        3.57460872952939        7.19717067504491
C          129.95832100453649        5.04049490720735        5.84022045308177
O          129.94074679645703        5.93848212416100        6.87478722928503
C          129.32142193227364        5.31223184058901        4.63195298338732
O          128.68408421005569        6.52107308018351        4.53160941177144
C          129.35232098687740        4.38330871179412        3.59948604053320
C          128.86249346670994        1.67308338345184        2.18619558606673
C          127.55705483100358        1.99351680216871        2.74200510125845
C          126.65174309923484        1.31593172077018        2.00744558671894
C          127.40327687668793        0.57366352156419        1.01099125169489
N          128.73129810219615        0.80473061253325        1.15555291990592
H          125.71342315059123       -0.26707767519147        0.06480395733079
H          125.69555558066733       -1.87259656797904       -2.02939063053243
H          127.58138985483329       -3.06118341314624       -3.50495028099479
H          129.48064715593929       -0.72981337140197       -0.54476506748732
H          131.40378947124748       -2.01903954976571       -5.00925460178177
H          131.98964550433197       -2.71020208009408       -7.15396353754071
H          130.91531472610021       -5.62890686116372       -7.64425287069661
H          129.33858265760037       -7.21025963491009       -5.42841794627354
H          129.23326463371649       -4.93103538136502       -2.70022513076563
H          132.94965367697776       -3.21506343356484       -3.21838361823895
H          134.76506351377961       -1.88965978004870       -1.74353441550063
H          134.63269827561251        1.87538178272482        1.91807633544547
H          132.73854672875615        3.10778722582147        3.34413175506095
H          130.87073288774340        0.39563913485273        0.70345577203415
H          131.18477797596498        1.96236462839764        5.13705271815277
H          131.10488821967058        4.33356543751315        7.78666267490364
H          129.43171074355112        6.71377512436484        6.58908509479000
H          128.26785704579800        6.61924196938360        3.66522247754610
H          128.86796370799806        4.60865912903254        2.65664488740223
H          127.38243517358096        2.63785567942806        3.58870389388583
H          125.57821336327137        1.29315005954545        2.11172821003720
C          277.57791089177385       -0.10019136554404        0.25880901402065
C          276.96334951953543        0.67805250627554        1.23128235649035
C          277.61111281836071        1.45468365905935        2.23277168454680
C          276.64582910906086        2.06364593783003        2.98399245143580
C          275.37620664866921        1.66848638616651        2.47381290814288
N          275.61917601393230        0.84319601494565        1.41241733995637
C          274.10972857213864        2.04574829283276        2.93484225212798
C          274.06494527986149        2.93762141849539        4.12004593089626
C          273.45576090910026        4.19177697680768        4.02124305229483
C          273.41344889243078        5.02832213609278        5.12940721296192
O          272.83942638629389        6.27232514854461        5.10602971820237
C          273.97081775950755        4.62004341830718        6.33851020052444
O          273.93912535599083        5.42435586156455        7.44733969022078
C          274.57747953290544        3.36701746934322        6.43910511344051
O          275.11348073038079        2.97718846413498        7.62142323422626
C          274.62710473148917        2.53024486068070        5.33022498340415
C          272.89992651580837        1.64278598021459        2.36347579508070
C          271.59523533606750        1.97810023845835        2.90526388060112
C          270.68408401271427        1.41144779327610        2.08736145957122
N          272.75848503829337        0.87249729017900        1.24979212881236
C          271.43295466640205        0.72447570709166        1.05309703636384
C          270.80746747160845        0.01836596382199        0.00572607240758
C          271.45013003903483       -0.70760903884058       -1.01429134478150
C          270.81399203390725       -1.37604258299358       -2.09398360121746
C          271.78476923451456       -1.95825369628894       -2.86051518019437
C          273.04474284866512       -1.67277747739295       -2.26467958868521
N          272.79058399257997       -0.90581055530669       -1.15798662399878
C          274.30902202425648       -2.06837006803601       -2.71368735506444
C          274.35268215356047       -2.91958401730931       -3.92786119443256
C          273.71336830899935       -4.15976145399418       -3.94178080518002
C          273.75451010417004       -4.95331674744849       -5.08224897133441
O          273.14234293644694       -6.16217636448679       -5.10316055319533
C          274.43015109110632       -4.50408660687193       -6.21809913237299
O          274.44935270773823       -5.30518017667970       -7.32935022581381
C          275.06588482775646       -3.26513297837912       -6.20510059196679
O          275.70411292180967       -2.88971812643667       -7.35812008649194
C          275.03308048532745       -2.47308016796073       -5.06430568645231
C          275.51771425326018       -1.71789656443725       -2.10155007205441
C          276.82276081582330       -2.19392508166091       -2.53285628378928
C          277.72646881075417       -1.64125737219836       -1.69850847070995
C          276.97438029083196       -0.83580198694439       -0.75281433242732
N          275.64760332202798       -0.91314658299904       -1.02036443970401
H          278.66217225159983       -0.12915898033771        0.30050462336820
H          278.68032099995776        1.53425705881813        2.34811431338926
H          276.79447637383345        2.73352904288253        3.81523123599600
H          274.89555592829367        0.41741636428653        0.84286012942626
H          273.03238567883665        4.52172203612805        3.07984742541959
H          272.47085736304172        6.46416198829875        4.23373286338224
H          273.48159988581875        6.24587729533469        7.20736575684010
H          274.97473713693421        3.68839703106788        8.26847801280747
H          275.08321952713823        1.55335751645134        5.42599458642204
H          271.42080001377241        2.55280714381492        3.80044632206222
H          269.60854197232590        1.43337717921664        2.16090211121573
H          269.74879716399914       -1.39637692382963       -2.25879104060679
H          271.64392291879886       -2.52861812148589       -3.76396938474225
H          273.50840867008594       -0.53867340401283       -0.54186987072199
H          273.20073596481939       -4.52629328637348       -3.06180019221166
H          273.28377102239989       -6.56123161506751       -5.97751460498191
H          274.95685625302065       -4.84804451950952       -8.01874605768574
H          276.11759178416565       -2.02257812723681       -7.25519415655756
H          275.51665048565764       -1.50327445987165       -5.06697286081811
H          276.99789180847466       -2.87126203900739       -3.35330004953091
H          278.79918904729914       -1.75574510287272       -1.69300947900209
C          138.77361933968081        0.04135447526139        0.06648083993432
C          137.54547815554579        0.02908819534106        0.06939595606228
C          136.20128463537134        0.01001993630867        0.06941357745444
C          134.97775790617783       -0.01456929566782        0.06748407358722
C          140.11777554277194        0.04711800737932        0.06163971239778
C          141.34167297433990        0.05166789119594        0.05361205901597
C          154.78489584760590        0.00582860329826       -0.01434265059507
C          153.55604892786633        0.00846028288671       -0.01326043681242
C          152.21332156040597        0.01461358670676       -0.01143295852085
C          150.98890399362060        0.01710955551539       -0.00926477131718
C          156.12759936038526        0.00171591071153       -0.01413849436409
C          157.35209290539314        0.00237893650340       -0.01361696122519
C          170.79121812959588        0.00738436147907       -0.00647944961265
C          169.56236693840208        0.00733351097209       -0.00738290085953
C          168.21975655877355        0.00754375490504       -0.00888114628109
C          166.99525884341696        0.00480555819925       -0.01033564256244
C          172.13387414808093        0.00680487341458       -0.00621135858353
C          173.35845265104979        0.00973084926787       -0.00721245556319
C          186.79862730238548        0.01078092128446       -0.02182613317939
C          185.56975743200331        0.01250522712992       -0.02376652550917
C          184.22709299850038        0.01299064191973       -0.02210004488508
C          183.00258340993992        0.01005493276554       -0.02182295145897
C          188.14126206061914        0.00904989147134       -0.02056877226749
C          189.36578069660686        0.01057456871865       -0.02046163333690
C          202.80565298115579        0.00850944830258       -0.02894451613979
C          201.57674138096689        0.01216565557103       -0.02848481013283
C          200.23405108255460        0.01384466644398       -0.03005571113304
C          199.00955453945181        0.01022317644755       -0.02789951293867
C          204.14831063491366        0.00756731572725       -0.02725478811312
C          205.37283128761342        0.01030788107329       -0.02737439425061
C          218.81272398281314        0.01011093827262       -0.02018565755238
C          217.58380959877201        0.01057796280043       -0.02076619121152
C          216.24112304568911        0.01154792691069       -0.02066596415885
C          215.01663068938308        0.00989255243959       -0.02078510857709
C          220.15539253742915        0.00801209434832       -0.02037838627398
C          221.37990879492537        0.00925061559631       -0.02050567404744
C          234.82016236431113        0.00456544543194       -0.01300178797339
C          233.59134165003815        0.00461356409673       -0.01517796101158
C          232.24869989747958        0.00831380385992       -0.01627477706483
C          231.02417475629522        0.00753492322300       -0.01904641520414
C          236.16276550332009        0.00498604635194       -0.01031985606395
C          237.38725985480065        0.00670041090430       -0.00934270816335
C          250.82608311794624        0.02410964507657       -0.00152344906948
C          249.59725718817128        0.02120614388577        0.00698933227742
C          248.25459243230924        0.01565318730408        0.01585959544696
C          247.03010686303222        0.00969160749912        0.01790420097353
C          252.16873989171523        0.02647175770133       -0.01437663642875
C          253.39309611610747        0.03484268644902       -0.02848771837288
C          266.83438158785424        0.05446054069489       -0.08891059355879
C          265.60636739553644        0.06233181613075       -0.10289052413702
C          264.26208674570029        0.06670988443289       -0.11145033864445
C          263.03823166747162        0.06611444796910       -0.11444397042877
C          268.17861136086464        0.04413342860873       -0.06500363608053
C          269.40187085296992        0.03342754004925       -0.03519220407916
C          142.74679860175848        0.04758539764683        0.04399044424533
C          143.36458031443911       -1.21776563652249        0.01687847761338
C          142.70478428711942       -2.47349581230039        0.03899847714391
C          143.66029296652974       -3.45193922964811       -0.00741288864261
C          144.93176815336696       -2.82033063787681       -0.06979151070359
N          144.70247405594176       -1.47044634884591       -0.04273718800213
C          146.18656752016423       -3.43996680389941       -0.13027614883710
C          146.19260343701447       -4.92271087487547       -0.18602063990133
C          146.81803705532789       -5.66050246724251        0.81976844754314
C          146.82978551685108       -7.05218427489735        0.78603915478486
O          147.42664419522282       -7.78097855352996        1.76456153569361
C          146.21533364736936       -7.72551381999866       -0.27491216101380
O          146.21476296322126       -9.08195461446136       -0.33938580874337
C          145.59491848046579       -6.97956106313823       -1.28063973479064
O          145.01686129942260       -7.70017446564895       -2.29375008903554
C          145.57258958154100       -5.59230857609510       -1.24279719975901
C          147.41339913749607       -2.77456850677013       -0.14143757446658
C          148.69626519158572       -3.44096859646267       -0.27464971900680
C          149.63568962843223       -2.47323400357713       -0.23776708794949
N          147.59417343362304       -1.42756831559512       -0.04823376188091
C          148.92476056024293       -1.21851461788688       -0.09228576121130
C          149.58536558834206        0.02396509963966       -0.00321111539078
C          148.96823762541032        1.28625514245823        0.09370296782209
C          149.62925839364510        2.53565790414841        0.21781837358081
C          148.67417788108014        3.51369274174161        0.26974071154196
C          147.40124639924457        2.88916931024316        0.16873217648850
N          147.63017842018249        1.54194669297122        0.07484280166740
C          146.14657233678182        3.51014760702097        0.17960981591307
C          146.14155247412273        4.99268421112248        0.25559473765524
C          146.74844181216284        5.74945799480179       -0.74715300290878
C          146.74133060414698        7.13754238648530       -0.67419504545373
O          147.32117004443097        7.88172329481668       -1.64705943118856
C          146.13361514139962        7.77385289859944        0.40939297611330
O          146.14644635420532        9.14285381011161        0.45703070595479
C          145.53150070235617        7.01807181350309        1.41226525881649
O          144.96031869894355        7.71261711445118        2.44576318308475
C          145.52985216015978        5.63082115028214        1.33811006557716
C          144.91862508559424        2.84739154178432        0.12656054417485
C          143.63462640200899        3.52263803562172        0.07104745528660
C          142.69465607496289        2.55524125184711        0.03681692968930
C          143.40604314252164        1.29272849582519        0.06074046844445
N          144.73817088821514        1.49815972662131        0.10413013978465
H          141.63591321653942       -2.60335155067720        0.09156338052646
H          143.49978618960097       -4.51752487944476        0.01064992999467
H          145.43132013518940       -0.76476504884336       -0.05497197415262
H          147.28618752164186       -5.14888237533411        1.65311027838932
H          147.81795479313766       -7.20820324440486        2.43712509903000
H          145.74343191902329       -9.34765363200890       -1.14544417999283
H          144.61927326346142       -7.11408245498365       -2.95062429139168
H          145.09811470704216       -5.03707214647415       -2.04341922449669
H          148.83725960933879       -4.50278437490523       -0.39547215667441
H          150.70704173632004       -2.57192022592239       -0.30931057007424
H          150.69890330278284        2.66069679006899        0.26612101942812
H          148.83547515281592        4.57383600304825        0.37664876098480
H          146.90107722567640        0.83974135875504        0.00738827810558
H          147.20868264561750        5.26767465619097       -1.60013478064859
H          147.21022742322330        8.81999661047785       -1.42100645414314
H          145.68372658148019        9.41844368624664        1.26436972012624
H          144.56218714910904        7.10955570164025        3.08715183017024
H          145.07189713924430        5.04868767968811        2.12907420767455
H          143.49302477615552        4.59096379492407        0.04523307309449
H          141.62247346626418        2.65946023274255       -0.01041273523661
C          158.75553822739050        0.00137661793338       -0.01257506587120
C          159.37843327509839       -1.26228496505858       -0.00680577785700
C          158.72331621417655       -2.51960483681062        0.03734377641598
C          159.68282701709995       -3.49515262025887        0.01141448041567
C          160.95181245376821       -2.85984542667161       -0.06000335206227
N          160.71717270816742       -1.51048850370025       -0.05711224843467
C          162.20931953836441       -3.47492994158718       -0.11084293532424
C          162.22123644892653       -4.95801618507671       -0.14812551917454
C          162.85219283104055       -5.68118316638357        0.86483550612295
C          162.86813289303950       -7.07313352943435        0.84849526234250
O          163.46990394811039       -7.78777825012035        1.83440243437324
C          162.25261013113175       -7.76165607287637       -0.20207034539414
O          162.25589774016788       -9.11867842307679       -0.24935791191771
C          161.62694177352890       -7.03029636087673       -1.21532257454081
O          161.04828904761797       -7.76538997477233       -2.21743277109664
C          161.60024684947084       -5.64279986223098       -1.19464437438806
C          163.43308520451728       -2.80395751379499       -0.12950480627498
C          164.71914876809441       -3.46544877414725       -0.25491000128429
C          165.65398292257348       -2.49295081346566       -0.22595279120367
N          163.60734489061812       -1.45520798915412       -0.04947985246536
C          164.93705762837368       -1.24032053647035       -0.09300865238422
C          165.59185301160542        0.00579695585889       -0.01099550510794
C          164.96923354606656        1.26653703344704        0.07333031458871
C          165.62465088002270        2.51894331397158        0.19575989478112
C          164.66563503817841        3.49403240386831        0.23237392009143
C          163.39621433301917        2.86444694535846        0.12230710707217
N          163.63056218269563        1.51744589778942        0.04011200105568
C          162.13884782878245        3.48062742747181        0.11221802222067
C          162.12519519216571        4.96340368194742        0.17797640254105
C          162.74585658693272        5.71791791077375       -0.81801553954455
C          162.72875112901369        7.10637334852497       -0.75366119841371
O          163.32174065307379        7.84823610328596       -1.72019664355205
C          162.09706108732317        7.74543741366886        0.31453215736370
O          162.10030345937815        9.11465848249970        0.35379937049571
C          161.48111386734610        6.99194619945512        1.31071523092963
O          160.88625973500532        7.68900566470828        2.32906495448446
C          161.48955892125468        5.60434972048750        1.24506672656136
C          160.91501681517389        2.81202407448991        0.04783480222990
C          159.62925292918766        3.48057606283027       -0.03695131353858
C          158.69405079314947        2.50851572954634       -0.07085502587879
C          159.41046105968087        1.24982995672540       -0.01623957457219
N          160.74039177894971        1.46127469923908        0.04215363061758
H          157.65477145987344       -2.65250595953052        0.08921555363296
H          159.52628752434694       -4.56082169502779        0.04888350500606
H          161.44334872516407       -0.80235136394191       -0.08106754205486
H          163.32094449340718       -5.15773607239624        1.69045993985880
H          163.86148011813501       -7.20546168575833        2.49856998235580
H          161.78282754163681       -9.39609154498798       -1.05046761651938
H          160.64659425810012       -7.18916797900721       -2.88054682612591
H          161.12171089033623       -5.09910625229787       -2.00074351922631
H          164.86522536064069       -4.52764366398027       -0.36575604366806
H          166.72586729442531       -2.58726733415900       -0.29529749417331
H          166.69331984754609        2.64814622882572        0.25366854110359
H          164.82228473731143        4.55536819554028        0.33421712207419
H          162.90436270651398        0.81244544391841       -0.02974525577597
H          163.22411224661002        5.23409002365309       -1.65984848721528
H          163.19976101977244        8.78720373747482       -1.50284791133750
H          161.61965259060250        9.39240991958671        1.14983861635214
H          160.47792674692064        7.08732352838727        2.96529137357467
H          161.02048707608412        5.02410088775314        2.03089039798644
H          159.48348380482918        4.54772497183546       -0.08150798091686
H          157.62229780259293        2.60740490238969       -0.13568025040597
C          174.76183439159496        0.00868936561140       -0.00837943925863
C          175.38461699609098       -1.25503976774041       -0.00341737655326
C          174.72953542827511       -2.51230843158723        0.04245300642636
C          175.68894201740412       -3.48787238768135        0.01442267886938
C          176.95780932375939       -2.85265163151725       -0.06014140696635
N          176.72321581535880       -1.50327608390255       -0.05670958907165
C          178.21510120629083       -3.46788917720951       -0.11439281709811
C          178.22643669960325       -4.95090869356195       -0.15178934206391
C          178.86139360057166       -5.67422823603776        0.85857527783126
C          178.87627615998431       -7.06618781179447        0.84259988778250
O          179.48198252187359       -7.78092520845874        1.82602792652184
C          178.25534952679965       -7.75460778728934       -0.20485531372584
O          178.25712011243658       -9.11163057201390       -0.25150586260068
C          177.62572452078413       -7.02311562655808       -1.21557768941208
O          177.04178725239819       -7.75811384986369       -2.21465484655328
C          177.60037997776652       -5.63559296875241       -1.19538016142619
C          179.43904472072253       -2.79720176234202       -0.13599616637858
C          180.72452999664480       -3.45902442133201       -0.26542089918720
C          181.65980929469464       -2.48688761797194       -0.23773706883180
N          179.61399447102247       -1.44861157126687       -0.05519434653749
C          180.94371136752318       -1.23416096903783       -0.10170389125892
C          181.59914212764784        0.01162704110871       -0.01972877874234
C          180.97684493117563        1.27236320491389        0.06699042416352
C          181.63243426072239        2.52465081675362        0.18934613281222
C          180.67344622635824        3.49973109515122        0.22784561741989
C          179.40388516081427        2.87020620546999        0.11912648830031
N          179.63810633754446        1.52327409634870        0.03592000045654
C          178.14655350134126        3.48659689068382        0.11048871209543
C          178.13309116482816        4.96939609101707        0.17599209522721
C          178.75219681249695        5.72366064946956       -0.82112905018820
C          178.73442627066783        7.11214126615570       -0.75752236131563
O          179.32570816626398        7.85375135136091       -1.72528001309139
C          178.10371506685209        7.75145066495667        0.31111169683706
O          178.10609265372648        9.12067525836730        0.34951763098795
C          177.48953552684119        6.99818436350437        1.30855132454997
O          176.89569072326907        7.69545245026250        2.32733304524876
C          177.49857979393676        5.61055307611611        1.24360961969306
C          176.92246340109722        2.81844907621788        0.04752413903267
C          175.63684165801803        3.48747770011997       -0.03600904975546
C          174.70119046757739        2.51583718963011       -0.06813103890529
C          175.41716804260062        1.25690280487571       -0.01380781305250
N          176.74723746692138        1.46775572583997        0.04268952267254
H          173.66111636186480       -2.64521453259785        0.09676546587457
H          175.53233583754704       -4.55350255747487        0.05247084980765
H          177.44923732556600       -0.79504571484790       -0.08242376498760
H          179.33406103665470       -5.15087754204345        1.68202628796385
H          179.87762097989946       -7.19866351732890        2.48781381289759
H          177.77996200936386       -9.38899508589123       -1.05020590328950
H          176.63670848333339       -7.18188109585863       -2.87567435360537
H          177.11879004247044       -5.09182413805976       -1.99961980878128
H          180.86993584242489       -4.52114197486011       -0.37796311208803
H          182.73146292012126       -2.58152184101036       -0.30988018268436
H          182.70117011577733        2.65382077432384        0.24588353075644
H          180.83019852558917        4.56101051798538        0.33008569683424
H          178.91193364753150        0.81819465291170       -0.03344380683049
H          179.22963723007180        5.23959516518838       -1.66328654601949
H          179.20325524708616        8.79279446300175       -1.50849673034261
H          177.62609703256373        9.39861573690149        1.14588307260182
H          176.48863629551548        7.09388278339388        2.96448295468735
H          177.03071582441356        5.03043839594953        2.03025454010523
H          175.49147957088809        4.55462348609788       -0.08100102115545
H          173.62939634727465        2.61508449920563       -0.13170175948529
C          190.76917094961499        0.00953914683026       -0.01945199279235
C          191.39182667545035       -1.25428190364446       -0.01347027393571
C          190.73651184344942       -2.51143677385046        0.03276656749773
C          191.69580283812533       -3.48718861818357        0.00675292074371
C          192.96482323827138       -2.85222810530107       -0.06739556393842
N          192.73041600587248       -1.50278221331736       -0.06532873904983
C          194.22205583060438       -3.46757647394270       -0.12104011350341
C          194.23366869670181       -4.95062651955881       -0.15727781407130
C          194.86908163414245       -5.67290852155825        0.85356682735947
C          194.88443628008844       -7.06487001389024        0.83875676839108
O          195.49056452857559       -7.77861254746464        1.82264633700537
C          194.26363217740834       -7.75437390616394       -0.20806268200239
O          194.26598280011976       -9.11142665125634       -0.25365313719877
C          193.63362936896942       -7.02393503927040       -1.21931053848813
O          193.04996151858322       -7.75998749430294       -2.21777951969479
C          193.60769424444109       -5.63640032117065       -1.20018700403818
C          195.44599036915309       -2.79683489195302       -0.14336396884568