122
 energy: -210.663717508698 gnorm: 0.000654627087 xtb: 6.5.1 (b24c23e)
C           12.27050918320961        0.13120339210377        0.06874474495392
C           12.87838412531899        1.37890506960693        0.01992676884385
C           12.22563264505001        2.64354128634526        0.00662635373497
C           13.18599543015360        3.61234415984602       -0.06970605509342
C           14.45670459341743        2.97007993276059       -0.11360476890127
N           14.22061257331859        1.62669251966726       -0.04518607256344
C           15.71854497531526        3.57151174515685       -0.18751651708372
C           15.74193397163134        5.04971392277599       -0.29537890035870
C           16.37025226474277        5.82477799128822        0.68224943069509
C           16.38558413727172        7.20459266180795        0.58556061532520
C           15.77336371127523        7.83843740554742       -0.49973172695105
C           15.78670420692766        9.25817340333506       -0.60306185192306
N           15.79585565710259       10.40591092348153       -0.68679165949654
C           15.14613269917339        7.06740378205422       -1.48289167341679
C           15.13008722356340        5.68838520726684       -1.37685308070808
C           16.93658835309723        2.88697217363846       -0.16968863554160
C           18.23186695651331        3.53001763237960       -0.30008531333594
C           19.15470591897714        2.54842087229451       -0.22893898655419
N           17.09395611326494        1.54032695189292       -0.04727793737625
C           18.42186930637184        1.30730592809156       -0.06918446238628
C           19.06113339791414        0.05622732112739        0.04598908150675
C           18.42685723323502       -1.19712918434554        0.14063146227752
C           19.07265313931321       -2.45594159168097        0.26194716256142
C           18.10747302850680       -3.42409133772740        0.29353163477221
C           16.84138857729513       -2.78471266017478        0.18589494349891
N           17.08600859472723       -1.43951261303927        0.10653537175997
C           15.58010862638571       -3.39092431523932        0.18961729551343
C           15.55202812591929       -4.87157290762129        0.23891167398607
C           14.92771042589501       -5.53601483537229        1.29746184188350
C           14.89764464870795       -6.91820267542207        1.34257150691602
C           15.49042639887929       -7.66621661183496        0.32090577084007
C           15.45697071008296       -9.08870791543565        0.36083978308898
N           15.42931576598752      -10.23871107679983        0.39102376806049
C           16.11623838392477       -7.00645781397198       -0.74108271454821
C           16.14762728972621       -5.62407625850139       -0.77655299354553
C           14.36134025878366       -2.70527744005680        0.14826977700912
C           13.05793867421527       -3.35078592197918        0.10954003346038
C           12.14249839496028       -2.36161977595082        0.08442150437694
C           12.88537533469106       -1.11355512096042        0.09144588886539
N           14.21824072737117       -1.35924938637855        0.12131324408942
H           11.18531913444399        0.13934922021971        0.08248052126832
H           11.15719542283054        2.78061524027730        0.05475282392677
H           13.03370546585613        4.67934491965280       -0.08401566543814
H           14.94628020855916        0.91779293934985       -0.04191273888085
H           16.83420927908413        5.33805064290014        1.53259636491222
H           16.86958472617668        7.79934994423569        1.35129488506995
H           14.67375656965890        7.55473779899430       -2.32781487904972
H           14.65411327687319        5.09381554245214       -2.14862731089243
H           18.39180660026843        4.58666173909796       -0.44090338234260
H           20.22841445467357        2.62880403067878       -0.28694042094843
H           20.14027637112516       -2.59324245582060        0.32096655673662
H           18.25604245492748       -4.48679698746599        0.39403450956049
H           16.36304308004014       -0.73089358753460        0.03758674169801
H           14.47813207004693       -4.95999500378148        2.09834123072520
H           14.41592422014821       -7.42617279565115        2.16984442440886
H           16.57373341522823       -7.58273663161006       -1.53674933191197
H           16.62113081080609       -5.11665726699397       -1.60958991964757
H           12.89087892270717       -4.41567055758346        0.09122153362311
H           11.06694090020480       -2.43716940812086        0.05230137541317
C           32.45768547384878       -0.10375769877555        0.10411322724525
C           31.85072941250089       -1.31705911506750        0.40102696486332
C           32.50432325296098       -2.53613962108064        0.73607102890042
C           31.54452161878330       -3.48871898385878        0.93124132129936
C           30.27332867697932       -2.88379418465801        0.71389459359555
N           30.50859417445275       -1.57367565625437        0.40834739839773
C           29.01177003568256       -3.48224068459652        0.81218927157749
C           28.98907938087281       -4.93249768084216        1.11831974621874
C           28.36529435677338       -5.40593751938338        2.27502564807226
C           28.34998353659363       -6.75860911632504        2.56421141976484
C           28.95788205391620       -7.66872322068300        1.69428246959407
C           28.94386687553497       -9.06162183553517        1.98764782780022
N           28.93525638075656      -10.18758069885572        2.22522582264334
C           29.58072215017189       -7.20059808574685        0.53350491831906
C           29.59678930079556       -5.84611266704737        0.25352733220432
C           27.79322798773164       -2.81996516178262        0.64199268045737
C           26.49824662146818       -3.47428380511081        0.69862403373492
C           25.57471692587684       -2.51217238200524        0.49461072160946
N           27.63492255661085       -1.49262649786369        0.38446464427518
C           26.30679021719730       -1.27556193461064        0.30012014099944
C           25.66674096027187       -0.04254419676442        0.06090403389250
C           26.30010160081131        1.18792524327479       -0.19809584873001
C           25.65350679445259        2.42994824945917       -0.43411082169533
C           26.61813695254479        3.36926657471289       -0.67285863485322
C           27.88474711580068        2.72651724475160       -0.59549091948378
N           27.64090748375309        1.41240889321913       -0.29657739014105
C           29.14570788402640        3.31109029343533       -0.75816993829093
C           29.17287370077896        4.74695723145781       -1.12327976425765
C           29.79226881615698        5.68121873945926       -0.28945945964104
C           29.82153825217023        7.02123375810284       -0.63154545140221
C           29.23295467783092        7.45359935983409       -1.82381120562534
C           29.26501436043005        8.83060158518764       -2.18306268299046
N           29.29417154243374        9.94447521523009       -2.47051909343347
C           28.61203519179016        6.52282927633328       -2.66209246310065
C           28.58130145925604        5.18541341321541       -2.31065515380450
C           30.36493488498505        2.64241008003911       -0.60491514442635
C           31.66801132301663        3.25356385398079       -0.81814935444607
C           32.58408089452162        2.29698330534635       -0.56742403073513
C           31.84192576611354        1.09855256846204       -0.21728963243086
N           30.50887890320530        1.34157908147877       -0.25829437212039
H           33.54287766038009       -0.10692072431571        0.11959107536250
H           33.57292165931809       -2.65431387440524        0.81857641683709
H           31.69749395294345       -4.51830297345877        1.21135268806956
H           29.78243937872979       -0.89164388775327        0.21682287652936
H           27.90477606716725       -4.70235384102744        2.95927295084492
H           27.86932095237447       -7.11766658084979        3.46665933095192
H           30.04918905404513       -7.90321830715498       -0.14559868843290
H           30.06934888636966       -5.48884995385275       -0.65459868057196
H           26.33897399226149       -4.52829187080842        0.85871852393600
H           24.50097781253796       -2.60584283765683        0.46332981794300
H           24.58571179840252        2.57727359038558       -0.41738047646788
H           26.46888327188488        4.41757209923921       -0.87365345661491
H           28.36427238597700        0.71327897870985       -0.16410825650581
H           30.23864154683333        5.35206386503548        0.64206980091341
H           30.29935419917880        7.74056764747451        0.02324391289074
H           28.15779319889149        6.85360046526045       -3.58877202301260
H           28.11150491275832        4.46506053441626       -2.97095424189677
H           31.83443066465451        4.27220577585098       -1.12941399557350
H           33.65965259326484        2.36193256001048       -0.61717468477712
C           21.68928191639297        0.01733911140731        0.06643409434689
C           20.46730110957809        0.04114840272289        0.05734265373630
C           23.03867745505101       -0.00105611821737        0.06870711480155
C           24.26066381165250       -0.02571244464866        0.06732573669159
