231
 energy: -412.071052740096 gnorm: 0.000554700126 xtb: 6.5.1 (b24c23e)
Ni          26.05336168444589        0.15373626260052       -0.13049708002898
C           22.67928740229912        0.44047455506346       -0.39213295480948
C           23.31891180505650        1.19078888016992        0.57254859591651
C           22.63068264829739        2.05069246691444        1.48687635756241
C           23.57238972283017        2.58823835882802        2.29654847286671
C           24.83757457073830        2.07632816253364        1.85910492766234
N           24.66996271747655        1.20614014236467        0.81106462966088
C           26.05388958559106        2.45346817991678        2.40966756359071
C           27.27056037110121        1.98909394295293        1.93418637921328
C           28.53521086884279        2.45342648214957        2.41749264823877
C           29.48799226343456        1.81356913840114        1.69882340839136
N           27.44822400726480        1.06858245860127        0.92567707675534
C           28.80344671904415        0.95085868613909        0.78828685712335
C           29.46777125940633        0.07558339668824       -0.07539847388285
C           28.79154651123338       -0.81903285182093       -0.90974490574140
C           29.46254035067478       -1.79144264818157       -1.71359654199225
C           28.50004897962041       -2.49508754636993       -2.35547203803115
C           27.24411378774779       -1.93410268956688       -1.95997745117889
C           26.02345821501177       -2.35677494882367       -2.46190673422415
C           26.00080065293669       -3.47354963657283       -3.44738539094410
C           26.47573484130604       -3.28230692918226       -4.75136275046294
O           26.94021181541635       -2.03742821678063       -5.03682516726180
C           27.44484745132731       -1.73833404468417       -6.32268962426892
C           26.44565080700431       -4.32920609075644       -5.67215877542754
C           25.94451574113908       -5.56239876200296       -5.28344670655686
C           25.46965036876162       -5.77474871250067       -3.99799386463301
C           25.49478348505454       -4.72665811953534       -3.07839007704035
O           25.05620632625616       -4.83420470296582       -1.79666322225638
C           24.54305861819874       -6.06009982630443       -1.31588433170495
C           24.81942988251689       -1.76246141376735       -2.11199423989956
C           23.56171038011867       -2.11097398855331       -2.70409284255698
C           22.62975937181608       -1.30066600344603       -2.15049971459036
C           23.31706050494346       -0.46887362688328       -1.20981468384834
N           24.66046308925853       -0.74895187375189       -1.20122672483975
N           27.43578264422864       -0.91202696663033       -1.05657482706598
C           26.05844484243716        3.42897471727914        3.53520862936509
C           26.41014559190514        3.01417041546297        4.82632955140967
O           26.72312926100499        1.69888754198974        4.96136692199271
C           27.10186200407377        1.17817284678936        6.21946007274807
C           26.41580200031880        3.92550878779964        5.88189654985313
C           26.07632505351616        5.24798973462583        5.63996801876533
C           25.72968152195427        5.68213289082021        4.36942303016246
C           25.71899336950628        4.77016599811460        3.31458935218364
O           25.40072214373139        5.09878878492105        2.03467585120864
C           25.05846374972387        6.42849736818176        1.70025423259960
H           21.60472301097310        0.54524462229829       -0.48853549436895
H           21.56245694053539        2.19987571817621        1.49856399823762
H           23.43883399642651        3.27791384780375        3.11407746890279
H           28.66352394821207        3.18295508187381        3.20046599654644
H           30.56025063970377        1.90042841471269        1.77074451609831
H           30.53277585571062       -1.91346512090281       -1.76025644091877
H           28.61722273073437       -3.31560417719289       -3.04427658134063
H           26.67574055464185       -1.86182528552233       -7.09482407903490
H           27.75609267875301       -0.69256126070354       -6.29080862827258
H           28.31072099636259       -2.36437628217356       -6.57006600500292
H           26.80656519515743       -4.19172143798615       -6.68263593676133
H           25.92284019275639       -6.37677852132020       -5.99930145425330
H           25.08465453419595       -6.74748222518030       -3.72267301308746
H           24.27091661893837       -5.88714028410909       -0.27300898672225
H           23.65099286480408       -6.36902779651591       -1.87427225718528
H           25.29507871171098       -6.85693906055345       -1.36447626159265
H           23.42728012713853       -2.87440520635076       -3.45329105258225
H           21.56881790337664       -1.25987160322804       -2.34069752861210
H           27.30891821676691        0.11850976220263        6.05939415716131
H           26.29559984217789        1.28032095120169        6.95587765283490
H           28.00575975840903        1.66809246589122        6.60127830227346
H           26.68125160484592        3.61499585388542        6.88354196880672
H           26.08258656585035        5.95703782487471        6.46050637354342
H           25.47195947159714        6.72048408651381        4.20959064927563
H           25.88287250156840        7.12044590007415        1.91074959089848
H           24.85497081803532        6.42889058190826        0.62781515581059
H           24.16115326026928        6.75969752002485        2.23692170471371
Ni          63.20387855892304        0.08408565611828       -0.14532618204765
C           66.57776356884763        0.40121674770933       -0.37102126214440
C           65.94827084700762       -0.45419760579171       -1.25122411088825
C           66.64628351655396       -1.23734126790899       -2.22505008525485
C           65.70953550521993       -1.95068419817079       -2.89217765566278
C           64.43816474801949       -1.58433701487679       -2.34135087157220
N           64.59692832542150       -0.68161831531217       -1.31972515470313
C           63.22484642893190       -2.05379620454855       -2.82358734791552
C           62.00378401734833       -1.65150522425341       -2.30467696661953
C           60.74323420251101       -2.04419860132926       -2.85704257075900
C           59.78485205402178       -1.45056165175545       -2.10675715525344
N           61.81814996153243       -0.81749300090730       -1.22478019122784
C           60.46196492597653       -0.70665104231107       -1.09192454889261
C           59.79068709161089       -0.02388669143206       -0.07362467893049
C           60.46072698098317        0.64719449407249        0.95358495947553
C           59.78483428444906        1.26198337582986        2.05219535236608
C           60.74143585291701        1.80940553152938        2.83890656564221
C           61.99796803365549        1.54556998614656        2.20658791841989
C           63.21026020743814        2.01878779229806        2.68291602525413
C           63.22093924741282        2.83828502191308        3.92670649455928
C           62.70358864979551        4.14026118601048        3.92367341277946
O           62.21139687338638        4.58003895078644        2.73582902124873
C           61.66384405425993        5.87816019646464        2.62334895552777
C           62.72227249482723        4.90796945146627        5.08770943806134
C           63.25420808130627        4.36875297412621        6.24927616804198
C           63.77070016604240        3.08209672278080        6.27592309453680
C           63.75702609091192        2.31586271912955        5.11079211785070
O           64.23530178519628        1.04608257674994        5.03496018774678
C           64.78274949658879        0.41793562876379        6.17644062846152
C           64.41501505774129        1.78937622415358        2.03383705416559
C           65.66366995767370        2.35178737955255        2.45609662997334
C           66.60284334282574        1.92282748876662        1.58109815667116
C           65.92846703161958        1.08958028061319        0.63237368508113
N           64.58522047605894        1.02654386617529        0.90637652535720
N           61.81379399226489        0.80983213514246        1.05661483921254
C           63.23023462630590       -3.00294558575512       -3.97129513676654
C           62.85401478099580       -4.33954154598850       -3.78421249997440
O           62.50760336564687       -4.68611439374702       -2.51694334120047
C           62.10029917096741       -6.00688215134806       -2.22159444161773
C           62.85922567925846       -5.22975223187731       -4.85767406207534
C           63.23400195410667       -4.77793069942686       -6.11385724222703
C           63.60524527786389       -3.45845656320882       -6.32368363669603
C           63.60511961862552       -2.56911797655071       -5.24967965168213
O           63.94515379499808       -1.25735709575583       -5.35520915313573
C           64.32966338423975       -0.71490994732832       -6.60215674632801
H           67.65259454291385        0.51510039757362       -0.45306897283643
H           67.71671013509027       -1.23415445881300       -2.35790553250101
H           65.85044068602691       -2.65739906875672       -3.69374221020282
H           60.62117218862292       -2.68693744557435       -3.71360366683638
H           58.71330653803995       -1.50737282566598       -2.21163105213319
H           58.71580493254799        1.25868289306347        2.19227314053129
H           60.61975875753293        2.35336574676030        3.76126773142294
H           62.41125376305145        6.64991727862057        2.84405786793784
H           61.33767161448529        5.98107157874839        1.58675431407979
H           60.80067212814446        6.00898163804290        3.28715086887835
H           62.32894884683206        5.91566050435202        5.09574738968491
H           63.26717624048921        4.96548489078168        7.15474072114904
H           64.17881989471140        2.68739881630783        7.19672324638777
H           65.08383031124627       -0.58175126501839        5.85781236598240
H           65.66219862963501        0.95718308905807        6.54897926459655
H           64.04265695771998        0.33177372750961        6.98123214550264
H           65.78801365613084        2.99564353773816        3.31176709710928
H           67.66084365015303        2.13229822208407        1.56653303293540
H           61.86853169136378       -6.02161944468593       -1.15509417661254
H           62.89967763694351       -6.72927600967745       -2.42639592843182
H           61.20440136324286       -6.28711715813904       -2.78876670875342
H           62.57524760397522       -6.26486577476806       -4.72330989104269
H           63.23628461835096       -5.46989623033328       -6.94886593471564
H           63.89019000414875       -3.13309179348949       -7.31517077509213
H           63.52274774804509       -0.79406209279802       -7.34065222295814
H           64.54722921058176        0.33921296011193       -6.42038524845802
H           65.22889866846556       -1.20566432479195       -6.99374113999472
C           30.87286718944359        0.06356100192409       -0.07292679050551
C           32.09703789638014        0.05152998610503       -0.06815044393265
C           33.44046375347893        0.03497181652886       -0.05893203558255
C           34.67051351713162        0.01625512740602       -0.04529705045309
C           36.00903283146439       -0.00372887053559       -0.03042365887373
C           37.23933671759875       -0.02195888965804       -0.01620114644084
C           38.58261518298219       -0.03568043658689       -0.00380739709553
C           39.80693144810346       -0.04484307942602        0.00664007386528
C           49.45215718672312       -0.07523341267805        0.02799332263979
C           50.67670424494425       -0.07517133837527        0.02238593806514
C           52.01965963078324       -0.07363566591783        0.01197114731957
C           53.25017630021684       -0.07040735726443       -0.00303607236735
C           54.58842110626802       -0.06472899201776       -0.01821337596451
C           55.81883669020387       -0.05749677756296       -0.03407575908549
C           57.16188376981570       -0.04783926673307       -0.04846220379502
C           58.38623138449515       -0.04033804042002       -0.06195165615913
Ni          44.62983495682238       -0.04136695603840        0.01897558742489
C           41.21131016188106       -0.04675471510233        0.01102441833696
C           41.88146518141266       -0.18688991511523        1.22995217922936
C           41.20725754945257       -0.35756351865755        2.47779824937029
C           42.16120420365446       -0.33928872596861        3.43957839525294
C           43.41441892998167       -0.15355580569679        2.77502118953410
N           43.23349765184992       -0.09633099187315        1.41164810330032
C           44.62184762139784        0.00662541717726        3.43833982104960
C           45.83357724622327        0.13837285711427        2.77710199331287
C           47.08547698847951        0.33178861452146        3.44187829477491
C           48.04440476555384        0.30639585674384        2.48520474157975
N           46.02068948317618        0.03562829045294        1.41700172538231
C           47.37423514506979        0.10609550966885        1.23966331198183
C           48.04827170894923       -0.06809018823068        0.02701913916186
C           47.37668417046982       -0.22545711144989       -1.18938308202402
C           48.04955666188862       -0.42005222683616       -2.43440401670887
C           47.09596644006272       -0.40746316001833       -3.39662041094953
C           45.84437995799250       -0.20142695805705       -2.73518994282679
C           44.63853371532482       -0.03974687687132       -3.40104043899388
C           44.64609053393402       -0.02323552071765       -4.88976328721542
C           44.07789969878438       -1.07879659069304       -5.61518095545875
O           43.54726774679002       -2.08831987282722       -4.87667781957155
C           42.94360388149903       -3.19871742398954       -5.50932620957172
C           44.08881949715791       -1.06082864752511       -7.00955229411136
C           44.66257854192582        0.01414016912790       -7.67142068318834
C           45.22848350312162        1.07090118453424       -6.97440753589941
C           45.22292173228598        1.05127268077861       -5.58011622958486
O           45.74443821824298        2.04022103247385       -4.80831103532788
C           46.35344392275426        3.16869218093309       -5.40270581978600
C           43.42756572032135        0.10780841092320       -2.74165058372225
C           42.17681949866878        0.29969985252668       -3.40905222353712
C           41.21754709832756        0.29017614398962       -2.45256263618836
C           41.88643631263979        0.10264024523545       -1.20427528981867
N           43.23965485795232        0.02301658772574       -1.38043359035484
N           46.02557926092030       -0.12670472677505       -1.37266943233672
C           44.61523043222748        0.03847524321178        4.92697775593344
C           45.16622773591187       -1.01933375118071        5.66221904905681
O           45.68138155331146       -2.04353765577290        4.93317140237783
C           46.25903687100985       -3.16169288212404        5.57640694111621
C           45.15474074270672       -0.98847992225833        7.05638719518852
C           44.59770144214344        0.10145002838045        7.70796293383947
C           44.04949461263574        1.16092806207362        7.00096578882576
C           44.05567751081037        1.12849712953149        5.60689970076310
O           43.55055340599189        2.11843677967332        4.82544202428218
C           42.96195665099404        3.26319124989242        5.40907964361373
H           40.14041888029020       -0.46971795922763        2.58653541178448
H           42.03953947488537       -0.43651828357089        4.50610097252607
H           47.20317843013743        0.46136778482480        4.50536800032208
H           49.11200554731550        0.40867222692678        2.59606205897988
H           49.11537232420066       -0.54252892305476       -2.54155320206903
H           47.21705295462382       -0.52104913405924       -4.46157060393797
H           42.08822175837142       -2.89430674507093       -6.12448165866784
H           42.59415139860555       -3.85163439088219       -4.70743935134336
H           43.66175030932832       -3.74568327327803       -6.13210159212323
H           43.65667740651222       -1.87237140811666       -7.57946434328392
H           44.66886328111654        0.02865810221000       -8.75577817158041
H           45.66726282126807        1.89739730253134       -7.51710557079152
H           46.69138235620772        3.79993631237514       -4.57881201950425
H           45.64185334327922        3.73121694335511       -6.01910131318061
H           47.21712090425012        2.88290828207368       -6.01519806562985
H           42.05982111580904        0.41717919936555       -4.47399454369015
H           40.15057730144480        0.39646296006628       -2.56529513257210
H           45.52783972872724       -3.68673577310762        6.20285735596845
H           46.59467715413456       -3.82935577299987        4.78078434828558
H           47.12026199041487       -2.87133394198760        6.19017556398718
H           45.57359277107069       -1.80150926643852        7.63404131640646
H           44.59067801490926        0.12578781331575        8.79214590749888
H           43.62362520033540        1.99918405962874        7.53585677740950
H           43.68347428435511        3.81840039290676        6.02054855644355
H           42.09311900076170        2.99881233611247        6.02387374418407
H           42.63572076098549        3.89280622895737        4.57926151140640
