      -----------------------------------------------------------      
     |                   =====================                   |     
     |                           x T B                           |     
     |                   =====================                   |     
     |                         S. Grimme                         |     
     |          Mulliken Center for Theoretical Chemistry        |     
     |                    University of Bonn                     |     
      -----------------------------------------------------------      

   * xtb version 6.5.1 (b24c23e) compiled by 'conda@728c89f4b128' on 2022-07-12

   xtb is free software: you can redistribute it and/or modify it under
   the terms of the GNU Lesser General Public License as published by
   the Free Software Foundation, either version 3 of the License, or
   (at your option) any later version.
   
   xtb is distributed in the hope that it will be useful,
   but WITHOUT ANY WARRANTY; without even the implied warranty of
   MERCHANTABILITY or FITNESS FOR A PARTICULAR PURPOSE.  See the
   GNU Lesser General Public License for more details.
   
   Cite this work as:
   * C. Bannwarth, E. Caldeweyher, S. Ehlert, A. Hansen, P. Pracht,
     J. Seibert, S. Spicher, S. Grimme, WIREs Comput. Mol. Sci., 2020, 11,
     e01493. DOI: 10.1002/wcms.1493
   
   for GFN2-xTB:
   * C. Bannwarth, S. Ehlert and S. Grimme., J. Chem. Theory Comput., 2019,
     15, 1652-1671. DOI: 10.1021/acs.jctc.8b01176
   for GFN1-xTB:
   * S. Grimme, C. Bannwarth, P. Shushkov, J. Chem. Theory Comput., 2017,
     13, 1989-2009. DOI: 10.1021/acs.jctc.7b00118
   for GFN0-xTB:
   * P. Pracht, E. Caldeweyher, S. Ehlert, S. Grimme, ChemRxiv, 2019, preprint.
     DOI: 10.26434/chemrxiv.8326202.v1
   for GFN-FF:
   * S. Spicher and S. Grimme, Angew. Chem. Int. Ed., 2020, 59, 15665-15673.
     DOI: 10.1002/anie.202004239
   
   for ALPB and GBSA implicit solvation:
   * S. Ehlert, M. Stahn, S. Spicher, S. Grimme, J. Chem. Theory Comput.,
     2021, 17, 4250-4261. DOI: 10.1021/acs.jctc.1c00471
   
   for DFT-D4:
   * E. Caldeweyher, C. Bannwarth and S. Grimme, J. Chem. Phys., 2017,
     147, 034112. DOI: 10.1063/1.4993215
   * E. Caldeweyher, S. Ehlert, A. Hansen, H. Neugebauer, S. Spicher,
     C. Bannwarth and S. Grimme, J. Chem. Phys., 2019, 150, 154122.
     DOI: 10.1063/1.5090222
   * E. Caldeweyher, J.-M. Mewes, S. Ehlert and S. Grimme, Phys. Chem. Chem. Phys.
     2020, 22, 8499-8512. DOI: 10.1039/D0CP00502A
   
   for sTDA-xTB:
   * S. Grimme and C. Bannwarth, J. Chem. Phys., 2016, 145, 054103.
     DOI: 10.1063/1.4959605
   
   in the mass-spec context:
   * V. Asgeirsson, C. Bauer and S. Grimme, Chem. Sci., 2017, 8, 4879.
     DOI: 10.1039/c7sc00601b
   * J. Koopman and S. Grimme, ACS Omega 2019, 4, 12, 15120-15133.
     DOI: 10.1021/acsomega.9b02011
   
   for metadynamics refer to:
   * S. Grimme, J. Chem. Theory Comput., 2019, 155, 2847-2862
     DOI: 10.1021/acs.jctc.9b00143
   
   for SPH calculations refer to:
   * S. Spicher and S. Grimme, J. Chem. Theory Comput., 2021, 17, 1701-1714
     DOI: 10.1021/acs.jctc.0c01306
   
   with help from (in alphabetical order)
   P. Atkinson, C. Bannwarth, F. Bohle, G. Brandenburg, E. Caldeweyher
   M. Checinski, S. Dohm, S. Ehlert, S. Ehrlich, I. Gerasimov, C. Hölzer
   A. Katbashev, J. Koopman, C. Lavigne, S. Lehtola, F. März, M. Müller,
   F. Musil, H. Neugebauer, J. Pisarek, C. Plett, P. Pracht, F. Pultar,
   J. Seibert, P. Shushkov, S. Spicher, M. Stahn, M. Steiner, T. Strunk,
   J. Stückrath, T. Rose, and J. Unsleber
   
 * started run on 2022/07/30 at 02:07:47.591     

           -------------------------------------------------
          |                Calculation Setup                |
           -------------------------------------------------

          program call               : xtb xtbopt.xyz --gfn 1 --vipea
          hostname                   : cx3-14-28.cx3.hpc.ic.ac.uk
          coordinate file            : xtbopt.xyz
          omp threads                :                     1

   ID    Z sym.   atoms
    1   27 Co     1, 57
    2    6 C      2-6, 8-11, 13-29, 32-37, 58-62, 64-67, 69-85, 88-93, 113-120
    3    7 N      7, 12, 30, 31, 63, 68, 86, 87
    4    1 H      38-56, 94-112

           -------------------------------------------------
          |                 I P E A - x T B                 |
           -------------------------------------------------

        Reference                      10.1039/c7sc00601b
      * Hamiltonian:
        H0-scaling (s, p, d)           2.150000    2.300000    2.000000
        zeta-weighting                 0.000000
      * Dispersion:
        s8                             2.400000
        a1                             0.630000
        a2                             5.000000
        s9                             0.000000
      * Repulsion:
        kExp                           1.500000
        rExp                           1.000000
      * Coulomb:
        alpha                          1.000000
        third order                    atomic
        anisotropic                    false
      * Halogen bond correction:
        rad-scale                      1.300000
        damping                        0.440000


          ...................................................
          :                      SETUP                      :
          :.................................................:
          :  # basis functions                 496          :
          :  # atomic orbitals                 494          :
          :  # shells                          322          :
          :  # electrons                       384          :
          :  # halogen bonds                     0          :
          :  max. iterations                   250          :
          :  Hamiltonian                  GFN1-xTB          :
          :  restarted?                      false          :
          :  GBSA solvation                  false          :
          :  PC potential                    false          :
          :  electronic temp.          300.0000000     K    :
          :  accuracy                    1.0000000          :
          :  -> integral cutoff          0.2500000E+02      :
          :  -> integral neglect         0.1000000E-07      :
          :  -> SCF convergence          0.1000000E-05 Eh   :
          :  -> wf. convergence          0.2000000E-04 e    :
          :  Broyden damping             0.4000000          :
          ...................................................

 iter      E             dE          RMSdq      gap      omega  full diag
   1   -235.3318830 -0.235332E+03  0.107E+01    0.30       0.0  T
   2   -225.0840979  0.102478E+02  0.101E+01    0.01       1.0  T
   3   -232.6554060 -0.757131E+01  0.649E+00    0.23       1.0  T
   4   -223.3301488  0.932526E+01  0.492E+00    0.29       1.0  T
   5   -229.5506213 -0.622047E+01  0.415E+00    0.58       1.0  T
   6   -235.5121901 -0.596157E+01  0.252E+00    0.14       1.0  T
   7   -236.1750524 -0.662862E+00  0.204E+00    0.33       1.0  T
   8   -236.2453320 -0.702796E-01  0.184E+00    0.30       1.0  T
   9   -236.4029772 -0.157645E+00  0.126E+00    0.19       1.0  T
  10   -236.4916442 -0.886670E-01  0.112E+00    0.05       1.0  T
  11   -236.4795250  0.121192E-01  0.106E+00    0.14       1.0  T
  12   -236.5393768 -0.598519E-01  0.889E-01    0.10       1.0  T
  13   -236.6834417 -0.144065E+00  0.262E-01    0.01       1.0  T
  14   -236.6715156  0.119261E-01  0.352E-01    0.03       1.0  T
  15   -236.6854653 -0.139498E-01  0.196E-01    0.01       1.0  T
  16   -236.6802675  0.519786E-02  0.248E-01    0.02       1.0  T
  17   -236.6839191 -0.365164E-02  0.203E-01    0.02       1.0  T
  18   -236.6913441 -0.742503E-02  0.517E-02    0.00       1.0  T
  19   -236.6911773  0.166796E-03  0.569E-02    0.00       1.0  T
  20   -236.6916462 -0.468907E-03  0.268E-02    0.00       1.0  T
  21   -236.6916752 -0.289658E-04  0.249E-02    0.00       1.0  T
  22   -236.6917673 -0.921294E-04  0.106E-02    0.00       1.0  T
  23   -236.6917771 -0.979924E-05  0.694E-03    0.00       1.3  T
  24   -236.6917834 -0.622082E-05  0.301E-03    0.00       3.0  T
  25   -236.6917841 -0.758033E-06  0.162E-03    0.00       5.6  T
  26   -236.6917843 -0.220034E-06  0.956E-04    0.00       9.5  T
  27   -236.6917842  0.962583E-07  0.116E-03    0.00       7.9  T
  28   -236.6917845 -0.224191E-06  0.289E-04    0.00      31.6  T
  29   -236.6917844  0.367362E-07  0.527E-04    0.00      17.3  T
  30   -236.6917845 -0.464085E-07  0.152E-04    0.00      60.0  T
  31   -236.6917845 -0.326105E-08  0.740E-05    0.00     123.4  T

   *** convergence criteria satisfied after 31 iterations ***

         #    Occupation            Energy/Eh            Energy/eV
      -------------------------------------------------------------
         1        2.0000           -1.0214018             -27.7938
       ...           ...                  ...                  ...
       186        1.9999           -0.3600584              -9.7977
       187        1.9999           -0.3600312              -9.7969
       188        1.9999           -0.3592217              -9.7749
       189        1.9998           -0.3590990              -9.7716
       190        1.9998           -0.3590795              -9.7711
       191        1.9998           -0.3590646              -9.7706
       192        1.0039           -0.3501058              -9.5269 (HOMO)
       193        0.9968           -0.3500924              -9.5265 (LUMO)
       194                         -0.3102805              -8.4432
       195                         -0.2975675              -8.0972
       196                         -0.2961839              -8.0596
       197                         -0.2961548              -8.0588
       ...                                ...                  ...
       494                        503.0895751           13689.7641
      -------------------------------------------------------------
                  HL-Gap            0.0000134 Eh            0.0004 eV
             Fermi-level           -0.3500984 Eh           -9.5267 eV

 SCC (total)                   0 d,  0 h,  0 min,  4.033 sec
 SCC setup                      ...        0 min,  0.003 sec (  0.086%)
 Dispersion                     ...        0 min,  0.005 sec (  0.113%)
 classical contributions        ...        0 min,  0.002 sec (  0.041%)
 integral evaluation            ...        0 min,  0.415 sec ( 10.286%)
 iterations                     ...        0 min,  2.683 sec ( 66.537%)
 molecular gradient             ...        0 min,  0.904 sec ( 22.429%)
 printout                       ...        0 min,  0.020 sec (  0.506%)

         :::::::::::::::::::::::::::::::::::::::::::::::::::::
         ::                     SUMMARY                     ::
         :::::::::::::::::::::::::::::::::::::::::::::::::::::
         :: total energy            -231.784966896361 Eh    ::
         :: gradient norm              0.062206536093 Eh/a0 ::
         :: HOMO-LUMO gap              0.000364567828 eV    ::
         ::.................................................::
         :: SCC energy              -236.691784475659 Eh    ::
         :: -> electrostatic           0.114161817429 Eh    ::
         :: repulsion energy           5.012202005278 Eh    ::
         :: dispersion energy         -0.105384425980 Eh    ::
         :: halogen bond corr.         0.000000000000 Eh    ::
         :: add. restraining           0.000000000000 Eh    ::
         :: total charge               0.000000000217 e     ::
         :::::::::::::::::::::::::::::::::::::::::::::::::::::

           ------------------------------------------------- 
          |        vertical delta SCC IP calculation        |
           ------------------------------------------------- 
   1   -236.2595179 -0.236260E+03  0.571E-01    0.00       0.0  T
   2   -235.8415781  0.417940E+00  0.176E+00    0.32       1.0  T
   3   -236.2732091 -0.431631E+00  0.428E-01    0.00       1.0  T
   4   -236.2639731  0.923603E-02  0.444E-01    0.05       1.0  T
   5   -236.2620692  0.190389E-02  0.451E-01    0.05       1.0  T
   6   -236.2898396 -0.277704E-01  0.221E-01    0.00       1.0  T
   7   -236.2949170 -0.507741E-02  0.120E-01    0.01       1.0  T
   8   -236.2946364  0.280624E-03  0.126E-01    0.01       1.0  T
   9   -236.2971192 -0.248278E-02  0.119E-02    0.01       1.0  T
  10   -236.2971401 -0.209337E-04  0.321E-03    0.01       2.8  T
  11   -236.2971318  0.829225E-05  0.898E-03    0.01       1.0  T
  12   -236.2971427 -0.108813E-04  0.137E-03    0.01       6.7  T
  13   -236.2971430 -0.326898E-06  0.512E-04    0.01      17.8  T
  14   -236.2971428  0.204907E-06  0.131E-03    0.01       7.0  T
  15   -236.2971430 -0.154444E-06  0.826E-04    0.01      11.1  T
  16   -236.2971431 -0.981601E-07  0.216E-04    0.01      42.3  T
  17   -236.2971431 -0.622023E-08  0.557E-05    0.01     164.0  T
  18   -236.2971431 -0.391509E-09  0.293E-05    0.01     311.8  T
     SCC iter.                  ...        0 min,  1.533 sec
     gradient                   ...        0 min,  0.922 sec
------------------------------------------------------------------------
empirical IP shift (eV):    4.8455
delta SCC IP (eV):    5.8932
------------------------------------------------------------------------
           ------------------------------------------------- 
          |        vertical delta SCC EA calculation        |
           ------------------------------------------------- 
   1   -236.8983775 -0.236898E+03  0.977E-01    1.52       0.0  T
   2   -236.7411638  0.157214E+00  0.127E+00    0.09       1.0  T
   3   -236.9402732 -0.199109E+00  0.663E-01    0.94       1.0  T
   4   -236.9092261  0.310471E-01  0.776E-01    0.83       1.0  T
   5   -236.9880141 -0.787880E-01  0.279E-01    0.73       1.0  T
   6   -236.9881120 -0.979578E-04  0.225E-01    0.59       1.0  T
   7   -236.9958366 -0.772451E-02  0.842E-02    0.54       1.0  T
   8   -236.9953183  0.518209E-03  0.104E-01    0.54       1.0  T
   9   -236.9971891 -0.187076E-02  0.258E-02    0.56       1.0  T
  10   -236.9972491 -0.600029E-04  0.158E-02    0.57       1.0  T
  11   -236.9972716 -0.225170E-04  0.935E-03    0.57       1.0  T
  12   -236.9972725 -0.903323E-06  0.967E-03    0.57       1.0  T
  13   -236.9972860 -0.134760E-04  0.430E-03    0.57       2.1  T
  14   -236.9972860  0.574825E-07  0.444E-03    0.57       2.1  T
  15   -236.9972891 -0.315829E-05  0.149E-03    0.57       6.1  T
  16   -236.9972893 -0.185910E-06  0.111E-03    0.57       8.3  T
  17   -236.9972895 -0.225303E-06  0.955E-05    0.57      95.6  T
  18   -236.9972895  0.297464E-08  0.153E-04    0.57      59.7  T
     SCC iter.                  ...        0 min,  1.544 sec
     gradient                   ...        0 min,  0.927 sec
------------------------------------------------------------------------
empirical EA shift (eV):    4.8455
delta SCC EA (eV):    3.4677
------------------------------------------------------------------------
           -------------------------------------------------
          |                Property Printout                |
           -------------------------------------------------

    * Orbital Energies and Occupations

         #    Occupation            Energy/Eh            Energy/eV
      -------------------------------------------------------------
         1        2.0000           -0.9534590             -25.9449
       ...           ...                  ...                  ...
       181        2.0000           -0.3335351              -9.0760
       182        2.0000           -0.3182129              -8.6590
       183        2.0000           -0.3181358              -8.6569
       184        2.0000           -0.3174792              -8.6390
       185        2.0000           -0.3061286              -8.3302
       186        2.0000           -0.2762597              -7.5174
       187        2.0000           -0.2758532              -7.5063
       188        2.0000           -0.2758386              -7.5060
       189        2.0000           -0.2757858              -7.5045
       190        1.9999           -0.2740646              -7.4577
       191        1.9999           -0.2740403              -7.4570
       192        1.5050           -0.2651520              -7.2152
       193        1.4952           -0.2651146              -7.2141 (HOMO)
       194        0.0000           -0.2440182              -6.6401 (LUMO)
       195                         -0.2308016              -6.2804
       196                         -0.2300583              -6.2602
       197                         -0.2299992              -6.2586
       198                         -0.2024513              -5.5090
       199                         -0.2004922              -5.4557
       200                         -0.1880484              -5.1171
       201                         -0.1718206              -4.6755
       202                         -0.1648497              -4.4858
       203                         -0.1643209              -4.4714
       204                         -0.1637660              -4.4563
       ...                                ...                  ...
       494                        503.1520879           13691.4652
      -------------------------------------------------------------
                  HL-Gap            0.0210964 Eh            0.5741 eV
             Fermi-level           -0.2596896 Eh           -7.0665 eV

  Mulliken/CM5 charges         n(s)   n(p)   n(d)
     1Co    0.24949  0.65224   0.334  0.982  7.435
     2C    -0.02481 -0.06610   1.084  2.941  0.000
     3C     0.05214  0.11257   1.109  2.839  0.000
     4C    -0.04488 -0.09136   1.083  2.961  0.000
     5C    -0.04217 -0.08815   1.077  2.966  0.000
     6C     0.05473  0.11877   1.104  2.842  0.000
     7N    -0.21694 -0.47685   1.319  3.898  0.000
     8C     0.00620  0.01158   1.084  2.910  0.000
     9C     0.05417  0.11729   1.102  2.844  0.000
    10C    -0.04023 -0.08620   1.076  2.964  0.000
    11C    -0.04160 -0.08717   1.082  2.960  0.000
    12N    -0.21522 -0.47402   1.319  3.896  0.000
    13C     0.05900  0.12425   1.115  2.826  0.000
    14C     0.01431  0.02127   1.078  2.908  0.000
    15C     0.05883  0.12396   1.115  2.826  0.000
    16C    -0.04154 -0.08712   1.081  2.961  0.000
    17C    -0.04013 -0.08625   1.076  2.964  0.000
    18C     0.05415  0.11735   1.103  2.843  0.000
    19C     0.00520  0.01057   1.083  2.912  0.000
    20C     0.00774 -0.00109   1.087  2.905  0.000
    21C    -0.02321 -0.07663   1.079  2.944  0.000
    22C    -0.03016 -0.08596   1.086  2.944  0.000
    23C    -0.03237 -0.08820   1.086  2.947  0.000
    24C    -0.02942 -0.08521   1.086  2.943  0.000
    25C    -0.02250 -0.07589   1.080  2.943  0.000
    26C     0.05479  0.11876   1.105  2.840  0.000
    27C    -0.04174 -0.08790   1.077  2.965  0.000
    28C    -0.04461 -0.09110   1.082  2.962  0.000
    29C     0.05228  0.11273   1.109  2.839  0.000
    30N    -0.21709 -0.47641   1.318  3.899  0.000
    31N    -0.21499 -0.47469   1.319  3.896  0.000
    32C     0.00827 -0.00063   1.088  2.904  0.000
    33C    -0.02338 -0.07683   1.079  2.944  0.000
    34C    -0.02984 -0.08563   1.086  2.943  0.000
    35C    -0.03266 -0.08849   1.085  2.948  0.000
    36C    -0.02967 -0.08546   1.087  2.943  0.000
    37C    -0.02330 -0.07671   1.080  2.943  0.000
    38H     0.01723  0.07617   0.983  0.000  0.000
    39H     0.01899  0.07561   0.981  0.000  0.000
    40H     0.01260  0.07148   0.987  0.000  0.000
    41H     0.01459  0.07351   0.985  0.000  0.000
    42H     0.01798  0.07610   0.982  0.000  0.000
    43H     0.01792  0.07599   0.982  0.000  0.000
    44H     0.01362  0.07247   0.986  0.000  0.000
    45H     0.01650  0.07445   0.983  0.000  0.000
    46H     0.02279  0.07865   0.977  0.000  0.000
    47H     0.02302  0.07885   0.977  0.000  0.000
    48H     0.02425  0.08011   0.976  0.000  0.000
    49H     0.01767  0.07556   0.982  0.000  0.000
    50H     0.01162  0.07042   0.988  0.000  0.000
    51H     0.01911  0.07572   0.981  0.000  0.000
    52H     0.01644  0.07405   0.984  0.000  0.000
    53H     0.02309  0.07895   0.977  0.000  0.000
    54H     0.02293  0.07877   0.977  0.000  0.000
    55H     0.02345  0.07931   0.977  0.000  0.000
    56H     0.01668  0.07428   0.983  0.000  0.000
    57Co    0.25013  0.65430   0.334  0.982  7.434
    58C    -0.02484 -0.06612   1.084  2.941  0.000
    59C     0.05209  0.11251   1.109  2.839  0.000
    60C    -0.04489 -0.09137   1.083  2.961  0.000
    61C    -0.04218 -0.08815   1.077  2.966  0.000
    62C     0.05468  0.11872   1.104  2.842  0.000
    63N    -0.21689 -0.47715   1.319  3.898  0.000
    64C     0.00620  0.01159   1.084  2.910  0.000
    65C     0.05412  0.11723   1.102  2.844  0.000
    66C    -0.04023 -0.08619   1.076  2.964  0.000
    67C    -0.04160 -0.08716   1.082  2.960  0.000
    68N    -0.21516 -0.47435   1.319  3.896  0.000
    69C     0.05898  0.12423   1.115  2.826  0.000
    70C     0.01428  0.02126   1.078  2.908  0.000
    71C     0.05876  0.12388   1.115  2.826  0.000
    72C    -0.04156 -0.08713   1.081  2.961  0.000
    73C    -0.04013 -0.08625   1.076  2.964  0.000
    74C     0.05411  0.11730   1.103  2.843  0.000
    75C     0.00516  0.01054   1.083  2.912  0.000
    76C     0.00771 -0.00110   1.087  2.905  0.000
    77C    -0.02321 -0.07663   1.080  2.944  0.000
    78C    -0.03018 -0.08597   1.086  2.944  0.000
    79C    -0.03237 -0.08820   1.086  2.947  0.000
    80C    -0.02942 -0.08521   1.086  2.943  0.000
    81C    -0.02249 -0.07587   1.080  2.943  0.000
    82C     0.05475  0.11870   1.105  2.840  0.000
    83C    -0.04172 -0.08788   1.077  2.965  0.000
    84C    -0.04461 -0.09109   1.082  2.962  0.000
    85C     0.05224  0.11268   1.109  2.839  0.000
    86N    -0.21703 -0.47674   1.318  3.899  0.000
    87N    -0.21498 -0.47499   1.319  3.896  0.000
    88C     0.00828 -0.00061   1.088  2.904  0.000
    89C    -0.02339 -0.07682   1.079  2.944  0.000
    90C    -0.02983 -0.08562   1.086  2.943  0.000
    91C    -0.03266 -0.08850   1.085  2.948  0.000
    92C    -0.02968 -0.08547   1.087  2.943  0.000
    93C    -0.02332 -0.07672   1.080  2.944  0.000
    94H     0.01725  0.07618   0.983  0.000  0.000
    95H     0.01896  0.07558   0.981  0.000  0.000
    96H     0.01259  0.07144   0.987  0.000  0.000
    97H     0.01458  0.07348   0.985  0.000  0.000
    98H     0.01797  0.07608   0.982  0.000  0.000
    99H     0.01790  0.07595   0.982  0.000  0.000
   100H     0.01358  0.07240   0.986  0.000  0.000
   101H     0.01650  0.07446   0.984  0.000  0.000
   102H     0.02278  0.07864   0.977  0.000  0.000
   103H     0.02301  0.07884   0.977  0.000  0.000
   104H     0.02426  0.08012   0.976  0.000  0.000
   105H     0.01768  0.07559   0.982  0.000  0.000
   106H     0.01158  0.07037   0.988  0.000  0.000
   107H     0.01910  0.07571   0.981  0.000  0.000
   108H     0.01645  0.07406   0.984  0.000  0.000
   109H     0.02310  0.07896   0.977  0.000  0.000
   110H     0.02293  0.07877   0.977  0.000  0.000
   111H     0.02343  0.07929   0.977  0.000  0.000
   112H     0.01667  0.07426   0.983  0.000  0.000
   113C    -0.01562 -0.01725   1.097  2.919  0.000
   114C    -0.02528 -0.02598   1.063  2.962  0.000
   115C    -0.01774 -0.01783   1.078  2.939  0.000
   116C    -0.02074 -0.02074   1.076  2.945  0.000
   117C    -0.02076 -0.02077   1.076  2.945  0.000
   118C    -0.01774 -0.01782   1.078  2.939  0.000
   119C    -0.02530 -0.02599   1.063  2.962  0.000
   120C    -0.01562 -0.01723   1.097  2.919  0.000

Wiberg/Mayer (AO) data.
largest (>0.10) Wiberg bond orders for each atom

 ---------------------------------------------------------------------------
     #   Z sym  total        # sym  WBO       # sym  WBO       # sym  WBO
 ---------------------------------------------------------------------------
     1  27 Co   3.827 --     7 N    0.720    30 N    0.719    12 N    0.715
                            31 N    0.714
     2   6 C    3.847 --     3 C    1.392    29 C    1.392    38 H    0.998
     3   6 C    3.960 --     2 C    1.392     7 N    1.245     4 C    1.198
     4   6 C    3.860 --     5 C    1.642     3 C    1.198    39 H    0.996
     5   6 C    3.837 --     4 C    1.642     6 C    1.205    40 H    1.001
     6   6 C    3.937 --     8 C    1.363     7 N    1.249     5 C    1.205
     7   7 N    2.995 --     6 C    1.249     3 C    1.245     1 Co   0.720
     8   6 C    3.850 --     9 C    1.375     6 C    1.363    32 C    1.040
     9   6 C    3.929 --     8 C    1.375    12 N    1.235    10 C    1.208
    10   6 C    3.833 --    11 C    1.632     9 C    1.208    41 H    1.000
    11   6 C    3.854 --    10 C    1.632    13 C    1.219    42 H    1.000
    12   7 N    3.002 --    13 C    1.270     9 C    1.235     1 Co   0.715
    13   6 C    3.938 --    14 C    1.302    12 N    1.270    11 C    1.219
    14   6 C    3.874 --    13 C    1.302    15 C    1.301   113 C    1.214
    15   6 C    3.938 --    14 C    1.301    31 N    1.268    16 C    1.220
    16   6 C    3.850 --    17 C    1.629    15 C    1.220    43 H    1.000
    17   6 C    3.833 --    16 C    1.629    18 C    1.210    44 H    1.000
    18   6 C    3.931 --    19 C    1.369    31 N    1.237    17 C    1.210
    19   6 C    3.851 --    18 C    1.369    26 C    1.362    20 C    1.049
    20   6 C    3.895 --    25 C    1.425    21 C    1.425    19 C    1.049
    21   6 C    3.871 --    22 C    1.448    20 C    1.425    45 H    0.990
    22   6 C    3.912 --    21 C    1.448    23 C    1.441    46 H    0.983
    23   6 C    3.904 --    24 C    1.441    22 C    1.441    47 H    0.985
    24   6 C    3.912 --    25 C    1.447    23 C    1.441    48 H    0.982
    25   6 C    3.872 --    24 C    1.447    20 C    1.425    49 H    0.990
    26   6 C    3.939 --    19 C    1.362    30 N    1.249    27 C    1.205
    27   6 C    3.838 --    28 C    1.640    26 C    1.205    50 H    1.000
    28   6 C    3.858 --    27 C    1.640    29 C    1.199    51 H    0.996
    29   6 C    3.960 --     2 C    1.392    30 N    1.245    28 C    1.199
    30   7 N    2.993 --    26 C    1.249    29 C    1.245     1 Co   0.719
    31   7 N    3.002 --    15 C    1.268    18 C    1.237     1 Co   0.714
    32   6 C    3.895 --    33 C    1.429    37 C    1.429     8 C    1.040
    33   6 C    3.873 --    34 C    1.446    32 C    1.429    52 H    0.990
    34   6 C    3.912 --    33 C    1.446    35 C    1.442    53 H    0.983
    35   6 C    3.905 --    34 C    1.442    36 C    1.442    54 H    0.985
    36   6 C    3.912 --    37 C    1.446    35 C    1.442    55 H    0.983
    37   6 C    3.874 --    36 C    1.446    32 C    1.429    56 H    0.990
    38   1 H    1.040 --     2 C    0.998
    39   1 H    1.030 --     4 C    0.996
    40   1 H    1.048 --     5 C    1.001
    41   1 H    1.047 --    10 C    1.000
    42   1 H    1.041 --    11 C    1.000
    43   1 H    1.042 --    16 C    1.000
    44   1 H    1.047 --    17 C    1.000
    45   1 H    1.061 --    21 C    0.990
    46   1 H    1.037 --    22 C    0.983
    47   1 H    1.031 --    23 C    0.985
    48   1 H    1.037 --    24 C    0.982
    49   1 H    1.061 --    25 C    0.990
    50   1 H    1.049 --    27 C    1.000
    51   1 H    1.031 --    28 C    0.996
    52   1 H    1.061 --    33 C    0.990
    53   1 H    1.037 --    34 C    0.983
    54   1 H    1.031 --    35 C    0.985
    55   1 H    1.037 --    36 C    0.983
    56   1 H    1.061 --    37 C    0.990
    57  27 Co   3.832 --    63 N    0.721    86 N    0.720    68 N    0.715
                            87 N    0.715
    58   6 C    3.847 --    85 C    1.392    59 C    1.392    94 H    0.998
    59   6 C    3.960 --    58 C    1.392    63 N    1.244    60 C    1.198
    60   6 C    3.860 --    61 C    1.642    59 C    1.198    95 H    0.996
    61   6 C    3.837 --    60 C    1.642    62 C    1.205    96 H    1.001
    62   6 C    3.937 --    64 C    1.362    63 N    1.249    61 C    1.205
    63   7 N    2.995 --    62 C    1.249    59 C    1.244    57 Co   0.721
    64   6 C    3.850 --    65 C    1.375    62 C    1.362    88 C    1.040
    65   6 C    3.929 --    64 C    1.375    68 N    1.234    66 C    1.208
    66   6 C    3.833 --    67 C    1.632    65 C    1.208    97 H    1.000
    67   6 C    3.854 --    66 C    1.632    69 C    1.219    98 H    1.000
    68   7 N    3.002 --    69 C    1.270    65 C    1.234    57 Co   0.715
    69   6 C    3.938 --    70 C    1.302    68 N    1.270    67 C    1.219
    70   6 C    3.874 --    69 C    1.302    71 C    1.301   120 C    1.214
    71   6 C    3.938 --    70 C    1.301    87 N    1.268    72 C    1.220
    72   6 C    3.851 --    73 C    1.628    71 C    1.220    99 H    1.000
    73   6 C    3.833 --    72 C    1.628    74 C    1.210   100 H    1.000
    74   6 C    3.931 --    75 C    1.368    87 N    1.237    73 C    1.210
    75   6 C    3.851 --    74 C    1.368    82 C    1.362    76 C    1.050
    76   6 C    3.895 --    81 C    1.425    77 C    1.425    75 C    1.050
    77   6 C    3.871 --    78 C    1.448    76 C    1.425   101 H    0.990
    78   6 C    3.912 --    77 C    1.448    79 C    1.441   102 H    0.983
    79   6 C    3.904 --    80 C    1.441    78 C    1.441   103 H    0.985
    80   6 C    3.912 --    81 C    1.448    79 C    1.441   104 H    0.982
    81   6 C    3.872 --    80 C    1.448    76 C    1.425   105 H    0.990
    82   6 C    3.940 --    75 C    1.362    86 N    1.248    83 C    1.205
    83   6 C    3.838 --    84 C    1.640    82 C    1.205   106 H    1.000
    84   6 C    3.858 --    83 C    1.640    85 C    1.199   107 H    0.996
    85   6 C    3.960 --    58 C    1.392    86 N    1.244    84 C    1.199
    86   7 N    2.993 --    82 C    1.248    85 C    1.244    57 Co   0.720
    87   7 N    3.001 --    71 C    1.268    74 C    1.237    57 Co   0.715
    88   6 C    3.895 --    89 C    1.429    93 C    1.429    64 C    1.040
    89   6 C    3.873 --    90 C    1.446    88 C    1.429   108 H    0.990
    90   6 C    3.912 --    89 C    1.446    91 C    1.442   109 H    0.983
    91   6 C    3.905 --    90 C    1.442    92 C    1.442   110 H    0.985
    92   6 C    3.912 --    93 C    1.446    91 C    1.442   111 H    0.983
    93   6 C    3.874 --    92 C    1.446    88 C    1.429   112 H    0.990
    94   1 H    1.040 --    58 C    0.998
    95   1 H    1.030 --    60 C    0.996
    96   1 H    1.048 --    61 C    1.001
    97   1 H    1.047 --    66 C    1.000
    98   1 H    1.041 --    67 C    1.000
    99   1 H    1.042 --    72 C    1.000
   100   1 H    1.048 --    73 C    1.000
   101   1 H    1.061 --    77 C    0.990
   102   1 H    1.037 --    78 C    0.983
   103   1 H    1.031 --    79 C    0.985
   104   1 H    1.037 --    80 C    0.982
   105   1 H    1.061 --    81 C    0.990
   106   1 H    1.049 --    83 C    1.000
   107   1 H    1.031 --    84 C    0.996
   108   1 H    1.061 --    89 C    0.990
   109   1 H    1.037 --    90 C    0.983
   110   1 H    1.031 --    91 C    0.985
   111   1 H    1.037 --    92 C    0.983
   112   1 H    1.061 --    93 C    0.990
   113   6 C    3.760 --   114 C    2.475    14 C    1.214   116 C    0.172
   114   6 C    3.832 --   113 C    2.475   115 C    1.360
   115   6 C    3.810 --   116 C    2.352   114 C    1.360   118 C    0.167
   116   6 C    3.847 --   115 C    2.352   117 C    1.388   113 C    0.172
   117   6 C    3.847 --   118 C    2.352   116 C    1.388   120 C    0.172
   118   6 C    3.810 --   117 C    2.352   119 C    1.360   115 C    0.167
   119   6 C    3.832 --   120 C    2.474   118 C    1.360
   120   6 C    3.760 --   119 C    2.474    70 C    1.214   117 C    0.172
 ---------------------------------------------------------------------------

Topologies differ in total number of bonds
Writing topology from bond orders to xtbtopo.mol

 dipole moment from electron density (au)
     X       Y       Z   
 -39.2598   0.0034  -0.0211  total (Debye):   99.789


           -------------------------------------------------
          | TOTAL ENERGY             -232.090471939705 Eh   |
          | GRADIENT NORM               0.063803710400 Eh/α |
          | HOMO-LUMO GAP               0.574061899353 eV   |
           -------------------------------------------------
########################################################################
[WARNING] Runtime exception occurred
-1- restart_readRestart: Dimension missmatch in restart file.
########################################################################

------------------------------------------------------------------------
 * finished run on 2022/07/30 at 02:07:57.839     
------------------------------------------------------------------------
 total:
 * wall-time:     0 d,  0 h,  0 min, 10.248 sec
 *  cpu-time:     0 d,  0 h,  0 min, 10.194 sec
 * ratio c/w:     0.995 speedup
 SCF:
 * wall-time:     0 d,  0 h,  0 min,  9.831 sec
 *  cpu-time:     0 d,  0 h,  0 min,  9.781 sec
 * ratio c/w:     0.995 speedup

