316
 energy: -548.890741191410 gnorm: 8.548854273117 xtb: 6.5.1 (b24c23e)
C           52.74672700000000        0.01438000000000        0.06083200000000
C           53.47159400000000        1.20770800000000       -0.63354600000000
C           52.85678900000000        2.23306300000000       -1.31527100000000
C           53.87780400000000        3.12501200000000       -1.73365400000000
C           55.08220400000000        2.61641700000000       -1.28754900000000
N           54.82600099999999        1.42365400000000       -0.65853900000000
C           56.50881300000000        3.29083000000000       -1.44190900000000
C           56.55458400000000        4.68863300000000       -1.93240800000000
C           56.82024700000000        4.94808800000000       -3.28369100000000
C           56.85602899999999        6.26064300000000       -3.75717200000000
C           56.62222799999999        7.31192200000000       -2.87314300000000
O           56.64988000000000        8.60925500000000       -3.30062000000000
C           56.35464500000000        7.07175900000000       -1.52956000000000
C           56.32071999999999        5.75766200000000       -1.05832500000000
C           57.63862000000000        2.61000300000000       -1.10855600000000
C           58.94763200000000        3.22721800000000       -1.17274600000000
C           59.84978700000000        2.34046300000000       -0.76947500000000
N           57.83192200000000        1.32919200000000       -0.66152600000000
C           59.16626900000000        1.10495800000000       -0.44044700000000
C           59.83425199999999        0.00391600000000       -0.00375200000000
C           59.05416300000000       -1.34196500000000        0.31237500000000
C           59.59120100000000       -2.61462100000000        0.30756100000000
C           58.56640999999999       -3.51318400000000        0.69469100000000
C           57.42874799999999       -2.76619500000000        0.91389600000000
N           57.72215600000000       -1.45267300000000        0.63094700000000
C           56.01996699999999       -3.32252300000000        1.38609600000000
C           55.98627799999999       -4.63594100000000        2.06815000000000
C           56.36498900000000       -4.74706700000000        3.41158400000000
C           56.34529100000000       -5.99011400000000        4.04794700000000
C           55.94840500000000       -7.11820900000000        3.33790200000000
O           55.93917400000000       -8.31814600000000        3.99104100000000
C           55.57123000000000       -7.02729400000000        1.99982800000000
C           55.59300300000000       -5.78368900000000        1.36632900000000
C           54.89630100000000       -2.59341600000000        1.15900800000000
C           53.57607600000000       -3.03434400000000        1.57407600000000
C           52.69126000000000       -2.11609600000000        1.19743100000000
C           53.41169900000000       -1.05328500000000        0.54026100000000
N           54.73161700000000       -1.38035300000000        0.55025800000000
H           51.67008499999999        0.06909500000000        0.16889800000000
H           51.79509299999999        2.33626900000000       -1.47823800000000
H           53.74571599999999        4.04769600000000       -2.27838000000000
H           55.53002499999999        0.80186400000000       -0.26807500000000
H           57.00280200000000        4.11097300000000       -3.95451800000000
H           57.06693300000000        6.43215300000000       -4.80616300000000
H           56.86735699999999        8.59526200000000       -4.24604400000000
H           56.17472399999999        7.89575000000000       -0.84786000000000
H           56.11528400000000        5.55077600000000       -0.01046800000000
H           59.16255099999999        4.23608200000000       -1.47686900000000
H           60.90594500000000        2.52910600000000       -0.70889200000000
H           60.61105900000000       -2.87145700000000        0.06493800000000
H           58.65012099999999       -4.58376300000000        0.80554800000000
H           57.04152600000000       -0.69752400000000        0.60880100000000
H           56.67229200000000       -3.85462300000000        3.95204900000000
H           56.63791400000000       -6.06930600000000        5.08918600000000
H           55.62991700000000       -8.98638100000000        3.35937900000000
H           55.25924900000000       -7.89692300000000        1.43357100000000
H           55.30083600000000       -5.68776200000000        0.32243200000000
H           53.34800800000000       -3.94343600000000        2.10065900000000
H           51.62932900000000       -2.14847500000000        1.36033300000000
C          123.70209199999998        0.05256900000000        0.03999200000000
C          122.97722500000000       -1.17705100000000        0.66786700000000
C          123.59202999999999       -2.30514700000000        1.16132500000000
C          122.57101499999999       -3.13959500000000        1.68507500000000
C          121.36661500000000       -2.48924900000000        1.49872000000000
N          121.62281800000000       -1.31490900000000        0.83595200000000
C          119.94000699999999       -2.98395800000000        1.98237500000000
C          119.89423499999999       -4.15275200000000        2.89252200000000
C          119.62857200000001       -5.42954200000000        2.37960000000000
C          119.59279099999999       -6.53789900000000        3.22726200000000
C          119.82659099999999       -6.36324300000000        4.58968300000000
O          119.79894000000000       -7.42467500000000        5.44943300000000
C          120.09417399999998       -5.10336500000000        5.11466200000000
C          120.12809900000001       -3.99606400000000        4.26448900000000
C          118.81019900000000       -2.33524800000000        1.59017200000000
C          117.50118699999999       -2.72317800000000        2.07451000000000
C          116.59903199999999       -1.90424900000000        1.54695400000000
N          118.61689699999999       -1.26631100000000        0.75489500000000
C          117.28254999999999       -0.95906300000000        0.68593300000000
C          116.61456699999999        0.00391600000000       -0.00375200000000
C          117.39465600000000        0.99797200000000       -0.96457700000000
C          116.85761800000000        1.68250100000000       -2.03746900000000
C          117.88240899999998        2.49424500000000       -2.58368900000000
C          119.02007100000000        2.27443100000000       -1.83687900000000
N          118.72666299999999        1.32578600000000       -0.88531600000000
C          120.42885200000001        2.97254900000000       -2.04925700000000
C          120.46254099999999        4.25678000000000       -2.78479500000000
C          120.08382999999999        5.44671500000000       -2.15137800000000
C          120.10352800000000        6.65444600000000       -2.85245500000000
C          120.50041399999999        6.66767000000000       -4.18534200000000
O          120.50964499999999        7.86618400000000       -4.84108900000000
C          120.87758899999999        5.49317800000000       -4.83285700000000
C          120.85581600000000        4.28755300000000       -4.12976000000000
C          121.55251800000001        2.38708400000000       -1.55895600000000
C          122.87274300000000        2.97471700000000       -1.70519500000000
C          123.75755899999999        2.16114000000000       -1.13674700000000
C          123.03712000000000        1.03342800000000       -0.59850200000000
N          121.71720200000000        1.21879800000000       -0.86815300000000
H          124.77873400000000        0.11384700000000        0.14447500000000
H          124.65372600000001       -2.49804000000000        1.15994600000000
H          122.70310300000000       -4.09692600000000        2.16631200000000
H          120.91879400000001       -0.65011000000000        0.52429800000000
H          119.44601700000000       -5.54077300000000        1.31264300000000
H          119.38188599999998       -7.51288300000000        2.80393700000000
H          119.58146200000000       -8.21219300000000        4.92613800000000
H          120.27409500000000       -4.97589100000000        6.17646500000000
H          120.33353500000000       -3.00289300000000        4.65745000000000
H          117.28626800000001       -3.52479400000000        2.75840400000000
H          115.54287400000000       -1.95536600000000        1.73837900000000
H          115.83775999999999        1.61742000000000       -2.38473700000000
H          117.79869800000000        3.16671700000000       -3.42405200000000
H          119.40729300000000        0.89858300000000       -0.26222800000000
H          119.77652699999999        5.41837700000000       -1.10842300000000
H          119.81090499999999        7.57296200000000       -2.35568600000000
H          120.81890199999998        7.69651700000000       -5.74483000000000
H          121.18956999999999        5.48748100000000       -5.87058000000000
H          121.14798300000000        3.35774900000000       -4.61389400000000
H          123.10081099999998        3.90943600000000       -2.18481900000000
H          124.81949100000000        2.31565700000000       -1.07583800000000
C           65.75430400000000        0.00501900000000        0.00473800000000
C           64.54536400000001       -0.00843700000000       -0.00371000000000
C           63.12383500000000        0.00038300000000       -0.01569300000000
C           61.91216599999999        0.00782100000000       -0.00483000000000
C           67.17090800000000       -0.00165700000000        0.00527100000000
C           68.39160399999999        0.00782100000000       -0.00483000000000
C           81.13693700000000        0.00501900000000        0.00473800000000
C           79.92799699999999       -0.00843700000000       -0.00371000000000
C           78.50646900000000        0.00038300000000       -0.01569300000000
C           77.29479900000000        0.00782100000000       -0.00483000000000
C           82.55354099999998       -0.00165700000000        0.00527100000000
C           83.77423699999999        0.00782100000000       -0.00483000000000
C           96.51957000000000        0.00501900000000        0.00473800000000
C           95.31063099999999       -0.00843700000000       -0.00371000000000
C           93.88910199999998        0.00038300000000       -0.01569300000000
C           92.67743200000000        0.00782100000000       -0.00483000000000
C           97.93617399999999       -0.00165700000000        0.00527100000000
C           99.15687000000000        0.00782100000000       -0.00483000000000
C          111.90220300000000        0.00501900000000        0.00473800000000
C          110.69326400000000       -0.00843700000000       -0.00371000000000
C          109.27173499999999        0.00038300000000       -0.01569300000000
C          108.06006599999999        0.00782100000000       -0.00483000000000
C          113.31880800000000       -0.00165700000000        0.00527100000000
C          114.53950399999999        0.00782100000000       -0.00483000000000
C           69.27348300000000       -0.00373400000000        0.00321100000000
C           70.07762500000000       -1.03530600000000       -0.90210600000000
C           69.56685400000001       -1.76651300000000       -1.95938500000000
C           70.60269400000000       -2.58380700000000       -2.45617800000000
C           71.72263700000001       -2.32986800000000       -1.68440100000000
N           71.41160600000001       -1.33294500000000       -0.79317800000000
C           73.12595399999999       -3.06425600000000       -1.81894200000000
C           73.12849199999999       -4.40833800000000       -2.43711100000000
C           73.60110899999999       -4.58115500000000       -3.74624300000000
C           73.60603999999998       -5.84517800000000       -4.33619000000000
C           73.12642000000000       -6.93357800000000       -3.61129300000000
O           73.11000399999999       -8.18640100000000       -4.15724900000000
C           72.63537700000001       -6.78055700000000       -2.32048500000000
C           72.63634700000000       -5.51515600000000       -1.73357400000000
C           74.25574800000000       -2.46373100000000       -1.36835900000000
C           75.54931999999999       -3.11149500000000       -1.43568800000000
C           76.46175599999999       -2.27460800000000       -0.94429600000000
N           74.45773100000000       -1.24383300000000       -0.79587100000000
C           75.78831099999999       -1.05994100000000       -0.53561100000000
C           76.44423000000000       -0.00373400000000        0.00321100000000
C           75.64421900000001        1.30156300000000        0.43400600000000
C           76.18919000000000        2.55334300000000        0.63670000000000
C           75.16797400000000        3.38571900000000        1.13568200000000
C           74.00662000000000        2.63733200000000        1.17226200000000
N           74.30410099999999        1.37517300000000        0.71929900000000
C           72.59082399999998        3.13594000000000        1.70767800000000
C           72.56109900000000        4.35301500000000        2.55253100000000
C           72.70942700000001        5.61323100000000        1.96127200000000
C           72.66965399999999        6.77183600000000        2.74226700000000
C           72.44406700000000        6.66636500000000        4.11325200000000
O           72.34957100000000        7.81402700000000        4.84567000000000
C           72.30117899999999        5.41938000000000        4.72221200000000
C           72.37239399999999        4.26292100000000        3.93929100000000
C           71.45358100000000        2.44757500000000        1.39549900000000
C           70.15411000000000        2.86512800000000        1.87959100000000
C           69.24790700000000        1.99383500000000        1.43368700000000
C           69.92575900000000        1.01232000000000        0.61895100000000
N           71.25499600000001        1.34368200000000        0.63112300000000
H           68.55255099999999       -1.72421200000000       -2.32185200000000
H           70.54400800000001       -3.29676300000000       -3.27129700000000
H           72.07604700000000       -0.87151700000000       -0.17579300000000
H           73.97070100000001       -3.71484600000000       -4.29549000000000
H           73.99895099999999       -5.94940200000000       -5.33491100000000
H           73.41117800000001       -8.10162900000000       -5.07584600000000
H           72.24817800000000       -7.63355800000000       -1.78103300000000
H           72.25283799999998       -5.37172300000000       -0.72546400000000
H           75.75778099999999       -4.10117600000000       -1.80961500000000
H           77.51099400000000       -2.48996800000000       -0.86486900000000
H           77.22293600000000        2.82740300000000        0.49261800000000
H           75.27389199999999        4.41434000000000        1.45760000000000
H           73.63152400000000        0.62546200000000        0.60721900000000
H           72.85757500000000        5.67765600000000        0.88528700000000
H           72.79501000000000        7.74644800000000        2.28805800000000
H           71.73731700000000        7.61736300000000        5.58228200000000
H           72.13551499999998        5.32674800000000        5.78744600000000
H           72.25738200000001        3.28081200000000        4.38778200000000
H           69.93797799999999        3.72364800000000        2.49067000000000
H           68.19191900000000        2.05133700000000        1.63213300000000
C           84.65611600000000       -0.00373400000000        0.00321100000000
C           85.46025799999998       -1.03530600000000       -0.90210600000000
C           84.94948700000000       -1.76651300000000       -1.95938500000000
C           85.98532699999998       -2.58380700000000       -2.45617800000000
C           87.10527000000000       -2.32986800000000       -1.68440100000000
N           86.79424000000000       -1.33294500000000       -0.79317800000000
C           88.50858799999999       -3.06425600000000       -1.81894200000000
C           88.51112499999999       -4.40833800000000       -2.43711100000000
C           88.98374199999999       -4.58115500000000       -3.74624300000000
C           88.98867400000000       -5.84517800000000       -4.33619000000000
C           88.50905400000001       -6.93357800000000       -3.61129300000000
O           88.49263700000000       -8.18640100000000       -4.15724900000000
C           88.01801099999999       -6.78055700000000       -2.32048500000000
C           88.01898100000000       -5.51515600000000       -1.73357400000000
C           89.63838099999998       -2.46373100000000       -1.36835900000000
C           90.93195299999999       -3.11149500000000       -1.43568800000000
C           91.84438899999999       -2.27460800000000       -0.94429600000000
N           89.84036399999999       -1.24383300000000       -0.79587100000000
C           91.17094400000001       -1.05994100000000       -0.53561100000000
C           91.82686300000000       -0.00373400000000        0.00321100000000
C           91.02685300000000        1.30156300000000        0.43400600000000
C           91.57182299999999        2.55334300000000        0.63670000000000
C           90.55060700000000        3.38571900000000        1.13568200000000
C           89.38925299999998        2.63733200000000        1.17226200000000
N           89.68673399999999        1.37517300000000        0.71929900000000
C           87.97345700000000        3.13594000000000        1.70767800000000
C           87.94373299999999        4.35301500000000        2.55253100000000
C           88.09206000000000        5.61323100000000        1.96127200000000
C           88.05228800000000        6.77183600000000        2.74226700000000
C           87.82670000000000        6.66636500000000        4.11325200000000
O           87.73220499999999        7.81402700000000        4.84567000000000
C           87.68381199999999        5.41938000000000        4.72221200000000
C           87.75502700000000        4.26292100000000        3.93929100000000
C           86.83621399999998        2.44757500000000        1.39549900000000
C           85.53674399999998        2.86512800000000        1.87959100000000
C           84.63054000000000        1.99383500000000        1.43368700000000
C           85.30839300000000        1.01232000000000        0.61895100000000
N           86.63762999999999        1.34368200000000        0.63112300000000
H           83.93518400000001       -1.72421200000000       -2.32185200000000
H           85.92664199999999       -3.29676300000000       -3.27129700000000
H           87.45868000000000       -0.87151700000000       -0.17579300000000
H           89.35333399999999       -3.71484600000000       -4.29549000000000
H           89.38158400000000       -5.94940200000000       -5.33491100000000
H           88.79381200000000       -8.10162900000000       -5.07584600000000
H           87.63081200000001       -7.63355800000000       -1.78103300000000
H           87.63547100000000       -5.37172300000000       -0.72546400000000
H           91.14041399999999       -4.10117600000000       -1.80961500000000
H           92.89362700000000       -2.48996800000000       -0.86486900000000
H           92.60557000000000        2.82740300000000        0.49261800000000
H           90.65652600000000        4.41434000000000        1.45760000000000
H           89.01415699999998        0.62546200000000        0.60721900000000
H           88.24020800000000        5.67765600000000        0.88528700000000
H           88.17764399999999        7.74644800000000        2.28805800000000
H           87.11995000000000        7.61736300000000        5.58228200000000
H           87.51814800000000        5.32674800000000        5.78744600000000
H           87.64001600000000        3.28081200000000        4.38778200000000
H           85.32061100000000        3.72364800000000        2.49067000000000
H           83.57455200000000        2.05133700000000        1.63213300000000
C          100.03874999999999       -0.00373400000000        0.00321100000000
C          100.84289099999999       -1.03530600000000       -0.90210600000000
C          100.33212099999999       -1.76651300000000       -1.95938500000000
C          101.36795999999998       -2.58380700000000       -2.45617800000000
C          102.48790299999999       -2.32986800000000       -1.68440100000000
N          102.17687300000000       -1.33294500000000       -0.79317800000000
C          103.89122099999999       -3.06425600000000       -1.81894200000000
C          103.89375800000001       -4.40833800000000       -2.43711100000000
C          104.36637500000001       -4.58115500000000       -3.74624300000000
C          104.37130700000000       -5.84517800000000       -4.33619000000000
C          103.89168700000000       -6.93357800000000       -3.61129300000000
O          103.87527100000000       -8.18640100000000       -4.15724900000000
C          103.40064399999999       -6.78055700000000       -2.32048500000000
C          103.40161399999998       -5.51515600000000       -1.73357400000000
C          105.02101399999998       -2.46373100000000       -1.36835900000000
C          106.31458600000001       -3.11149500000000       -1.43568800000000
C          107.22702299999999       -2.27460800000000       -0.94429600000000
N          105.22299700000001       -1.24383300000000       -0.79587100000000
C          106.55357700000000       -1.05994100000000       -0.53561100000000
C          107.20949599999999       -0.00373400000000        0.00321100000000
C          106.40948599999999        1.30156300000000        0.43400600000000
C          106.95445599999999        2.55334300000000        0.63670000000000
C          105.93324100000000        3.38571900000000        1.13568200000000
C          104.77188599999999        2.63733200000000        1.17226200000000
N          105.06936700000000        1.37517300000000        0.71929900000000
C          103.35608999999999        3.13594000000000        1.70767800000000
C          103.32636599999998        4.35301500000000        2.55253100000000
C          103.47469300000000        5.61323100000000        1.96127200000000
C          103.43492100000000        6.77183600000000        2.74226700000000
C          103.20933400000000        6.66636500000000        4.11325200000000
O          103.11483799999999        7.81402700000000        4.84567000000000
C          103.06644500000000        5.41938000000000        4.72221200000000
C          103.13766099999999        4.26292100000000        3.93929100000000
C          102.21884799999998        2.44757500000000        1.39549900000000
C          100.91937700000000        2.86512800000000        1.87959100000000
C          100.01317400000001        1.99383500000000        1.43368700000000
C          100.69102599999999        1.01232000000000        0.61895100000000
N          102.02026300000000        1.34368200000000        0.63112300000000
H           99.31781800000000       -1.72421200000000       -2.32185200000000
H          101.30927499999999       -3.29676300000000       -3.27129700000000
H          102.84131400000000       -0.87151700000000       -0.17579300000000
H          104.73596700000000       -3.71484600000000       -4.29549000000000
H          104.76421700000000       -5.94940200000000       -5.33491100000000
H          104.17644499999999       -8.10162900000000       -5.07584600000000
H          103.01344499999999       -7.63355800000000       -1.78103300000000
H          103.01810399999999       -5.37172300000000       -0.72546400000000
H          106.52304699999999       -4.10117600000000       -1.80961500000000
H          108.27625999999999       -2.48996800000000       -0.86486900000000
H          107.98820300000000        2.82740300000000        0.49261800000000
H          106.03915900000000        4.41434000000000        1.45760000000000
H          104.39679000000000        0.62546200000000        0.60721900000000
H          103.62284099999999        5.67765600000000        0.88528700000000
H          103.56027700000000        7.74644800000000        2.28805800000000
H          102.50258400000000        7.61736300000000        5.58228200000000
H          102.90078099999999        5.32674800000000        5.78744600000000
H          103.02264899999999        3.28081200000000        4.38778200000000
H          100.70324400000000        3.72364800000000        2.49067000000000
H           98.95718499999998        2.05133700000000        1.63213300000000
316
 energy: -552.373760532368 gnorm: 1.937245333126 xtb: 6.5.1 (b24c23e)
C           52.74963264274316        0.01958807721323        0.05785932991401
C           53.46990417665796        1.20356232466885       -0.63121776232822
C           52.85740791131362        2.23477141585316       -1.31597754822348
C           53.87627518379337        3.12473206340192       -1.73336159053142
C           55.08680530048581        2.61788720268090       -1.28781644130886
N           54.82605594570576        1.42372408930049       -0.65842058361523
C           56.50319039595468        3.28803732323203       -1.44125788795003
C           56.55421978539886        4.68846611188423       -1.93252941706668
C           56.82024036405188        4.94832161551226       -3.28335899650389
C           56.85601401233673        6.25987893698914       -3.75681764568038
C           56.62221166861198        7.31223541123252       -2.87313603969007
O           56.64999539133159        8.60861208887183       -3.30095072886419
C           56.35461693291123        7.07098052584564       -1.52913972469482
C           56.32071319698227        5.75781482543175       -1.05875659085947
C           57.64017284540482        2.60904592770234       -1.10803098356999
C           58.94779815620505        3.22841366903425       -1.17312258086026
C           59.85107261223032        2.34067977116901       -0.76945940007906
N           57.83070641764519        1.32812729636046       -0.66104805323775
C           59.16692853889859        1.10598645814034       -0.44057625614732
C           59.83578027603635       -0.00111390699896       -0.00301953905065
C           59.05696738958027       -1.33768961476096        0.31124032842470
C           59.59082810029040       -2.61593349924775        0.30820339774078
C           58.56784267895112       -3.51279770954803        0.69452576803942
C           57.42437238424359       -2.76720596450995        0.91514050241274
N           57.72225891605714       -1.45249885549613        0.63106528582831
C           56.02533249147233       -3.32027089424465        1.38433812245652
C           55.98667093288068       -4.63595459096967        2.06783892559603
C           56.36499278256284       -4.74749926147684        3.41142695027217
C           56.34532387911428       -5.98925726128830        4.04766587480078
C           55.94843872111633       -7.11842840573048        3.33813995803690
O           55.93900044125268       -8.31793191640614        3.99036049375590
C           55.57123794759023       -7.02650363094511        1.99950247987413
C           55.59301269174952       -5.78361747941047        1.36671549222409
C           54.89482708782612       -2.59245342681613        1.15889152680968
C           53.57586754689139       -3.03551163952710        1.57468365085979
C           52.69018242476989       -2.11650547268845        1.19779592295521
C           53.41255185949346       -1.05466427516828        0.54104309261582
N           54.73295638054847       -1.37955509689244        0.54972989686026
H           51.67050604481111        0.06943068081837        0.16851329444439
H           51.79522236217095        2.33636890745494       -1.47830221181763
H           53.74564996431504        4.04759242827919       -2.27834612003317
H           55.52987445289576        0.80201788580155       -0.26816234095678
H           57.00275040776358        4.11123283899794       -3.95444392142608
H           57.06690852560003        6.43236637609134       -4.80612408103798
H           56.86729631727315        8.59568382446647       -4.24593353142001
H           56.17476339268718        7.89573254616669       -0.84802297593987
H           56.11531125927215        5.55089967760003       -0.01068559380170
H           59.16233243059289        4.23645190822681       -1.47703250198837
H           60.90641054516744        2.52875704441895       -0.70873334284209
H           60.61097054990135       -2.87146524935542        0.06500655766771
H           58.65020299363103       -4.58364064977152        0.80551335814604
H           57.04171528288611       -0.69769710250535        0.60881901904202
H           56.67224496552897       -3.85485960859556        3.95199277097045
H           56.63785302518307       -6.06940890501197        5.08906676091384
H           55.63000388066929       -8.98659534615438        3.35975238120176
H           55.25929124997922       -7.89704284790685        1.43374650927259
H           55.30090946770905       -5.68789054443910        0.32266616993527
H           53.34820846240562       -3.94384813446016        2.10082352282357
H           51.62895132462097       -2.14833725864594        1.36029417062689
C          123.69918588417950        0.04724981453193        0.04276414260456
C          122.97891496462725       -1.17284841949928        0.66563971119587
C          123.59141077321352       -2.30666656735297        1.16238024436258
C          122.57254519795821       -3.13919756502186        1.68499730093773
C          121.36201188039168       -2.49026978107539        1.49981116712272
N          121.62276280453682       -1.31484764532928        0.83607461301563
C          119.94563190930560       -2.98189872566599        1.98037943154564