211
 energy: -328.187325428020 gnorm: 0.645128675275 xtb: 6.5.1 (b24c23e)
Zn          29.40027400000000       -0.01852100000000       -0.02001300000000
C           26.04158500000000        0.18474000000000       -0.25532300000000
C           26.70590500000000        1.28557600000000        0.10615200000000
C           26.05625500000000        2.52906500000000        0.50359800000000
C           26.99897000000000        3.40490500000000        0.79375000000000
C           28.30469100000000        2.76413800000000        0.58643800000000
N           28.12552600000000        1.41558100000000        0.15336600000000
C           29.49986400000000        3.35964500000000        0.77271200000000
C           30.79517999999999        2.66818400000000        0.54489000000000
C           32.09195100000000        3.35482600000000        0.54578700000000
C           33.02513400000000        2.45185800000000        0.32872000000000
N           30.92805100000000        1.39393500000000        0.33294500000000
C           32.33150800000000        1.17685500000000        0.18542800000000
C           32.92309700000000       -0.01325600000000       -0.01356000000000
C           32.16452800000000       -1.27973100000000       -0.15466900000000
C           32.72171700000000       -2.48425500000000       -0.13835400000000
C           31.67448100000000       -3.44983900000000       -0.39832900000000
C           30.54031200000000       -2.77550700000000       -0.55313200000000
C           29.23835900000000       -3.40005700000000       -0.91176500000000
C           29.21329300000000       -4.84185100000000       -1.24633000000000
C           29.14681700000000       -5.25490200000000       -2.58459000000000
C           29.14217500000000       -6.62081200000000       -2.90409500000000
C           29.03639300000000       -7.06068300000000       -4.33442100000000
C           29.16998100000000       -7.57284900000000       -1.87314000000000
C           29.22704400000000       -7.16775800000000       -0.53129900000000
C           29.29378900000000       -8.19834400000000        0.55723200000000
C           29.25858200000000       -5.79936100000000       -0.22282800000000
C           28.08521500000000       -2.70565700000000       -0.92562300000000
C           26.76454500000000       -3.24609800000000       -1.24414500000000
C           25.90929100000000       -2.26159300000000       -1.05470800000000
C           26.67297400000000       -1.09365500000000       -0.61910200000000
N           27.94319200000000       -1.34064600000000       -0.53993500000000
N           30.76053200000000       -1.37029300000000       -0.40614900000000
C           29.54939600000000        4.76991000000000        1.21741200000000
C           29.23391300000000        5.80540100000000        0.32563200000000
C           29.27689800000000        7.14167700000000        0.74891900000000
C           28.95675400000000        8.25069200000000       -0.20962200000000
C           29.67753500000000        7.43978700000000        2.05994700000000
C           30.01856300000000        6.41123000000000        2.95099300000000
C           30.40089400000000        6.73200100000000        4.36565400000000
C           29.93744700000000        5.07634400000000        2.52897500000000
H           24.95863400000000        0.22171900000000       -0.27360200000000
H           24.99164100000000        2.71561800000000        0.56297400000000
H           26.81303700000000        4.41759000000000        1.12638000000000
H           32.27187500000000        4.41173600000000        0.69225000000000
H           34.08737199999999        2.64937200000000        0.27397800000000
H           33.76735600000000       -2.71571900000000        0.01183000000000
H           31.81004300000000       -4.51952400000000       -0.48477300000000
H           29.10273200000000       -4.51349500000000       -3.37439600000000
H           29.53889200000000       -8.04044500000000       -4.48197800000000
H           27.96607200000000       -7.15713700000000       -4.61194600000000
H           29.52091700000000       -6.32202800000000       -5.00855200000000
H           29.14884500000000       -8.62931400000000       -2.11463500000000
H           29.12522600000000       -7.74312500000000        1.55754800000000
H           28.51501900000000       -8.97328000000000        0.39375500000000
H           30.29296800000000       -8.68238400000000        0.54805600000000
H           29.31534900000000       -5.47564600000000        0.81059300000000
H           26.51069400000000       -4.24945300000000       -1.55924300000000
H           24.83769100000000       -2.32310600000000       -1.19187600000000
H           28.94988700000000        5.56989700000000       -0.69340200000000
H           28.46785100000000        9.09454600000000        0.32241000000000
H           28.26556200000000        7.89880400000000       -1.00456600000000
H           29.89403500000000        8.61435900000000       -0.67955800000000
H           29.72335100000000        8.47260300000000        2.38602500000000
H           29.49143300000000        6.73923100000000        5.00066600000000
H           30.89102200000000        7.72688800000000        4.42420300000000
H           31.11221700000000        5.97479500000000        4.76046600000000
H           30.17951000000000        4.27540000000000        3.21788800000000
Zn          59.40868099999999       -0.00559300000000       -0.01030000000000
C           62.76736900000000        0.16383700000000       -0.27102900000000
C           62.10305000000000       -0.48978400000000       -1.22773400000000
C           62.75269900000000       -1.21766200000000       -2.31144100000000
C           61.80998400000000       -1.74014800000000       -3.07189600000000
C           60.50426300000000       -1.36266400000000       -2.51416200000000
N           60.68342900000000       -0.57132000000000       -1.33945700000000
C           59.30909100000000       -1.70734300000000       -3.03428100000000
C           58.01377400000000       -1.29604800000000       -2.43356700000000
C           56.71700400000000       -1.48804600000000       -3.09282000000000
C           55.78382000000000       -1.02820500000000       -2.28596500000000
N           57.88090400000000       -0.73777600000000       -1.26867900000000
C           56.47744600000000       -0.53566200000000       -1.10124200000000
C           55.88585800000000       -0.01325600000000       -0.01356000000000
C           56.64442600000000        0.47481500000000        1.16357900000000
C           56.08723699999999        0.79444000000000        2.32503700000000
C           57.13447300000000        1.31292300000000        3.18008900000000
C           58.26864200000000        1.27389900000000        2.48931900000000
C           59.57059500000000        1.79220800000000        2.98935300000000
C           59.59566100000000        2.51489300000000        4.28103100000000
C           59.66213700000000        3.91523800000000        4.30523500000000
C           59.66677899999999        4.60233300000000        5.52822000000000
C           59.77256100000000        6.09857000000000        5.55255500000000
C           59.63897300000000        3.87713800000000        6.72960900000000
C           59.58190999999999        2.47556900000000        6.71404700000000
C           59.51516500000000        1.71693900000000        8.00690700000000
C           59.55037200000000        1.79838000000000        5.48560200000000
C           60.72373900000000        1.61222300000000        2.31854100000000
C           62.04440899999999        2.06859500000000        2.74895700000000
C           62.89966300000000        1.61259500000000        1.85609700000000
C           62.13598099999999        0.86909600000000        0.85557600000000
N           60.86576200000000        0.86181100000000        1.11484300000000
N           58.04842300000000        0.74156500000000        1.18055900000000
C           59.25955799999999       -2.52703200000000       -4.26501900000000
C           59.57504099999999       -1.95874200000000       -5.50782200000000
C           59.53205599999999       -2.73726900000000       -6.67345400000000
C           59.85220000000000       -2.12532200000000       -8.00546000000000
C           59.13142000000000       -4.07946200000000       -6.59484100000000
C           58.79039099999999       -4.64897800000000       -5.35890200000000
C           58.40805999999999       -6.09701600000000       -5.27320500000000
C           58.87150699999999       -3.87205700000000       -4.19425000000000
H           63.85032000000000        0.17109900000000       -0.31163500000000
H           63.81731299999999       -1.32662200000000       -2.47409200000000
H           61.99591699999999       -2.34152500000000       -3.95196400000000
H           56.53707899999999       -1.92292500000000       -4.06718600000000
H           54.72158200000000       -1.03060700000000       -2.49091000000000
H           55.04159799999999        0.71462300000000        2.58915800000000
H           56.99891100000000        1.69371200000000        4.18343400000000
H           59.70622200000000        4.46744700000000        3.37327800000000
H           59.27006200000000        6.51302500000000        6.45251900000000
H           60.84288200000000        6.39197600000000        5.56794400000000
H           59.28803700000000        6.54044300000000        4.65544100000000
H           59.66010899999999        4.40316900000000        7.67709400000000
H           59.68372800000000        0.62944300000000        7.84813100000000
H           60.29393500000000        2.08966800000000        8.70570900000000
H           58.51598700000000        1.86049100000000        8.46926200000000
H           59.49360500000000        0.71569300000000        5.46234700000000
H           62.29826000000000        2.65053600000000        3.62494300000000
H           63.97126300000000        1.76146500000000        1.87699500000000
H           59.85906700000000       -0.91442900000000       -5.56528700000000
H           60.34110300000000       -2.87122400000000       -8.66786300000000
H           60.54339199999999       -1.26384500000000       -7.88876300000000
H           58.91492000000000       -1.77519100000000       -8.48556500000000
H           59.08560300000000       -4.68015000000000       -7.49606700000000
H           59.31752099999999       -6.70894300000000       -5.10338600000000
H           57.91793200000000       -6.43019200000000       -6.21247200000000
H           57.69673800000000       -6.26544600000000       -4.43602500000000
H           58.62944500000000       -4.31078800000000       -3.23319500000000
C           36.69860400000000       -0.00052500000000       -0.01103500000000
C           35.44633399999999       -0.01970600000000       -0.01538400000000
C           38.01227299999999       -0.00129100000000       -0.00910300000000
C           39.51540600000000       -0.01970600000000       -0.01538400000000
C           50.63188799999999       -0.00052500000000       -0.01103500000000
C           49.37961799999999       -0.01970600000000       -0.01538400000000
C           51.94555600000000       -0.00129100000000       -0.00910300000000
C           53.44869000000000       -0.01970600000000       -0.01538400000000
Zn          44.29963300000000       -0.06464500000000       -0.02582700000000
C           40.93027099999999        0.02926100000000        0.02936200000000
C           41.58654000000000        1.20018200000000       -0.06930300000000
C           40.94657500000000        2.51722500000000       -0.08420400000000
C           41.88273700000000        3.43081200000000       -0.24578300000000
C           43.17917800000000        2.75238200000000       -0.34585600000000
N           43.00099700000000        1.33913700000000       -0.22474900000000
C           44.36322700000000        3.37229900000000       -0.53624200000000
C           45.66054999999999        2.64967800000000       -0.57142800000000
C           46.92952499999999        3.26686800000000       -0.97862300000000
C           47.88226200000000        2.37037400000000       -0.82382600000000
N           45.82851500000000        1.42207100000000       -0.18963800000000
C           47.22715000000000        1.16893000000000       -0.32289400000000
C           47.84208100000000        0.02926100000000        0.02936200000000
C           47.09090200000000       -1.15469200000000        0.49718400000000
C           47.62540100000000       -2.16710600000000        1.16801100000000
C           46.59298700000000       -3.17487300000000        1.31796300000000
C           45.49935800000000       -2.71026500000000        0.72436400000000
C           44.24638100000000       -3.48286000000000        0.54791400000000
C           44.30971600000000       -4.96242800000000        0.63391500000000
C           43.61204100000000       -5.64707300000000        1.64105000000000
C           43.68772000000000       -7.04417600000000        1.73345100000000
C           42.97764200000000       -7.76357800000000        2.84148000000000
C           44.49310199999999       -7.75464800000000        0.83069700000000
C           45.18831100000000       -7.08064500000000       -0.18420200000000
C           46.07285900000000       -7.84510000000000       -1.12403900000000
C           45.10543800000000       -5.68312300000000       -0.26873800000000
C           43.07447600000000       -2.87047500000000        0.29155600000000
C           41.79966500000000       -3.53033800000000        0.02927300000000
C           40.91140300000000       -2.56782500000000       -0.11362700000000
C           41.60797100000000       -1.28739000000000        0.05011600000000
N           42.87226200000000       -1.45737600000000        0.28396900000000
N           45.72338900000000       -1.41107100000000        0.18024100000000
C           44.39762499999999        4.84321900000000       -0.70923900000000
C           44.98499900000000        5.65200100000000        0.27441800000000
C           45.03345100000000        7.04421900000000        0.11262600000000
C           45.70520999999999        7.89933200000000        1.14619200000000
C           44.51470800000000        7.62328200000000       -1.05554900000000
C           43.91417400000000        6.82365900000000       -2.03967400000000
C           43.39232300000000        7.44631400000000       -3.30004200000000
C           43.87210800000000        5.43218500000000       -1.86925000000000
H           39.89257600000000        2.73685400000000        0.02053200000000
H           41.69744300000000        4.49654400000000       -0.28494200000000
H           47.07883600000000        4.27548600000000       -1.34118800000000
H           48.93186500000000        2.52555900000000       -1.03548500000000
H           48.64929100000000       -2.25025900000000        1.50757200000000
H           46.70946800000000       -4.14284300000000        1.78757000000000
H           43.01814899999999       -5.09050400000000        2.35676900000000
H           42.73878200000000       -8.80763900000000        2.54471200000000
H           43.62564800000000       -7.78271100000000        3.74246300000000
H           42.02475000000000       -7.25089300000000        3.09184600000000
H           44.58047500000000       -8.83150200000000        0.91823500000000
H           46.22170400000000       -7.28551900000000       -2.07273300000000
H           45.61590200000000       -8.82688600000000       -1.37295000000000
H           47.06087999999999       -8.01408500000000       -0.64581000000000
H           45.65862199999999       -5.15425600000000       -1.03605900000000
H           41.59703600000000       -4.59038400000000       -0.04760800000000
H           39.86198100000000       -2.72130100000000       -0.32567700000000
H           45.40582300000000        5.19566700000000        1.16308200000000
H           45.27181400000000        8.92214200000000        1.15246700000000
H           46.78991700000000        7.96731500000000        0.92049300000000
H           45.57187299999999        7.46470700000000        2.15960800000000
H           44.57809900000000        8.69552000000000       -1.19923800000000
H           42.96607999999999        8.45018200000000       -3.08964600000000
H           42.59114200000000        6.81982900000000       -3.74801500000000
H           44.22127300000000        7.54989600000000       -4.03130700000000
H           43.43642400000000        4.80517100000000       -2.63878900000000
211
 energy: -328.402159457230 gnorm: 0.397941447180 xtb: 6.5.1 (b24c23e)
Zn          29.40197307556930       -0.01418174920332       -0.02482428444762
C           26.04118516334981        0.16684226651697       -0.26138380900650
C           26.71053743174155        1.28609110198829        0.10720693029792
C           26.05609831211412        2.52253106223481        0.50112464894272
C           27.01026011066467        3.40764688090298        0.79449967552308
C           28.30444764651746        2.75953628969100        0.58622209907430
N           28.10278239636781        1.43648486925602        0.16316040022812
C           29.51795300457010        3.35646209676935        0.77016525228548
C           30.79209912059169        2.68531138851917        0.55060247168195
C           32.08036710378710        3.36692661901998        0.55070244779897
C           33.02665847947690        2.44648416382931        0.32713960715834
N           30.94838924866237        1.39506783378296        0.33056228100491
C           32.34912441392368        1.17200630914996        0.18456660230734
C           32.92436763063149       -0.03201152665744       -0.01268652939897
C           32.16858123250314       -1.26611129802723       -0.15922099629534
C           32.72846261997460       -2.51076101269345       -0.14209246184368
C           31.70034708504704       -3.45365509008719       -0.39719671353710
C           30.53351726045950       -2.76040750665300       -0.55592152432919
C           29.25601673292308       -3.38849383212485       -0.90682146627720
C           29.22373425926932       -4.84077090493052       -1.24543704005927
C           29.14789062437332       -5.25723021702137       -2.57926707021298
C           29.13826501051538       -6.61860534952484       -2.89873348040062
C           29.03861828389477       -7.06037196096864       -4.33439737329862
C           29.17048565345740       -7.56557880109370       -1.87147915819812
C           29.22863878849502       -7.16311044867944       -0.53397203044616
C           29.29217754875778       -8.19787290901714        0.55765585252868
C           29.26082035195909       -5.79997975585596       -0.22765290259233
C           28.08468601485844       -2.70384677474460       -0.92498332617617
C           26.77226936276283       -3.24509106984249       -1.24260192856807
C           25.89713359075033       -2.25004459029140       -1.05214043989307
C           26.65039121160476       -1.08610125476429       -0.61642826710022
N           27.93747843540767       -1.35215361558523       -0.54683989111191
N           30.77469172977677       -1.37567912572803       -0.40599848535023
C           29.55763208392036        4.77345967498669        1.21627149234184
C           29.23368589515639        5.80686900757618        0.33123765241141
C           29.28000854828948        7.13842489978182        0.75095737681074
C           28.95466496501714        8.25077758626185       -0.20920223320439
C           29.67709468646272        7.43351748314026        2.05803578907183
C           30.01384586399472        6.41026019945888        2.94798296192124
C           30.40318432881418        6.73219028515086        4.36540461803372
C           29.93910311845621        5.08093939405276        2.52518669655946
H           24.95854357887563        0.21408765092039       -0.27699268079657
H           24.99184159597259        2.70532969820666        0.55928663854470
H           26.82703271046388        4.41934562717752        1.12677127107235
H           32.26113421558037        4.41899521426589        0.69488419975847
H           34.08792985618150        2.63723143148122        0.27179670081744
H           33.77137061804564       -2.72569948060129        0.01193163294309
H           31.81818018532880       -4.52172543821402       -0.48207676480130
H           29.10418605663969       -4.51552573666271       -3.37132668507425
H           29.53249306416205       -8.03299972486499       -4.48133992996752
H           27.97688595386412       -7.15715467248443       -4.61268471702748
H           29.51462056271646       -6.32792340653169       -5.00403895345998
H           29.14939710437593       -8.62489533068464       -2.11373190837925
H           29.12793589390050       -7.74721831163893        1.54858120860583
H           28.52335739079739       -8.96908639730562        0.39603908478728
H           30.28269346001615       -8.68028381313295        0.55010852052490
H           29.31497924203602       -5.47678752259121        0.80750565753354
H           26.52382573498179       -4.24895858699336       -1.55820118111391
H           24.83095876791370       -2.31426026596808       -1.19031654363082
H           28.95028764353803        5.57020572599440       -0.68990722260945
H           28.47364983024569        9.08930863523230        0.31693939467761
H           28.27291081217230        7.90227918548030       -0.99949390414928
H           29.88377952007720        8.61345341332426       -0.67709887628940
H           29.72335761126763        8.46877066452776        2.38485242970304
H           29.50148155472515        6.73986233667424        4.99790863612762
H           30.88535042769449        7.71945462200048        4.42527567912358
H           31.10470141715830        5.98075624575793        4.75900496597379
H           30.17964224535587        4.27789600236744        3.21541179840949
Zn          59.40691024759034       -0.00217203536862       -0.01578952266578
C           62.76775127845816        0.17462474943235       -0.25554085818309
C           62.09842592755132       -0.49093831282688       -1.22793443840174
C           62.75284090271285       -1.21346955147662       -2.30585891426971
C           61.79865566520218       -1.74161553607447       -3.07430484601310
C           60.50445415298579       -1.36114512289651       -2.50970796728748
N           60.70612280063084       -0.58654247233377       -1.35679021517380
C           59.29075178821002       -1.70391061543000       -3.03173800202738
C           58.01659840594136       -1.30609425545234       -2.44802512704195
C           56.72845649782023       -1.49609408950045       -3.10296626649426
C           55.78190474379051       -1.02526540033254       -2.28144445572761
N           57.85942064690300       -0.73533534141442       -1.26976531038269
C           56.45801468274220       -0.53335857851014       -1.09653658784108
C           55.87966639390380       -0.00841360338791        0.00474964897381
C           56.63879988425180        0.47550436597478        1.14908092959292
C           56.08011474815626        0.80548259971732        2.34963471406385
C           57.10853742741075        1.31283464602103        3.18397318202995
C           58.27520690261788        1.27223251868072        2.47375793584298
C           59.55283160843035        1.78419588027213        2.97952421970042
C           59.58517354953529        2.51371879019471        4.28021351940181
C           59.66106601122330        3.91076783163937        4.30893343908661
C           59.67069237799456        4.59656949212821        5.52759137584234
C           59.77033316535382        6.09845626090035        5.55225797768677
C           59.63847035134199        3.87351194798993        6.72307817928541
C           59.58031642755912        2.47683513546562        6.70884661489928
C           59.51677790427582        1.71639685452455        8.00656390686705
C           59.54812273375474        1.80317258991377        5.48483938200237
C           60.72422228492628        1.61108699560603        2.31695748069336
C           62.03666470298767        2.06682250979646        2.74841635108155
C           62.91180013965658        1.60692111382451        1.84572759254463
C           62.15853710940979        0.86443079809089        0.84907634057011
N           60.87144833957552        0.87163170197211        1.12394126406127
N           58.03336684039472        0.74255182637604        1.18534337495026
C           59.25123921052059       -2.52687709521270       -4.26869328141576
C           59.57526504287806       -1.96451955433290       -5.50763982536101
C           59.52894657834818       -2.73831417539002       -6.66975876704499
C           59.85429067253928       -2.12574757995539       -8.00541425594605
C           59.13186265515748       -4.07587341815189       -6.58933793559419
C           58.79511699447406       -4.64582034374890       -5.35880161392572
C           58.40576852617252       -6.09682256595965       -5.27345142800501
C           58.86984233511679       -3.86968357537348       -4.19969478523219
H           63.85039445839544        0.17647322248290       -0.30525259280991
H           63.81709514720612       -1.32021951867712       -2.46524028851702
H           61.98189251045871       -2.34237731926519       -3.95352455861897
H           56.54786370477427       -1.92744857691953       -4.07335495884070
H           54.72073059695014       -1.02517697797585       -2.47992990283823
H           55.03735250430000        0.71736982515459        2.59895125720923
H           56.99082592233788        1.69169860014508        4.18622466616306
H           59.70476495984983        4.46506738147692        3.37607299703090
H           59.27646252355802        6.51032969463456        6.44554053263349
H           60.83206524023663        6.39268439759684        5.56775556299798
H           59.29433309223286        6.53774843993760        4.66235849411436
H           59.65955482144967        4.40106517983168        7.67308857830980
H           59.68101643627276        0.63919500738226        7.84956411530660
H           60.28559206983835        2.08631085366632        8.70230683589627
H           58.52626760601592        1.85793999941254        8.46780262082566
H           59.49397285079933        0.71896847965751        5.46258161962819
H           62.28511437304386        2.64938917760672        3.62474963061023
H           63.97797566968628        1.75750320401949        1.86893388944125
H           59.85866192714412       -0.91786185365282       -5.56460497650719
H           60.33529879787896       -2.86451174898463       -8.66434460045995
H           60.53604234062475       -1.26968290286522       -7.89068648332283
H           58.92517754249749       -1.77730681314412       -8.48399951383624
H           59.08559600416012       -4.67794764831623       -7.49269948275885
H           59.30747185710159       -6.70646233015630       -5.10476000359325
H           57.92360817518176       -6.42914282887577       -6.20502910672770
H           57.70425448986710       -6.26569903830952       -4.44215674280489
H           58.62930850895783       -4.30910687448494       -3.23627140032198
C           36.71523522669035       -0.00192243407694       -0.01070538015273
C           35.45388893059678       -0.02067758095760       -0.01668301030355
C           38.08338728048042       -0.00039554331344       -0.00715549526133
C           39.43016862974356       -0.01873299493884       -0.01197237382441
C           50.65046069733245       -0.00297117463888       -0.01085105474232
C           49.38560843532559       -0.02530037833522       -0.00870617227604
C           52.01998082249913       -0.00144404893207       -0.00789927530459
C           53.35787539153355       -0.01873818052728       -0.01603627820072
Zn          44.30207824489203       -0.05938481055700       -0.02294959591966
C           40.87351380515653        0.00929212751201        0.01965358071799
C           41.57567688902575        1.20260741112786       -0.07037996925251
C           40.94341590985349        2.50829465619294       -0.08350315028938
C           41.89435874329893        3.43259590015818       -0.24722203666208
C           43.17576005697958        2.74634922562886       -0.34507577803022
N           42.96691305157984        1.35747349343356       -0.21861535133506
C           44.37909862229323        3.36800657897639       -0.53812342635593
C           45.65667400741922        2.66897657476196       -0.57251635332660
C           46.91538791616330        3.28181716998634       -0.97882073678332
C           47.88102095617218        2.36653568860213       -0.82164983986758
N           45.84934258028042        1.41936921066933       -0.19900408829826
C           47.23865236057721        1.16996975323862       -0.32458647711720
C           47.87382603985671        0.01364389326791        0.03335564727729
C           47.09380665657098       -1.14980078999540        0.48205806188874
C           47.63065178589798       -2.19254021308031        1.17584609827987
C           46.61808787593473       -3.17863896747213        1.32053709357031
C           45.49456183769518       -2.70167769892823        0.70973247644275
C           44.26131694791590       -3.47223759873496        0.54598526549524
C           44.31884924316869       -4.95880438439440        0.63887812116844
C           43.61406783433720       -5.64750543923302        1.63541032412897
C           43.69257918115171       -7.04015987769663        1.73152593087080
C           42.97592181519991       -7.76356567542894        2.84012606462433
C           44.49163410061229       -7.74743297878974        0.82940544740574
C           45.18786667246545       -7.07646926083280       -0.17983658268069
C           46.07118750677265       -7.84498164001078       -1.12570003301585
C           45.10482771570716       -5.68420049577245       -0.26388792303604