328
 energy: -604.478885260112 gnorm: 0.870862485091 xtb: 6.5.1 (b24c23e)
C           66.02625000000000        0.03124900000000        0.09534800000000
C           66.75664800000000       -1.34634400000000        0.06613300000000
C           66.15136200000001       -2.57894900000000        0.15642700000000
C           67.17432700000001       -3.55472900000000        0.03292200000000
C           68.37015199999999       -2.88317900000000       -0.13335500000000
N           68.10920800000000       -1.53765400000000       -0.05815200000000
C           69.79221500000000       -3.53308100000000       -0.39315900000000
C           70.92122599999999       -2.77601800000000       -0.34477400000000
C           72.22517400000000       -3.32771800000000       -0.65114700000000
C           73.12533299999998       -2.35687400000000       -0.55122600000000
N           71.11597399999999       -1.45200900000000       -0.05245400000000
C           72.44590300000000       -1.13765500000000       -0.15944600000000
C           73.11217300000000        0.03204200000000        0.03237900000000
C           72.33484900000001        1.33640100000000        0.49380200000000
C           72.87698199999998        2.41078400000000        1.17117500000000
C           71.85139700000001        3.37509800000000        1.33462000000000
C           70.70868800000000        2.85782300000000        0.76322500000000
C           69.29737799999999        3.57472400000000        0.67404800000000
C           69.26076499999999        5.04940600000000        0.78006100000000
C           69.57052500000000        5.84343600000000       -0.32997300000000
C           69.54407300000000        7.23670200000000       -0.22885500000000
C           69.20870800000000        7.84479500000000        0.98785000000000
C           69.19083900000000        9.32594100000000        1.05229300000000
O           68.86352199999999        9.79689700000000        2.27080400000000
O           69.43621799999998       10.09425200000000        0.13956200000000
C           68.90067899999998        7.05300200000000        2.10182100000000
C           68.92833800000000        5.66055900000000        1.99548500000000
C           68.17299600000000        2.83374400000000        0.49614800000000
C           66.84993799999999        3.42351100000000        0.39296500000000
C           65.96600300000000        2.44192800000000        0.23932500000000
C           66.68961899999999        1.19454500000000        0.23241900000000
N           68.01062400000001        1.48194300000000        0.37674000000000
N           70.99982700000000        1.59613300000000        0.30031900000000
C           69.83034100000000       -4.97238500000000       -0.74069300000000
C           69.56353700000000       -5.38597800000000       -2.05107200000000
C           69.58204000000001       -6.74362100000000       -2.38068000000000
C           69.87122900000000       -7.69773700000000       -1.39605100000000
C           69.90259300000000       -9.14911800000000       -1.69701400000000
O           69.63595100000001       -9.42700200000000       -2.98696800000000
O           70.13724700000000      -10.04705100000000       -0.90782800000000
C           70.14001200000000       -7.28704000000000       -0.08400900000000
C           70.11651400000000       -5.92868600000000        0.24084600000000
H           64.94820700000000        0.03652100000000       -0.01106600000000
H           65.09397400000000       -2.75591900000000        0.27906100000000
H           67.04773500000000       -4.62709400000000        0.03902900000000
H           68.80878699999998       -0.80027100000000       -0.09413500000000
H           72.43889700000000       -4.34441100000000       -0.92808500000000
H           74.17791800000001       -2.47943200000000       -0.73029500000000
H           73.90028400000000        2.49979100000000        1.50249400000000
H           71.93886000000001        4.33879100000000        1.81251600000000
H           69.82819099999999        5.36171900000000       -1.27107400000000
H           69.78448800000000        7.83701700000000       -1.10247000000000
H           68.89430500000000       10.76675400000000        2.15007200000000
H           68.63586900000000        7.50111900000000        3.05447600000000
H           68.68782899999999        5.03452400000000        2.85269000000000
H           66.61818000000000        4.47218400000000        0.43161300000000
H           64.90211800000000        2.55153600000000        0.13333900000000
H           70.31585800000001        0.94259700000000       -0.07196500000000
H           69.34333500000000       -4.63560800000000       -2.80751700000000
H           69.37004800000000       -7.03754400000000       -3.40440500000000
H           69.69513800000000      -10.40273200000000       -3.02114300000000
H           70.36928899999999       -8.01449300000000        0.69058200000000
H           70.32319900000000       -5.59847100000000        1.25633000000000
C          130.44021300000000        0.00451900000000        0.08902000000000
C          129.70981499999999        1.24898300000000        0.68056400000000
C          130.31510100000000        2.31026600000000        1.31392400000000
C          129.29213600000000        3.23784500000000        1.64102900000000
C          128.09631200000001        2.71213100000000        1.19130600000000
N          128.35725500000001        1.47571100000000        0.65524600000000
C          126.67424800000001        3.40953300000000        1.25047000000000
C          125.54523699999999        2.71113600000000        0.95428200000000
C          124.24128899999999        3.34164000000000        0.92779000000000
C          123.34112999999999        2.42904800000000        0.58181700000000
N          125.35048900000000        1.39660200000000        0.62194000000000
C          124.02056000000000        1.16358600000000        0.38536100000000
C          123.35429000000001        0.03204200000000        0.03237900000000
C          124.13161500000000       -1.34074600000000       -0.13999900000000
C          123.58948099999999       -2.60479400000000       -0.01623800000000
C          124.61506600000000       -3.54003100000000       -0.30250100000000
C          125.75777500000000       -2.82147200000000       -0.58132000000000
C          127.16908499999998       -3.42229300000000       -0.98246100000000
C          127.20569799999998       -4.78797400000000       -1.54888900000000
C          126.89593799999999       -5.00002500000000       -2.89710800000000
C          126.92239100000000       -6.29073700000000       -3.43140800000000
C          127.25775500000000       -7.37980500000000       -2.61649700000000
C          127.27562399999999       -8.73262500000000       -3.22298100000000
O          127.60294099999999       -9.69992200000000       -2.34496900000000
O          127.03024599999999       -9.01015100000000       -4.38330900000000
C          127.56578399999998       -7.17151900000000       -1.26576200000000
C          127.53812600000001       -5.87920300000000       -0.73649500000000
C          128.29346699999999       -2.68020200000000       -0.80925100000000
C          129.61652599999999       -3.16110500000000       -1.16590900000000
C          130.50046000000000       -2.21482700000000       -0.86313900000000
C          129.77684400000001       -1.09675400000000       -0.31003500000000
N          128.45583900000000       -1.41835300000000       -0.30989100000000
N          125.46663700000001       -1.48615900000000       -0.42939800000000
C          126.63612200000000        4.85188000000000        1.58515200000000
C          126.90292599999999        5.80909200000000        0.59930400000000
C          126.88442400000000        7.17040900000000        0.91339600000000
C          126.59523500000000        7.58178000000000        2.22129800000000
C          126.56386999999999        9.01404200000000        2.60302200000000
O          126.83051200000000        9.84079300000000        1.57458500000000
O          126.32921600000000        9.46282200000000        3.71103600000000
C          126.32645100000001        6.62641000000000        3.20993000000000
C          126.34994900000000        5.26658900000000        2.89127100000000
H          131.51825600000001        0.04751800000000       -0.00846200000000
H          131.37248900000000        2.41346800000000        1.50288700000000
H          129.41872900000001        4.19364300000000        2.12729400000000
H          127.65767599999998        0.83273300000000        0.29247000000000
H          124.02756599999998        4.37458200000000        1.13609300000000
H          122.28854500000000        2.61888400000000        0.47670600000000
H          122.56618000000000       -2.83290300000000        0.24000600000000
H          124.52760300000000       -4.61570000000000       -0.30741400000000
H          126.63827199999999       -4.14748900000000       -3.52233100000000
H          126.68197600000001       -6.43563600000000       -4.48144800000000
H          127.57215800000000      -10.51270100000000       -2.88773200000000
H          127.83059400000000       -7.99920200000000       -0.61514700000000
H          127.77863399999998       -5.70395600000000        0.31040900000000
H          129.84828300000001       -4.11579200000000       -1.60154700000000
H          131.56434500000000       -2.26528100000000       -1.00701800000000
H          126.15060600000000       -0.73507600000000       -0.46914600000000
H          127.12312799999999        5.47753200000000       -0.41328200000000
H          127.09641499999999        7.89213000000000        0.13012000000000
H          126.77132600000000       10.72827400000000        1.98151600000000
H          126.09717400000000        6.92935000000000        4.22846100000000
H          126.14326500000000        4.51612200000000        3.65090900000000
C           76.68888699999999        0.04447900000000        0.03482100000000
C           75.43661600000000        0.02529800000000        0.03047300000000
C           78.00255500000000        0.04371300000000        0.03675400000000
C           79.50568799999999        0.02529800000000        0.03047300000000
C           90.56027500000000        0.04447900000000        0.03482100000000
C           89.30800400000000        0.02529800000000        0.03047300000000
C           91.87394300000000        0.04371300000000        0.03675400000000
C           93.37707700000000        0.02529800000000        0.03047300000000
C          104.43166299999999        0.04447900000000        0.03482100000000
C          103.17939299999999        0.02529800000000        0.03047300000000
C          105.74533099999998        0.04371300000000        0.03675400000000
C          107.24846500000000        0.02529800000000        0.03047300000000
C          118.30305099999998        0.04447900000000        0.03482100000000
C          117.05078099999999        0.02529800000000        0.03047300000000
C          119.61671899999999        0.04371300000000        0.03675400000000
C          121.11985300000001        0.02529800000000        0.03047300000000
C           80.77248000000000       -0.02388200000000       -0.02455600000000
C           81.56686100000000        0.76912400000000       -1.14266100000000
C           81.06255800000000        1.23232100000000       -2.34084000000000
C           82.10012500000001        1.95232100000000       -2.98669200000000
C           83.20713600000001        1.90022700000000       -2.16575800000000
N           82.89457800000000        1.11495600000000       -1.08450100000000
C           84.59567600000000        2.61917300000000       -2.41269000000000
C           85.73117100000000        2.11798900000000       -1.85962500000000
C           87.01778299999999        2.76691900000000       -2.00731500000000
C           87.92618000000000        2.04897500000000       -1.35561100000000
N           85.93971800000000        1.00673200000000       -1.09115400000000
C           87.26441400000000        0.90590300000000       -0.75984800000000
C           87.92860899999998       -0.02388200000000       -0.02455600000000
C           87.13393199999999       -1.24396300000000        0.59976200000000
C           87.63673400000000       -2.49756200000000        0.88314900000000
C           86.59875300000000       -3.23986000000000        1.50263600000000
C           85.49330499999999       -2.41821000000000        1.57204100000000
C           84.10569200000000       -2.76423700000000        2.25045600000000
C           84.11820200000000       -3.72512300000000        3.37660400000000
C           83.67983400000000       -5.04271400000000        3.19300000000000
C           83.70647899999999       -5.94940100000000        4.25538100000000
C           84.17637100000000       -5.54338300000000        5.51101600000000
C           84.18844700000000       -6.53697400000000        6.61141800000000
O           84.65261599999999       -6.03476600000000        7.77156200000000
O           83.83061900000000       -7.69946100000000        6.54059500000000
C           84.61921300000000       -4.22753200000000        5.69757900000000
C           84.59026500000000       -3.32423000000000        4.63200700000000
C           82.96967599999999       -2.14742500000000        1.83189500000000
C           81.68377299999999       -2.38391100000000        2.45527700000000
C           80.77521699999998       -1.63698500000000        1.83723500000000
C           81.43641599999999       -0.88608800000000        0.78912500000000
N           82.76044100000000       -1.23123600000000        0.83902700000000
N           85.80663899999999       -1.23486500000000        0.95178500000000
C           84.58728300000000        3.86163500000000       -3.21771900000000
C           84.11727199999999        5.05678400000000       -2.66102600000000
C           84.09437400000000        6.22809000000000       -3.42238900000000
C           84.54041200000000        6.21002000000000       -4.75017700000000
C           84.49959000000000        7.47486200000000       -5.52274100000000
O           84.94755200000000        7.33690800000000       -6.78542700000000
O           84.11336300000001        8.55778700000000       -5.11992500000000
C           85.00824100000000        5.01518900000000       -5.31224500000000
C           85.02870500000000        3.84653300000000       -4.54712600000000
H           80.05536700000000        1.08893300000000       -2.70166600000000
H           82.04002500000000        2.46736700000000       -3.93353800000000
H           83.55397800000000        0.80247000000000       -0.37767600000000
H           87.21387899999999        3.67909700000000       -2.54162700000000
H           88.97069600000000        2.29329100000000       -1.28984800000000
H           88.64304000000000       -2.83537600000000        0.68717300000000
H           86.65737100000000       -4.25176800000000        1.87419500000000
H           83.31468800000000       -5.34759200000000        2.21405900000000
H           83.35891900000000       -6.96634800000000        4.09480400000000
H           84.59703500000001       -6.79583300000000        8.38312200000000
H           84.98873100000000       -3.88965600000000        6.66094900000000
H           84.93301000000000       -2.30005300000000        4.76721700000000
H           81.48795800000001       -3.04168200000000        3.28292100000000
H           79.73097199999999       -1.60573100000000        2.08947800000000
H           85.14789900000000       -0.48954600000000        0.74537400000000
H           83.77167500000000        5.06190500000000       -1.62902400000000
H           83.72755600000001        7.14656300000000       -2.97204700000000
H           84.85900799999999        8.23919100000000       -7.15226600000000
H           85.35965400000001        4.97642700000000       -6.33870900000000
H           85.39184799999998        2.91291300000000       -4.97295900000000
C           94.64386800000000       -0.02388200000000       -0.02455600000000
C           95.43824899999998        0.76912400000000       -1.14266100000000
C           94.93394600000001        1.23232100000000       -2.34084000000000
C           95.97151300000000        1.95232100000000       -2.98669200000000
C           97.07852400000000        1.90022700000000       -2.16575800000000
N           96.76596600000001        1.11495600000000       -1.08450100000000
C           98.46706399999999        2.61917300000000       -2.41269000000000
C           99.60255900000000        2.11798900000000       -1.85962500000000
C          100.88917099999999        2.76691900000000       -2.00731500000000
C          101.79756799999998        2.04897500000000       -1.35561100000000
N           99.81110700000001        1.00673200000000       -1.09115400000000
C          101.13580200000000        0.90590300000000       -0.75984800000000
C          101.79999699999999       -0.02388200000000       -0.02455600000000
C          101.00531999999998       -1.24396300000000        0.59976200000000
C          101.50812200000000       -2.49756200000000        0.88314900000000
C          100.47014200000000       -3.23986000000000        1.50263600000000
C           99.36469400000000       -2.41821000000000        1.57204100000000
C           97.97708000000000       -2.76423700000000        2.25045600000000
C           97.98959100000000       -3.72512300000000        3.37660400000000
C           97.55122200000000       -5.04271400000000        3.19300000000000
C           97.57786699999998       -5.94940100000000        4.25538100000000
C           98.04775900000000       -5.54338300000000        5.51101600000000
C           98.05983600000000       -6.53697400000000        6.61141800000000
O           98.52400499999999       -6.03476600000000        7.77156200000000
O           97.70200699999999       -7.69946100000000        6.54059500000000
C           98.49060100000000       -4.22753200000000        5.69757900000000
C           98.46165300000000       -3.32423000000000        4.63200700000000
C           96.84106499999999       -2.14742500000000        1.83189500000000
C           95.55516099999998       -2.38391100000000        2.45527700000000
C           94.64660499999998       -1.63698500000000        1.83723500000000
C           95.30780500000000       -0.88608800000000        0.78912500000000
N           96.63182900000000       -1.23123600000000        0.83902700000000
N           99.67802800000000       -1.23486500000000        0.95178500000000
C           98.45867199999999        3.86163500000000       -3.21771900000000
C           97.98865999999998        5.05678400000000       -2.66102600000000
C           97.96576200000000        6.22809000000000       -3.42238900000000
C           98.41180000000000        6.21002000000000       -4.75017700000000
C           98.37097799999999        7.47486200000000       -5.52274100000000
O           98.81894000000000        7.33690800000000       -6.78542700000000
O           97.98475200000000        8.55778700000000       -5.11992500000000
C           98.87963000000001        5.01518900000000       -5.31224500000000
C           98.90009300000000        3.84653300000000       -4.54712600000000
H           93.92675500000000        1.08893300000000       -2.70166600000000
H           95.91141300000000        2.46736700000000       -3.93353800000000
H           97.42536600000000        0.80247000000000       -0.37767600000000
H          101.08526700000000        3.67909700000000       -2.54162700000000
H          102.84208400000000        2.29329100000000       -1.28984800000000
H          102.51442799999998       -2.83537600000000        0.68717300000000
H          100.52875899999999       -4.25176800000000        1.87419500000000
H           97.18607600000000       -5.34759200000000        2.21405900000000
H           97.23030799999999       -6.96634800000000        4.09480400000000
H           98.46842300000000       -6.79583300000000        8.38312200000000
H           98.86011999999998       -3.88965600000000        6.66094900000000
H           98.80439900000000       -2.30005300000000        4.76721700000000
H           95.35934600000000       -3.04168200000000        3.28292100000000
H           93.60236000000000       -1.60573100000000        2.08947800000000
H           99.01928700000001       -0.48954600000000        0.74537400000000
H           97.64306300000000        5.06190500000000       -1.62902400000000
H           97.59894400000000        7.14656300000000       -2.97204700000000
H           98.73039700000000        8.23919100000000       -7.15226600000000
H           99.23104299999999        4.97642700000000       -6.33870900000000
H           99.26323599999999        2.91291300000000       -4.97295900000000
C          108.51525700000001       -0.02388200000000       -0.02455600000000
C          109.30963699999998        0.76912400000000       -1.14266100000000
C          108.80533400000000        1.23232100000000       -2.34084000000000
C          109.84290200000000        1.95232100000000       -2.98669200000000
C          110.94991200000000        1.90022700000000       -2.16575800000000
N          110.63735400000000        1.11495600000000       -1.08450100000000
C          112.33845199999999        2.61917300000000       -2.41269000000000
C          113.47394700000000        2.11798900000000       -1.85962500000000
C          114.76055999999998        2.76691900000000       -2.00731500000000
C          115.66895699999999        2.04897500000000       -1.35561100000000
N          113.68249500000000        1.00673200000000       -1.09115400000000
C          115.00719100000001        0.90590300000000       -0.75984800000000
C          115.67138499999999       -0.02388200000000       -0.02455600000000
C          114.87670799999998       -1.24396300000000        0.59976200000000
C          115.37951000000000       -2.49756200000000        0.88314900000000
C          114.34152999999999       -3.23986000000000        1.50263600000000
C          113.23608200000000       -2.41821000000000        1.57204100000000
C          111.84846800000000       -2.76423700000000        2.25045600000000
C          111.86097899999999       -3.72512300000000        3.37660400000000
C          111.42261100000000       -5.04271400000000        3.19300000000000
C          111.44925499999998       -5.94940100000000        4.25538100000000
C          111.91914700000000       -5.54338300000000        5.51101600000000
C          111.93122400000000       -6.53697400000000        6.61141800000000
O          112.39539299999998       -6.03476600000000        7.77156200000000
O          111.57339499999999       -7.69946100000000        6.54059500000000
C          112.36198899999999       -4.22753200000000        5.69757900000000
C          112.33304099999998       -3.32423000000000        4.63200700000000
C          110.71245299999998       -2.14742500000000        1.83189500000000
C          109.42654899999998       -2.38391100000000        2.45527700000000
C          108.51799400000000       -1.63698500000000        1.83723500000000
C          109.17919299999998       -0.88608800000000        0.78912500000000
N          110.50321700000001       -1.23123600000000        0.83902700000000
N          113.54941599999999       -1.23486500000000        0.95178500000000
C          112.33005999999999        3.86163500000000       -3.21771900000000
C          111.86004900000000        5.05678400000000       -2.66102600000000
C          111.83714999999998        6.22809000000000       -3.42238900000000
C          112.28318800000000        6.21002000000000       -4.75017700000000
C          112.24236700000000        7.47486200000000       -5.52274100000000
O          112.69032799999999        7.33690800000000       -6.78542700000000
O          111.85613999999998        8.55778700000000       -5.11992500000000
C          112.75101800000000        5.01518900000000       -5.31224500000000
C          112.77148200000001        3.84653300000000       -4.54712600000000
H          107.79814300000000        1.08893300000000       -2.70166600000000
H          109.78280100000001        2.46736700000000       -3.93353800000000
H          111.29675499999999        0.80247000000000       -0.37767600000000
H          114.95665500000000        3.67909700000000       -2.54162700000000
H          116.71347199999998        2.29329100000000       -1.28984800000000
H          116.38581599999999       -2.83537600000000        0.68717300000000
H          114.40014700000000       -4.25176800000000        1.87419500000000
H          111.05746399999998       -5.34759200000000        2.21405900000000
H          111.10169599999999       -6.96634800000000        4.09480400000000
H          112.33981100000000       -6.79583300000000        8.38312200000000
H          112.73150799999999       -3.88965600000000        6.66094900000000
H          112.67578699999999       -2.30005300000000        4.76721700000000
H          109.23073400000000       -3.04168200000000        3.28292100000000
H          107.47374800000000       -1.60573100000000        2.08947800000000
H          112.89067500000000       -0.48954600000000        0.74537400000000
H          111.51445099999999        5.06190500000000       -1.62902400000000
H          111.47033200000000        7.14656300000000       -2.97204700000000
H          112.60178500000001        8.23919100000000       -7.15226600000000
H          113.10243099999998        4.97642700000000       -6.33870900000000
H          113.13462400000000        2.91291300000000       -4.97295900000000
328
 energy: -604.821592901788 gnorm: 0.574413890571 xtb: 6.5.1 (b24c23e)
C           66.04937212531172        0.00047138721287        0.09481641844837
C           66.75301490194440       -1.32933912528338        0.06751060801197
C           66.15576175322506       -2.58392601267745        0.15245495132874
C           67.17173823189570       -3.55206404629933        0.02921700671366
C           68.38794581876317       -2.88641709823973       -0.13537514185842
N           68.11033906267531       -1.53713830637612       -0.06042753009518
C           69.76248631229664       -3.51191717545475       -0.38688082691225
C           70.92394943379858       -2.76638069470910       -0.34468745628386
C           72.22738908297418       -3.33349549650870       -0.65297847295794
C           73.13505362747068       -2.35863453678812       -0.55221324084392
N           71.11332905451576       -1.44039337821547       -0.05265305670180
C           72.45551654567893       -1.13394623256282       -0.15905549238746
C           73.11174282219433        0.05818679834694        0.05049727923116
C           72.34955046056452        1.31828265871222        0.48999466814233
C           72.87673932293883        2.41578111188482        1.16767569328321
C           71.85535209404790        3.37262589876730        1.33027523958316
C           70.69310384179037        2.85991226696707        0.76072465877268
C           69.32748744536572        3.55383900294293        0.67446382248653
C           69.27019209755387        5.04200399479922        0.78224468485803
C           69.57156242831515        5.84251193846848       -0.32724939244907
C           69.54320539825849        7.23096369863485       -0.22786169027069
C           69.20922069056411        7.84244396033752        0.98603395871378
C           69.19114533435547        9.32565959250881        1.05189346149641
O           68.86449114016995        9.79993173827498        2.26679593216041
O           69.43549996116747       10.08435271726512        0.14207744702271
C           68.90083087648796        7.04896156637519        2.09855221603866
C           68.92871764893476        5.66045394929452        1.99273873403632
C           68.17238965458637        2.82729687160785        0.49319218570544
C           66.84856374611948        3.43162312729941        0.39375853429180
C           65.96057972888083        2.44594546994391        0.23903303656197
C           66.69734841059702        1.19609138907688        0.23095377108358
N           68.02112307409712        1.47467341334066        0.37615716256840
N           71.00423936378974        1.59433479245601        0.29640473027540
C           69.82150620848178       -4.96525833521632       -0.73668667202158
C           69.56266327984414       -5.38651292613240       -2.04776720732053
C           69.58315289870426       -6.74005138336240       -2.37690453561728
C           69.87151769800688       -7.69567488141568       -1.39383771113359
C           69.90265341827180       -9.14890937521191       -1.69642365762057
O           69.63694737268877       -9.43067372743034       -2.98356871907245
O           70.13634589094941      -10.03692431001280       -0.90889105909814
C           70.14015007049386       -7.28111078809934       -0.08431049915575
C           70.11620872226189       -5.92712004448108        0.23884765304400
H           64.96189655354884        0.02372957761242       -0.00836653378116
H           65.09729168418873       -2.75900155874027        0.27866212069328
H           67.04606096802998       -4.62482120883615        0.03929764366111
H           68.80823553449554       -0.80120076861511       -0.09442783828554
H           72.43563877614730       -4.35069548966465       -0.92898625611114
H           74.18623524040643       -2.47506920447000       -0.72999569346646
H           73.89893658288840        2.50231133742146        1.50214262565217
H           71.94079189960129        4.33613507138014        1.81146990773454
H           69.82805095041162        5.36381224468856       -1.26900946686791
H           69.78337585653699        7.83644879617394       -1.09889817617582
H           68.89287969597022       10.76761963005577        2.15552883265756
H           68.63696040096136        7.50123188995478        3.05082501240553