298
 energy: -524.046229119895 gnorm: 0.728109594419 xtb: 6.5.1 (b24c23e)
Fe          44.82618200000000       -0.01752800000000       -0.04218400000000
C           41.48213100000000        0.11208900000000        0.05018900000000
C           42.15000500000000        0.89657800000000        0.90067200000000
C           41.50511600000000        1.77590300000000        1.86893500000000
C           42.45100899999999        2.42635200000000        2.52041400000000
C           43.75293599999999        1.99517100000000        1.99479800000000
N           43.56967800000000        1.01975500000000        0.96879600000000
C           44.94652900000000        2.47347900000000        2.39747700000000
C           46.24005799999999        2.02067400000000        1.82543400000000
C           47.53162300000000        2.63797400000000        2.14780300000000
C           48.46599399999999        1.98257600000000        1.49007800000000
N           46.37773600000000        1.02392200000000        1.00546200000000
C           47.77849700000000        0.93543700000000        0.74366400000000
C           48.37163200000000        0.00250400000000       -0.01982100000000
C           47.61122799999999       -1.04536700000000       -0.74012700000000
C           48.15786399999999       -2.13936500000000       -1.25607300000000
C           47.10936000000000       -2.86149000000000       -1.94838700000000
C           45.98986000000000       -2.16061200000000       -1.81217300000000
C           44.69516200000000       -2.52655600000000       -2.44222500000000
C           44.69902500000000       -3.53574000000000       -3.53150800000000
C           45.22667000000000       -3.19703400000000       -4.79365400000000
O           45.72469800000000       -1.89829300000000       -4.99306800000000
C           46.28789799999999       -1.42699900000000       -6.21238300000000
C           45.23791700000000       -4.16200000000000       -5.81749000000000
C           44.73332099999999       -5.44142100000000       -5.58571100000000
C           44.21630900000000       -5.77863800000000       -4.33493100000000
C           44.19828600000000       -4.83218400000000       -3.29394700000000
O           43.69890700000000       -5.14283500000000       -2.01761900000000
C           43.15147999999999       -6.40433200000000       -1.64940100000000
C           43.53214600000000       -1.96639300000000       -2.06104000000000
C           42.21548800000000       -2.24824600000000       -2.62944300000000
C           41.35493900000000       -1.52941900000000       -1.93516100000000
C           42.11354600000000       -0.78258300000000       -0.93286500000000
N           43.38408900000000       -1.02996400000000       -0.99641900000000
N           46.21630500000000       -0.97860100000000       -1.04098600000000
C           44.99060100000000        3.51279700000000        3.45206700000000
C           45.12102099999999        3.13300900000000        4.80208300000000
O           45.20625400000000        1.76604400000000        5.11540000000000
C           45.32785999999999        1.24605100000000        6.43551800000000
C           45.16073899999999        4.12828300000000        5.79593500000000
C           45.07403900000000        5.47640200000000        5.44667300000000
C           44.94908200000000        5.85144600000000        4.10843300000000
C           44.90780600000000        4.87363000000000        3.09743100000000
O           44.78728100000000        5.21316900000000        1.73928900000000
C           44.70837299999999        6.54594700000000        1.24405300000000
H           40.39873799999999        0.13489000000000        0.07264600000000
H           40.44131200000000        1.89048200000000        2.03398200000000
H           42.27067300000000        3.15556000000000        3.29978800000000
H           47.70820900000000        3.47940400000000        2.80499200000000
H           49.52526699999999        2.19851100000000        1.52622400000000
H           49.19623300000000       -2.43627900000000       -1.19512500000000
H           47.22831200000000       -3.78786100000000       -2.49523500000000
H           45.53272399999999       -1.47479100000000       -7.02514000000000
H           46.60266500000000       -0.37128400000000       -6.08147800000000
H           47.17950299999999       -2.03230000000000       -6.48011900000000
H           45.63380200000000       -3.93296600000000       -6.79741200000000
H           44.74583400000000       -6.17727600000000       -6.37952600000000
H           43.83708000000000       -6.78027400000000       -4.18659900000000
H           42.83300599999999       -6.36478200000000       -0.58782100000000
H           42.26475900000000       -6.63319600000000       -2.27754000000000
H           43.91710100000000       -7.20114600000000       -1.76177700000000
H           41.96868099999999       -2.91158800000000       -3.44827600000000
H           40.28433000000000       -1.50587200000000       -2.09071600000000
H           45.37534600000000        0.13922900000000        6.38541000000000
H           44.44449800000000        1.53695600000000        7.04250200000000
H           46.26013100000000        1.62140900000000        6.90894600000000
H           45.25696099999999        3.87098000000000        6.84200800000000
H           45.10481800000000        6.23550300000000        6.21786300000000
H           44.88606500000000        6.90462700000000        3.87104300000000
H           45.62636400000000        7.10953900000000        1.51615900000000
H           44.62468800000000        6.51665700000000        0.13857300000000
H           43.80991499999999        7.05258200000000        1.65553000000000
Fe          89.04191600000000        0.02179400000000        0.00318400000000
C           92.38596699999999       -0.05122900000000       -0.13823900000000
C           91.71809300000000       -0.78165000000000       -1.03558500000000
C           92.36298199999999       -1.61518600000000       -2.04353500000000
C           91.41708900000000       -2.16766200000000       -2.77993100000000
C           90.11516200000000       -1.70862600000000       -2.27845800000000
N           90.29841999999999       -0.83158600000000       -1.16719000000000
C           88.92156899999999       -2.03927700000000       -2.80911700000000
C           87.62804000000000       -1.53735700000000       -2.27964500000000
C           86.33647600000000       -1.76876800000000       -2.93647800000000
C           85.40210399999999       -1.21081300000000       -2.19429600000000
N           87.49036200000000       -0.86728900000000       -1.17652300000000
C           86.08960100000000       -0.62071500000000       -1.05174700000000
C           85.49646600000000        0.00250400000000       -0.01982100000000
C           86.25686999999999        0.56665500000000        1.11974400000000
C           85.71023400000000        0.92196700000000        2.27593900000000
C           86.75873799999999        1.50468200000000        3.08908500000000
C           87.87823799999998        1.46940800000000        2.37596500000000
C           89.17293600000001        2.04108900000000        2.82769700000000
C           89.16907300000000        2.97597100000000        3.98138100000000
C           88.64142800000000        4.27343200000000        3.82539800000000
O           88.14340000000000        4.65531100000000        2.56815300000000
C           87.58019999999999        5.92920800000000        2.27484300000000
C           88.63018099999999        5.14981100000000        4.92601500000000
C           89.13477699999999        4.73864000000000        6.15953700000000
C           89.65179000000001        3.45264200000000        6.31566100000000
C           89.66981199999999        2.55665800000000        5.23093300000000
O           90.16919099999998        1.24914500000000        5.35713000000000
C           90.71661800000000        0.70546400000000        6.55352900000000
C           90.33595200000001        1.74334100000000        2.21906700000000
C           91.65261000000000        2.26594200000000        2.57880400000000
C           92.51315900000000        1.68081100000000        1.76864300000000
C           91.75455200000000        0.79476700000000        0.88700300000000
N           90.48400900000000        0.82253600000000        1.14090400000000
N           87.65179300000000        0.87394700000000        1.09639200000000
C           88.87749699999999       -2.93553800000000       -3.98770100000000
C           88.74707700000000       -4.32581300000000       -3.80353500000000
O           88.66184399999999       -4.83013100000000       -2.49493900000000
C           88.54023799999999       -6.21072700000000       -2.16774200000000
C           88.70735899999998       -5.16820700000000       -4.92989400000000
C           88.79405999999999       -4.63098600000000       -6.21472900000000
C           88.91901599999998       -3.25304100000000       -6.39587200000000
C           88.96029200000000       -2.39119000000000       -5.28435800000000
O           89.08081700000000       -0.99858900000000       -5.42752900000000
C           89.15972499999999       -0.31905300000000       -6.67644300000000
H           93.46935999999998       -0.07022000000000       -0.16399900000000
H           93.42678600000001       -1.76228400000000       -2.18039800000000
H           91.59742500000000       -2.83554800000000       -3.61245600000000
H           86.15988899999999       -2.29976800000000       -3.86272900000000
H           84.34283100000000       -1.21591800000000       -2.41317500000000
H           84.67186499999998        0.81945900000000        2.56118400000000
H           86.63978599999999        1.91439300000000        4.08374100000000
H           88.33537399999999        6.72693400000000        2.43760300000000
H           87.26543300000000        5.94959500000000        1.21123900000000
H           86.68859500000001        6.10824600000000        2.91203800000000
H           88.23429599999999        6.15233100000000        4.83850200000000
H           89.12226400000000        5.41987700000000        7.00069200000000
H           90.03101800000000        3.16353100000000        7.28606900000000
H           91.03509200000001       -0.33973200000000        6.36358200000000
H           91.60333900000001        1.29472300000000        6.86930000000000
H           89.95099699999999        0.70351300000000        7.35822600000000
H           91.89941700000000        2.98224400000000        3.35173400000000
H           93.58376800000001        1.83813300000000        1.76743200000000
H           88.49275199999998       -6.31835300000000       -1.06502600000000
H           89.42359999999998       -6.77023300000000       -2.54192000000000
H           87.60796700000000       -6.62603400000000       -2.60654500000000
H           88.61113699999999       -6.24022300000000       -4.82379500000000
H           88.76327999999999       -5.28652500000000       -7.07568100000000
H           88.98203300000000       -2.86845400000000       -7.40465200000000
H           88.24173399999999       -0.50834200000000       -7.27297300000000
H           89.24341000000000        0.77105600000000       -6.49041600000000
H           90.05818299999999       -0.65439000000000       -7.23639100000000
C           52.18976800000000        0.01523600000000       -0.01729600000000
C           50.93749800000000       -0.00394500000000       -0.02164400000000
C           53.50343600000000        0.01447000000000       -0.01536400000000
C           55.00657000000000       -0.00394500000000       -0.02164400000000
C           66.19481800000000        0.01523600000000       -0.01729600000000
C           64.94254800000000       -0.00394500000000       -0.02164400000000
C           67.50848600000000        0.01447000000000       -0.01536400000000
C           69.01161999999999       -0.00394500000000       -0.02164400000000
C           80.19986800000000        0.01523600000000       -0.01729600000000
C           78.94759800000000       -0.00394500000000       -0.02164400000000
C           81.51353600000000        0.01447000000000       -0.01536400000000
C           83.01666999999999       -0.00394500000000       -0.02164400000000
Fe          59.83859300000000        0.00532500000000       -0.06762400000000
C           56.48311700000000       -0.00220600000000        0.02192900000000
C           57.14033600000000       -0.05016100000000        1.19534800000000
C           56.49918900000000       -0.16659300000000        2.50725000000000
C           57.43934500000000       -0.14783100000000        3.43080900000000
C           58.73816800000000       -0.01634400000000        2.76442300000000
N           58.55905100000000        0.04216100000000        1.34767800000000
C           59.92354100000000        0.06248100000000        3.40244700000000
C           61.22430500000000        0.18244300000000        2.69953600000000
C           62.49614699999999        0.44854000000000        3.38200800000000
C           63.45035499999999        0.43766500000000        2.47416300000000
N           61.39164499999999        0.01337800000000        1.42478300000000
C           62.79413600000000        0.16110600000000        1.20236500000000
C           63.41226300000000       -0.00220600000000        0.02192900000000
C           62.66938800000000       -0.27949100000000       -1.22688600000000
C           63.22222100000000       -0.74667300000000       -2.33920800000000
C           62.18755099999999       -0.77547900000000       -3.35436900000000
C           61.07217600000000       -0.32274700000000       -2.79364100000000
C           59.80472699999999       -0.08863900000000       -3.52603600000000
C           59.85069800000000       -0.00348900000000       -5.00728400000000
C           59.35941600000000       -1.06817000000000       -5.78960600000000
O           58.83510600000000       -2.19952100000000       -5.14171000000000
C           58.31018199999999       -3.34199400000000       -5.80942000000000
C           59.41176200000000       -0.97276500000000       -7.19246100000000
C           59.95076999999999        0.15990600000000       -7.80258800000000
C           60.44509099999999        1.20917300000000       -7.02796700000000
C           60.40114000000000        1.13788300000000       -5.62340500000000
O           60.88693400000000        2.17698900000000       -4.81212600000000
C           61.46013199999999        3.38459000000000       -5.30202200000000
C           58.63055300000000        0.06879600000000       -2.88769500000000
C           57.34725699999999        0.34793500000000       -3.52287000000000
C           56.45651200000000        0.37071700000000       -2.55295500000000
C           57.16003900000000        0.10982500000000       -1.29159200000000
N           58.43173400000000       -0.06598200000000       -1.48059300000000
N           61.28548900000000        0.01071500000000       -1.42264200000000
C           59.95292600000000        0.02254400000000        4.88360700000000
C           60.19941000000000       -1.19687000000000        5.54370400000000
O           60.40621100000000       -2.35365100000000        4.77351700000000
C           60.66331399999999       -3.64654900000000        5.31091300000000
C           60.22997899999999       -1.22403900000000        6.94999800000000
C           60.02102700000000       -0.05518200000000        7.68199200000000
C           59.78178100000000        1.15286500000000        7.02714600000000
C           59.74715000000000        1.20469000000000        5.62152500000000
O           59.51627300000000        2.40427700000000        4.92759700000000
C           59.30483000000000        3.66812800000000        5.54782600000000
H           55.44147599999999       -0.25247700000000        2.71708400000000
H           57.25544800000000       -0.21623800000000        4.49538500000000
H           62.64616800000000        0.62115400000000        4.43965600000000
H           64.50261000000000        0.59811300000000        2.66757800000000
H           64.25766100000000       -1.02575300000000       -2.48046700000000
H           62.31553299999999       -1.07217400000000       -4.38736700000000
H           57.44260700000000       -3.05066200000000       -6.43838600000000
H           57.96988800000000       -4.07892500000000       -5.05328200000000
H           59.09730500000000       -3.81327600000000       -6.43548900000000
H           59.04061500000000       -1.77021500000000       -7.82125800000000
H           59.98724399999999        0.22414900000000       -8.88262800000000
H           60.85804500000000        2.07260400000000       -7.53170700000000
H           61.75749799999999        4.01848200000000       -4.44221500000000
H           60.71727299999999        3.93987200000000       -5.91269600000000
H           62.36306200000000        3.15993500000000       -5.90817000000000
H           57.14109100000000        0.50774800000000       -4.57345200000000
H           55.39946499999999        0.55661500000000       -2.68933800000000
H           59.80941000000000       -3.97466300000000        5.94034700000000
H           60.78794400000000       -4.36659400000000        4.47631300000000
H           61.59791900000000       -3.63211800000000        5.91036800000000
H           60.41473800000000       -2.14374900000000        7.48769300000000
H           60.04689200000000       -0.08535800000000        8.76362000000000
H           59.62726600000000        2.04160400000000        7.62348900000000
H           60.19196200000000        3.94921700000000        6.15360700000000
H           58.39855300000000        3.63177100000000        6.18861800000000
H           59.15365700000000        4.43613100000000        4.76198400000000
Fe          73.84364300000000        0.00532500000000       -0.06762400000000
C           70.48816700000000       -0.00220600000000        0.02192900000000
C           71.14538600000000       -0.05016100000000        1.19534800000000
C           70.50423900000000       -0.16659300000000        2.50725000000000
C           71.44439500000000       -0.14783100000000        3.43080900000000
C           72.74321800000000       -0.01634400000000        2.76442300000000
N           72.56410099999999        0.04216100000000        1.34767800000000
C           73.92859099999998        0.06248100000000        3.40244700000000
C           75.22935500000000        0.18244300000000        2.69953600000000
C           76.50119700000000        0.44854000000000        3.38200800000000
C           77.45540500000000        0.43766500000000        2.47416300000000
N           75.39669499999999        0.01337800000000        1.42478300000000
C           76.79918599999999        0.16110600000000        1.20236500000000
C           77.41731299999999       -0.00220600000000        0.02192900000000
C           76.67443799999998       -0.27949100000000       -1.22688600000000
C           77.22727099999999       -0.74667300000000       -2.33920800000000
C           76.19260100000000       -0.77547900000000       -3.35436900000000
C           75.07722600000000       -0.32274700000000       -2.79364100000000
C           73.80977600000000       -0.08863900000000       -3.52603600000000
C           73.85574800000001       -0.00348900000000       -5.00728400000000
C           73.36446599999998       -1.06817000000000       -5.78960600000000
O           72.84015599999999       -2.19952100000000       -5.14171000000000
C           72.31523199999999       -3.34199400000000       -5.80942000000000
C           73.41681199999999       -0.97276500000000       -7.19246100000000
C           73.95582000000000        0.15990600000000       -7.80258800000000
C           74.45014100000000        1.20917300000000       -7.02796700000000
C           74.40618999999998        1.13788300000000       -5.62340500000000
O           74.89198399999999        2.17698900000000       -4.81212600000000
C           75.46518200000000        3.38459000000000       -5.30202200000000
C           72.63560300000000        0.06879600000000       -2.88769500000000
C           71.35230700000000        0.34793500000000       -3.52287000000000
C           70.46156200000000        0.37071700000000       -2.55295500000000
C           71.16508899999999        0.10982500000000       -1.29159200000000
N           72.43678400000000       -0.06598200000000       -1.48059300000000
N           75.29053900000000        0.01071500000000       -1.42264200000000
C           73.95797600000000        0.02254400000000        4.88360700000000
C           74.20446000000000       -1.19687000000000        5.54370400000000
O           74.41126100000000       -2.35365100000000        4.77351700000000
C           74.66836400000000       -3.64654900000000        5.31091300000000
C           74.23502900000000       -1.22403900000000        6.94999800000000
C           74.02607700000000       -0.05518200000000        7.68199200000000
C           73.78683100000001        1.15286500000000        7.02714600000000
C           73.75220000000000        1.20469000000000        5.62152500000000
O           73.52132299999998        2.40427700000000        4.92759700000000
C           73.30988000000001        3.66812800000000        5.54782600000000
H           69.44652600000001       -0.25247700000000        2.71708400000000
H           71.26049799999998       -0.21623800000000        4.49538500000000
H           76.65121800000000        0.62115400000000        4.43965600000000
H           78.50766000000000        0.59811300000000        2.66757800000000
H           78.26271100000000       -1.02575300000000       -2.48046700000000
H           76.32058300000000       -1.07217400000000       -4.38736700000000
H           71.44765699999999       -3.05066200000000       -6.43838600000000
H           71.97493799999999       -4.07892500000000       -5.05328200000000
H           73.10235500000000       -3.81327600000000       -6.43548900000000
H           73.04566500000000       -1.77021500000000       -7.82125800000000
H           73.99229400000000        0.22414900000000       -8.88262800000000
H           74.86309500000000        2.07260400000000       -7.53170700000000
H           75.76254800000000        4.01848200000000       -4.44221500000000
H           74.72232300000000        3.93987200000000       -5.91269600000000
H           76.36811200000000        3.15993500000000       -5.90817000000000
H           71.14614100000000        0.50774800000000       -4.57345200000000
H           69.40451500000000        0.55661500000000       -2.68933800000000
H           73.81445999999998       -3.97466300000000        5.94034700000000
H           74.79299399999998       -4.36659400000000        4.47631300000000
H           75.60296900000000       -3.63211800000000        5.91036800000000
H           74.41978799999998       -2.14374900000000        7.48769300000000
H           74.05194199999998       -0.08535800000000        8.76362000000000
H           73.63231600000000        2.04160400000000        7.62348900000000
H           74.19701199999999        3.94921700000000        6.15360700000000
H           72.40360299999999        3.63177100000000        6.18861800000000
H           73.15870600000000        4.43613100000000        4.76198400000000
298
 energy: -524.322489090981 gnorm: 0.466713972649 xtb: 6.5.1 (b24c23e)
Fe          44.84064591363244       -0.01066392457808       -0.03436957118507
C           41.48286535148608        0.10085864985999        0.03704612923668
C           42.15727663064392        0.89550741560575        0.89932899438079
C           41.50650096952335        1.76985732365002        1.86287211130024
C           42.46324625832844        2.42634088452098        2.52016077986782
C           43.75445983669383        1.98779035153343        1.98748041387616
N           43.55824275301925        1.02275230862838        0.97409138748367
C           44.96206998119694        2.46990745174328        2.39086427040735
C           46.23338979343042        2.02909295220653        1.83371286036711
C           47.51863745010614        2.64284876815471        2.15598917792160
C           48.46495177646931        1.97751149422029        1.48472079706826
N           46.38371041135444        1.02054574957306        0.99795490408976
C           47.78858896462035        0.93032614584271        0.73903406109336
C           48.36339317999890       -0.01173372180464       -0.02786748473741
C           47.60939257760121       -1.02793867308346       -0.73633781332554
C           48.16059648176444       -2.15596731699771       -1.26712287114093
C           47.12932514915956       -2.86294007817962       -1.94845253100815
C           45.98030342393860       -2.14323617732374       -1.80969949957375
C           44.70941827694874       -2.51809062531577       -2.43370887582565
C           44.70744500133737       -3.53517059929921       -3.52656447868676
C           45.23032245461017       -3.19681537048732       -4.79646918141796
O           45.71914582239796       -1.90718514995801       -4.98470623726680
C           46.28276666441639       -1.43781757586626       -6.20780698531905
C           45.23731592149777       -4.15981439672946       -5.81541965481892
C           44.73335163583543       -5.43544422867585       -5.57923451453854
C           44.21624141410401       -5.77619855662283       -4.33266651427303
C           44.19709224829238       -4.83480013232872       -3.29361753233186
O           43.70404677937381       -5.13349091778285       -2.02558869868816
C           43.15658261182065       -6.39882544514563       -1.65997750213944
C           43.53364117755483       -1.96271663082782       -2.05717936562158
C           42.22425150402894       -2.24727510211570       -2.62642571189927
C           41.34642701407091       -1.52141028580612       -1.92525228980743
C           42.09740487225253       -0.77549965866021       -0.92545525651257
N           43.38872225019136       -1.02711510781380       -1.00230806634490
N           46.21282108995439       -0.98127832318654       -1.03215629054663
C           44.99598852138694        3.51350343781479        3.45177082164015
C           45.12196250340641        3.13311408857546        4.80656393092409
O           45.20516785756436        1.77547200957321        5.10601009991630
C           45.32695288025631        1.25770958008127        6.42970052110897
C           45.16027420533803        4.12676215985500        5.79433619397795
C           45.07382983957857        5.47043886870083        5.44059911833905
C           44.94887666310566        5.84991172505656        4.10694019328201
C           44.90835128866151        4.87840774909889        3.09764270298826
O           44.78853874448129        5.20366577130970        1.74847619258179
C           44.70946608761971        6.53994528583213        1.25551875136742
H           40.39933124343437        0.13083783008049        0.06733441882887
H           40.44260206488548        1.88366696493032        2.02698032668641
H           42.28312294679517        3.15534832010872        3.29933644238970
H           47.69839996086627        3.48212157749050        2.80892727128885
H           49.52431542334686        2.18967579827952        1.51897718325859
H           49.19743635486778       -2.44151460908710       -1.19803637616880
H           47.23407532008414       -3.78876725756220       -2.49342574088031
H           45.53834304688447       -1.47585309854281       -7.02280667584475
H           46.59533749503355       -0.38570309701463       -6.07429415801968
H           47.17411988740584       -2.02967894975868       -6.48139367090960
H           45.63395978470311       -3.93076441016146       -6.79631146269616
H           44.74574407537544       -6.17402321166219       -6.37597074044002
H           43.83667094473330       -6.77916944866098       -4.18423850651953
H           42.84022500303613       -6.35642202817637       -0.60152413673228
H           42.27011832126909       -6.63466075369601       -2.27506774429898
H           43.91151366634363       -7.19857861253098       -1.76262988965072
H           41.97998155042781       -2.91109823454238       -3.44580221453456
H           40.28028309859147       -1.50013919485715       -2.08457491900054
H           45.37404478367262        0.15449618308538        6.37672758186160
H           44.45064148170582        1.53643657047463        7.04157186092161
H           46.25394906803044        1.62018315006600        6.90884998316028
H           45.25697234266962        3.86896455587147        6.84122873242570
H           45.10470809365381        6.23222318725965        6.21453492125653
H           44.88587427731394        6.90397440156144        3.86902914777228
H           45.62006108763349        7.10873357988358        1.51580420188678
H           44.62611062921982        6.50768770234425        0.15362743047188
H           43.81597336959098        7.05237829734270        1.65419666191334
Fe          89.02751462351682        0.01505484211048       -0.00472015390968
C           92.38522773720335       -0.03981342953161       -0.12525869454193
C           91.71083457769869       -0.78047700555200       -1.03435303574039
C           92.36160751188937       -1.61005129848821       -2.03670529754009
C           91.40484047930779       -2.16740200122143       -2.77988620379564
C           90.11362610103647       -1.70240439540449       -2.27000857501313
N           90.30993377955663       -0.83645863759859       -1.17098230435809
C           88.90580447793343       -2.03316806878109       -2.80449474270879
C           87.63455940767490       -1.54421789275211       -2.28890416366168
C           86.34938674275649       -1.77613388936170       -2.94244697353869
C           85.40286200765277       -1.20635673672494       -2.18873433619405
N           87.48347727475870       -0.85982083149796       -1.17167498622241