195
 energy: -378.842608099730 gnorm: 0.000545924320 xtb: 6.5.1 (b24c23e)
Zn          27.14595485908979       -0.00413042670459       -0.04157710500550
C           23.73709731991146       -0.03723771302101       -0.12913997407335
C           24.37239198772694       -1.25819423794883       -0.31888576886225
C           23.70357208662493       -2.51414183112289       -0.51458703409942
C           24.66633520281122       -3.45819634220115       -0.65822850788352
C           25.93656346693240       -2.78702144325483       -0.56459011529985
N           25.72301062321797       -1.45790861331210       -0.34886692855934
C           27.19209338988608       -3.40244750067656       -0.64963382563071
C           27.21224089402061       -4.86202971381353       -0.90541767678877
C           27.78529028455476       -5.73440987680999        0.02542732778374
C           27.80323023159518       -7.09761571519021       -0.20550210931328
C           27.24826511873507       -7.59444479333071       -1.38171271371148
N           27.26735463194353       -9.02397914662172       -1.63111038406362
O           26.77956274744106       -9.41776338763861       -2.65982285671429
O           27.76983849563711       -9.73005384726420       -0.79431926633270
C           26.67550639970796       -6.74335199447002       -2.32290460711148
C           26.65753476435092       -5.38237728285007       -2.07904183827731
C           28.42940495023581       -2.76112366067562       -0.51608429732085
C           29.71225957005683       -3.39064000300269       -0.66931909048200
C           30.65320849748446       -2.42988018236725       -0.48602246293458
N           28.61519346558457       -1.43008376668920       -0.25715991214524
C           29.95623082245497       -1.20425435171990       -0.22766171633311
C           30.58119161145801        0.03452568704712        0.02121766109562
C           29.92039650320224        1.25699884568355        0.25691296267640
C           30.58015646901094        2.49437497516754        0.55359593984999
C           29.61196516625709        3.43210713364918        0.71300667774655
C           28.34988312504182        2.77736796442825        0.50273624326119
N           28.57449028950073        1.45318357875226        0.23936808868032
C           27.09437828915923        3.39180696299112        0.58504688566790
C           27.07028997994806        4.84824494350696        0.85632202376163
C           26.43654498602261        5.34321893094329        2.00075832432850
C           26.41032027292742        6.70121032818706        2.25965095152785
C           27.01942734344794        7.57527803605512        1.36340016588425
N           26.99227674390733        9.00180338094873        1.62839625635680
O           26.43350447256036        9.37322880893458        2.62900218500819
O           27.53038960977362        9.72800250738186        0.83190952344457
C           27.65374746263506        7.10404950936105        0.21712585113250
C           27.67818613106662        5.74371186827780       -0.02952280501281
C           25.85732958433470        2.75192064603350        0.43216387186955
C           24.57102315855589        3.39820969344611        0.46015668521923
C           23.63583258685069        2.43699850868889        0.25975362189041
C           24.33822157812870        1.19492634870454        0.09589093601953
N           25.68127519779370        1.42031965657569        0.19911237380567
H           22.65201756497890       -0.04734209038330       -0.15863734301571
H           22.63318236907160       -2.64610174556842       -0.52935489724915
H           24.53227510931002       -4.51822590471106       -0.80259635763131
H           28.20311990572278       -5.33642307316575        0.94284130862688
H           28.23879703056926       -7.78127157464672        0.51323295012768
H           26.25440333292481       -7.15446276191816       -3.23248874723618
H           26.22600329937929       -4.70845772418114       -2.80995504685979
H           29.87179925327596       -4.43102473088463       -0.90235168558585
H           31.72568213261579       -2.53326861539338       -0.52760090889457
H           31.64784339104850        2.61996738336763        0.63698918421104
H           29.74008250483436        4.47242550439068        0.96488223246129
H           25.97739285932843        4.65181238386509        2.69773429649489
H           25.92685865623827        7.09248536248825        3.14670566718092
H           28.11649919553448        7.80514701678946       -0.46697492374792
H           28.15678567927855        5.36604096802419       -0.92558393151272
H           24.40870180694765        4.45473786384402        0.60102524266328
H           22.56389767668309        2.54856494261863        0.21658788303854
Zn          64.38633180653767        0.03151144250097       -0.02019301893420
C           67.79431081598855        0.09618939246738       -0.11707993433389
C           67.16083999276732        1.29942545233173        0.16796747995429
C           67.83160727224978        2.53794220045412        0.44939841446328
C           66.87037745390703        3.46762530238027        0.67407202611160
C           65.59903100760485        2.80978664908724        0.52020857417774
N           65.81057791211738        1.49586161329776        0.22425001436998
C           64.34452563632375        3.41248054886745        0.67953375691912
C           64.32583794066174        4.86229853851872        0.98550969631767
C           63.75823773794294        5.32492203609979        2.17710297405976
C           63.74121194682326        6.67593733386158        2.47091295014331
C           64.29191049005318        7.57548358732984        1.56213223058807
N           64.27433467826940        8.99487191846447        1.86393077716108
O           64.75961286513544        9.74377757785486        1.05468270037403
O           63.77569547457248        9.33804981557816        2.90551464190323
C           64.85914234079920        7.13656378636078        0.36888015923403
C           64.87597448910941        5.78275717643890        0.08774594712058
C           63.10660568548396        2.76676726066230        0.57539215620512
C           61.82417462369080        3.40736315966316        0.67768616033593
C           60.88226078247261        2.44624205210699        0.50138037439976
N           62.91947696458541        1.43440897410932        0.32438507301247
C           61.57816275740960        1.21260080494270        0.28123590072858
C           60.95193902887296       -0.03114446053258        0.06179121163319
C           61.61124308792795       -1.25298088551066       -0.18117062987858
C           60.95079553564859       -2.51234364470922       -0.36081860744849
C           61.91751114783133       -3.44011970881261       -0.57740636386419
C           63.17921573888476       -2.75261744901100       -0.54305439615157
N           62.95611611229634       -1.42653931124267       -0.28808965575263
C           64.43333661554784       -3.35167697945149       -0.71283331980835
C           64.45530752037962       -4.80288071042051       -1.01139587441621
C           65.09786771257528       -5.69303485260800       -0.14477635594508
C           65.12296123774455       -7.04812527828153       -0.41863733064156
C           64.50395843800135       -7.51916561444257       -1.57328988745660
N           64.53028682525387       -8.93996031019330       -1.86768990875543
O           65.09724610548852       -9.66143983917005       -1.08707453119118
O           63.98408039560261       -9.31162174619517       -2.87510213263791
C           63.86054638584586       -6.65029619947430       -2.45045916707053
C           63.83706911970472       -5.29770138651272       -2.16422036115188
C           65.67087935310718       -2.70039726634789       -0.62694910189794
C           66.95543491479108       -3.30904030036913       -0.85603409451139
C           67.89175466579356       -2.34276964326232       -0.68773882955551
C           67.19163199693307       -1.13061683991493       -0.36608214471807
N           65.84885444454864       -1.37883903750271       -0.34347444733859
H           68.87918126916418        0.11688650427684       -0.14865922773288
H           68.90221657580948        2.66592609064489        0.47728597861925
H           67.00628774332489        4.50525860443856        0.93351760259547
H           63.34396696685511        4.61363044656755        2.88213628647745
H           63.30969068264903        7.04232739735955        3.39461370290511
H           65.27686018073919        7.85714200774234       -0.32391890587777
H           65.30295279929156        5.43009347234984       -0.84388771932419
H           61.66525435688060        4.46003276903913        0.84728859022885
H           59.80976059551433        2.55694249830725        0.51122857256339
H           59.88378090020075       -2.66142116083929       -0.31664082192970
H           61.78903803690372       -4.49916168758960       -0.73257936196131
H           65.56499020792862       -5.31587567076297        0.75753895384709
H           65.61323584368081       -7.74519322543708        0.25025666934777
H           63.39016749082688       -7.04125451938571       -3.34464669542927
H           63.35116957871821       -4.60986300205136       -2.84642688247230
H           67.11580092480249       -4.34075834092042       -1.12491275485548
H           68.96296455559265       -2.42946107145252       -0.77912354562714
C           31.98640991097188        0.05085128147736        0.03254509931576
C           33.21121048784923        0.05866516453827        0.03111666250214
C           34.55382301603341        0.06164594649900        0.02753988931747
C           35.78469543726625        0.06098895919449        0.02111365157533
C           37.12240430438167        0.05673475762712        0.01017077013704
C           38.35334295950491        0.05270872242429       -0.00081252809098
C           39.69568578821291        0.04325226867484       -0.01147098828333
C           40.92063344235334        0.03396569305280       -0.02251754844395
C           50.61306953234168        0.00094613745396        0.07640227998867
C           51.83792988190552       -0.01103659941080        0.09388857720503
C           53.18018804935441       -0.02289684904603        0.10437140487083
C           54.41108763886666       -0.03564032203066        0.10988791397864
C           55.74875642612623       -0.04652160684793        0.11020676339903
C           56.97963334800725       -0.05432840442017        0.10669179653067
C           58.32217199939564       -0.05573907486722        0.09697436076235
C           59.54698097411710       -0.05125033503832        0.08435757401466
Zn          45.76753037629651        0.01618261208087       -0.00080209588555
C           42.32526803191017        0.02763475323608       -0.02510311043306
C           42.96544254368689       -1.22662327243920        0.04116852947674
C           42.28363956115340       -2.48383430713275        0.12996481753254
C           43.23626482244859       -3.45051238633915        0.16022601302059
C           44.50993996054129       -2.79079672105839        0.08241780188109
N           44.30879688647371       -1.43845171144671        0.02114301191068
C           45.75536611588183       -3.42957557504606        0.10017569062646
C           45.75056501113120       -4.91165690338321        0.13739269523555
C           46.32090457613099       -5.59354291589574        1.21681550464494
C           46.31795307794711       -6.97579347433770        1.25673282172359
C           45.74470243206267       -7.68425024836623        0.20434507572223
N           45.74205534257840       -9.13546264534851        0.23928435075692
O           45.23690296858550       -9.71505786103929       -0.68796048867921
O           46.24524157586536       -9.67153005980532        1.19341135215388
C           45.17390256313772       -7.02502112521740       -0.88083357351666
C           45.17666736107443       -5.64241829528780       -0.90759251988781
C           47.00519624890484       -2.79931101388414        0.08739126994422
C           48.27480751901578       -3.47051006394657        0.05560790619977
C           49.23389151722655       -2.50984059747898        0.04405157187452
N           47.21524934658099       -1.44692638954621        0.07612650067986
C           48.56014129793441       -1.24531995246065        0.05684326276250
C           49.20867995241224        0.00653649330749        0.05433196884029
C           48.56781119757079        1.26186732765469        0.02491586579308
C           49.24816171090603        2.52269815652730        0.04846220536410
C           48.29591225834935        3.48845525936086       -0.01055486463313
C           47.02413016684440        2.82403301768087       -0.07897713627577
N           47.22552199831117        1.47085049800579       -0.04313468250799
C           45.77930368203870        3.46167009583376       -0.14171705747048
C           45.78556520998944        4.94212229932218       -0.21499300487983
C           46.40019366623177        5.59214485500408       -1.28995339253528
C           46.40459334444370        6.97269025216928       -1.36846247510348
C           45.79353375702946        7.71207644027171       -0.35950288314913
N           45.79648039735309        9.16162951673607       -0.43589117877070
O           46.33581061944168        9.66926192362138       -1.38587736775340
O           45.25900631775603        9.76849909274227        0.45502964666228
C           45.17956017325639        7.08512432372191        0.72126499363347
C           45.17621534654841        5.70384866454851        0.78704677068797
C           44.52955131470711        2.83080567905193       -0.14252332463921
C           43.26140661506465        3.49636282255185       -0.25492025625480
C           42.30220321069771        2.53651472538259       -0.21781367784341
C           42.97462437630775        1.27703544522287       -0.09631524967871
N           44.31881897763174        1.48097933846089       -0.06050028412020
H           41.21283617451935       -2.60382211328993        0.16992186697200
H           43.09019601670224       -4.51544253451564        0.24210898996756
H           46.75372923300304       -5.03043259462013        2.03544979075557
H           46.75165216404543       -7.51235762325769        2.09199956427838
H           44.73805917449080       -7.59946110932618       -1.68937915526788
H           44.74595657953408       -5.11766227143068       -1.75241584155757
H           48.41457008017559       -4.53913271675685        0.03139568015888
H           50.30409507573988       -2.63903154585228        0.02049953732653
H           50.31761358355984        2.64590380158764        0.10939012141917
H           48.44089666657773        4.55654271702595        0.00580600881791
H           46.86150953770634        5.00516143660562       -2.07562847858350
H           46.87224562548379        7.48428092331915       -2.20109112750892
H           44.71501125644336        7.68324539920746        1.49594674876857
H           44.71240236407686        5.20454525895463        1.62975886924827
H           43.12264422768547        4.55995928814751       -0.36240194420461
H           41.23295270853717        2.66230491160952       -0.27669836404345
