      -----------------------------------------------------------      
     |                   =====================                   |     
     |                           x T B                           |     
     |                   =====================                   |     
     |                         S. Grimme                         |     
     |          Mulliken Center for Theoretical Chemistry        |     
     |                    University of Bonn                     |     
      -----------------------------------------------------------      

   * xtb version 6.5.1 (b24c23e) compiled by 'conda@728c89f4b128' on 2022-07-12

   xtb is free software: you can redistribute it and/or modify it under
   the terms of the GNU Lesser General Public License as published by
   the Free Software Foundation, either version 3 of the License, or
   (at your option) any later version.
   
   xtb is distributed in the hope that it will be useful,
   but WITHOUT ANY WARRANTY; without even the implied warranty of
   MERCHANTABILITY or FITNESS FOR A PARTICULAR PURPOSE.  See the
   GNU Lesser General Public License for more details.
   
   Cite this work as:
   * C. Bannwarth, E. Caldeweyher, S. Ehlert, A. Hansen, P. Pracht,
     J. Seibert, S. Spicher, S. Grimme, WIREs Comput. Mol. Sci., 2020, 11,
     e01493. DOI: 10.1002/wcms.1493
   
   for GFN2-xTB:
   * C. Bannwarth, S. Ehlert and S. Grimme., J. Chem. Theory Comput., 2019,
     15, 1652-1671. DOI: 10.1021/acs.jctc.8b01176
   for GFN1-xTB:
   * S. Grimme, C. Bannwarth, P. Shushkov, J. Chem. Theory Comput., 2017,
     13, 1989-2009. DOI: 10.1021/acs.jctc.7b00118
   for GFN0-xTB:
   * P. Pracht, E. Caldeweyher, S. Ehlert, S. Grimme, ChemRxiv, 2019, preprint.
     DOI: 10.26434/chemrxiv.8326202.v1
   for GFN-FF:
   * S. Spicher and S. Grimme, Angew. Chem. Int. Ed., 2020, 59, 15665-15673.
     DOI: 10.1002/anie.202004239
   
   for ALPB and GBSA implicit solvation:
   * S. Ehlert, M. Stahn, S. Spicher, S. Grimme, J. Chem. Theory Comput.,
     2021, 17, 4250-4261. DOI: 10.1021/acs.jctc.1c00471
   
   for DFT-D4:
   * E. Caldeweyher, C. Bannwarth and S. Grimme, J. Chem. Phys., 2017,
     147, 034112. DOI: 10.1063/1.4993215
   * E. Caldeweyher, S. Ehlert, A. Hansen, H. Neugebauer, S. Spicher,
     C. Bannwarth and S. Grimme, J. Chem. Phys., 2019, 150, 154122.
     DOI: 10.1063/1.5090222
   * E. Caldeweyher, J.-M. Mewes, S. Ehlert and S. Grimme, Phys. Chem. Chem. Phys.
     2020, 22, 8499-8512. DOI: 10.1039/D0CP00502A
   
   for sTDA-xTB:
   * S. Grimme and C. Bannwarth, J. Chem. Phys., 2016, 145, 054103.
     DOI: 10.1063/1.4959605
   
   in the mass-spec context:
   * V. Asgeirsson, C. Bauer and S. Grimme, Chem. Sci., 2017, 8, 4879.
     DOI: 10.1039/c7sc00601b
   * J. Koopman and S. Grimme, ACS Omega 2019, 4, 12, 15120-15133.
     DOI: 10.1021/acsomega.9b02011
   
   for metadynamics refer to:
   * S. Grimme, J. Chem. Theory Comput., 2019, 155, 2847-2862
     DOI: 10.1021/acs.jctc.9b00143
   
   for SPH calculations refer to:
   * S. Spicher and S. Grimme, J. Chem. Theory Comput., 2021, 17, 1701-1714
     DOI: 10.1021/acs.jctc.0c01306
   
   with help from (in alphabetical order)
   P. Atkinson, C. Bannwarth, F. Bohle, G. Brandenburg, E. Caldeweyher
   M. Checinski, S. Dohm, S. Ehlert, S. Ehrlich, I. Gerasimov, C. Hölzer
   A. Katbashev, J. Koopman, C. Lavigne, S. Lehtola, F. März, M. Müller,
   F. Musil, H. Neugebauer, J. Pisarek, C. Plett, P. Pracht, F. Pultar,
   J. Seibert, P. Shushkov, S. Spicher, M. Stahn, M. Steiner, T. Strunk,
   J. Stückrath, T. Rose, and J. Unsleber
   
 * started run on 2022/07/29 at 22:05:14.076     

           -------------------------------------------------
          |                Calculation Setup                |
           -------------------------------------------------

          program call               : xtb Fe_p-CP_C6_2.xyz --gfn 1 --opt -T 48
          hostname                   : cx3-14-28.cx3.hpc.ic.ac.uk
          coordinate file            : Fe_p-CP_C6_2.xyz
          omp threads                :                     1

   ID    Z sym.   atoms
    1   26 Fe     1, 63
    2    6 C      2-6, 8-11, 13-24, 27-32, 35-39, 42, 43, 64-68, 70-73,
                  75-86, 89-94, 97-101, 104, 105, 125-130
    3    7 N      7, 12, 33, 34, 69, 74, 95, 96
    4    8 O      25, 26, 40, 41, 87, 88, 102, 103
    5    1 H      44-62, 106-124
########################################################################
[WARNING] Please study the warnings concerning your input carefully
-1- prog_main_parseArguments: Unknown option '-T' provided
########################################################################

           -------------------------------------------------
          |                 G F N 1 - x T B                 |
           -------------------------------------------------

        Reference                      10.1021/acs.jctc.7b00118
      * Hamiltonian:
        H0-scaling (s, p, d)           1.850000    2.250000    2.000000
        zeta-weighting                 0.000000
      * Dispersion:
        s8                             2.400000
        a1                             0.630000
        a2                             5.000000
        s9                             0.000000
      * Repulsion:
        kExp                           1.500000
        rExp                           1.000000
      * Coulomb:
        alpha                          2.000000
        third order                    atomic
        anisotropic                    false
      * Halogen bond correction:
        rad-scale                      1.300000
        damping                        0.440000


          ...................................................
          :                      SETUP                      :
          :.................................................:
          :  # basis functions                 456          :
          :  # atomic orbitals                 454          :
          :  # shells                          262          :
          :  # electrons                       438          :
          :  # halogen bonds                     0          :
          :  max. iterations                   250          :
          :  Hamiltonian                  GFN1-xTB          :
          :  restarted?                      false          :
          :  GBSA solvation                  false          :
          :  PC potential                    false          :
          :  electronic temp.          300.0000000     K    :
          :  accuracy                    1.0000000          :
          :  -> integral cutoff          0.2500000E+02      :
          :  -> integral neglect         0.1000000E-07      :
          :  -> SCF convergence          0.1000000E-05 Eh   :
          :  -> wf. convergence          0.2000000E-04 e    :
          :  Broyden damping             0.4000000          :
          ...................................................

 iter      E             dE          RMSdq      gap      omega  full diag
   1   -227.5280523 -0.227528E+03  0.120E+01    0.05       0.0  T
   2   -148.0166649  0.795114E+02  0.127E+01    0.20       1.0  T
   3   -225.9932538 -0.779766E+02  0.835E+00    0.19       1.0  T
   4   -223.4898215  0.250343E+01  0.656E+00    0.02       1.0  T
   5   -222.5864183  0.903403E+00  0.708E+00    0.04       1.0  T
   6   -210.9944716  0.115919E+02  0.628E+00    0.06       1.0  T
   7   -237.2641430 -0.262697E+02  0.361E+00    0.01       1.0  T
   8   -246.0443013 -0.878016E+01  0.239E+00    0.16       1.0  T
   9   -228.4562599  0.175880E+02  0.486E+00    0.14       1.0  T
  10   -229.2996499 -0.843390E+00  0.475E+00    0.11       1.0  T
  11   -245.9693164 -0.166697E+02  0.277E+00    0.32       1.0  T
  12   -243.7067786  0.226254E+01  0.305E+00    0.04       1.0  T
  13   -245.4769477 -0.177017E+01  0.257E+00    0.14       1.0  T
  14   -245.7011040 -0.224156E+00  0.282E+00    0.06       1.0  T
  15   -246.2648474 -0.563743E+00  0.268E+00    0.15       1.0  T
  16   -246.2652006 -0.353143E-03  0.268E+00    0.15       1.0  T
  17   -246.5156692 -0.250469E+00  0.252E+00    0.18       1.0  T
  18   -246.9271804 -0.411511E+00  0.228E+00    0.09       1.0  T
  19   -246.9239633  0.321705E-02  0.232E+00    0.16       1.0  T
  20   -247.1687764 -0.244813E+00  0.200E+00    0.04       1.0  T
  21   -247.3628437 -0.194067E+00  0.195E+00    0.00       1.0  T
  22   -247.4021935 -0.393498E-01  0.189E+00    0.03       1.0  T
  23   -247.3496420  0.525514E-01  0.190E+00    0.04       1.0  T
  24   -247.7061756 -0.356534E+00  0.172E+00    0.03       1.0  T
  25   -247.9870773 -0.280902E+00  0.156E+00    0.02       1.0  T
  26   -247.4391987  0.547879E+00  0.173E+00    0.08       1.0  T
  27   -248.8363823 -0.139718E+01  0.926E-01    0.02       1.0  T
  28   -248.8989602 -0.625780E-01  0.837E-01    0.01       1.0  T
  29   -249.1946034 -0.295643E+00  0.493E-01    0.04       1.0  T
  30   -249.0114861  0.183117E+00  0.738E-01    0.02       1.0  T
  31   -246.9497374  0.206175E+01  0.186E+00    0.11       1.0  T
  32   -247.0496048 -0.998674E-01  0.182E+00    0.10       1.0  T
  33   -247.3505331 -0.300928E+00  0.170E+00    0.08       1.0  T
  34   -249.2032252 -0.185269E+01  0.481E-01    0.04       1.0  T
  35   -248.2497154  0.953510E+00  0.127E+00    0.03       1.0  T
  36   -248.9825730 -0.732858E+00  0.735E-01    0.01       1.0  T
  37   -248.1682400  0.814333E+00  0.131E+00    0.04       1.0  T
  38   -248.9088477 -0.740608E+00  0.792E-01    0.01       1.0  T
  39   -249.1908827 -0.282035E+00  0.468E-01    0.02       1.0  T
  40   -249.1483010  0.425817E-01  0.524E-01    0.01       1.0  T
  41   -249.3335367 -0.185236E+00  0.748E-02    0.03       1.0  T
  42   -249.3334352  0.101470E-03  0.666E-02    0.02       1.0  T
  43   -249.3267116  0.672366E-02  0.119E-01    0.02       1.0  T
  44   -249.3355182 -0.880658E-02  0.351E-02    0.02       1.0  T
  45   -249.3267776  0.874060E-02  0.120E-01    0.02       1.0  T
  46   -249.3320745 -0.529688E-02  0.805E-02    0.02       1.0  T
  47   -249.3350146 -0.294012E-02  0.456E-02    0.02       1.0  T
  48   -249.3357762 -0.761589E-03  0.284E-02    0.02       1.0  T
  49   -249.3345945  0.118170E-02  0.483E-02    0.02       1.0  T
  50   -249.3354699 -0.875403E-03  0.326E-02    0.02       1.0  T
  51   -249.3357115 -0.241609E-03  0.265E-02    0.02       1.0  T
  52   -249.3361868 -0.475361E-03  0.532E-03    0.02       1.6  T
  53   -249.3361798  0.709124E-05  0.578E-03    0.02       1.5  T
  54   -249.3361838 -0.404102E-05  0.526E-03    0.02       1.7  T
  55   -249.3361887 -0.488788E-05  0.458E-03    0.02       1.9  T
  56   -249.3362031 -0.143971E-04  0.446E-04    0.02      19.6  T
  57   -249.3362024  0.673034E-06  0.112E-03    0.02       7.9  T
  58   -249.3362032 -0.811162E-06  0.159E-04    0.02      55.1  T
  59   -249.3362032  0.347890E-07  0.277E-04    0.02      31.6  T
  60   -249.3362032 -0.498937E-07  0.135E-05    0.02     651.5  T

   *** convergence criteria satisfied after 60 iterations ***

         #    Occupation            Energy/Eh            Energy/eV
      -------------------------------------------------------------
         1        2.0000           -0.8168929             -22.2288
       ...           ...                  ...                  ...
       213        2.0000           -0.3977531             -10.8234
       214        1.9992           -0.3899350             -10.6107
       215        1.9991           -0.3897316             -10.6051
       216        1.9973           -0.3887232             -10.5777
       217        1.9973           -0.3887173             -10.5775
       218        1.4369           -0.3833411             -10.4312
       219        1.3766           -0.3832037             -10.4275 (HOMO)
       220        0.9145           -0.3822884             -10.4026 (LUMO)
       221        0.2791           -0.3807230             -10.3600
       222                         -0.3581061              -9.7446
       223                         -0.3424429              -9.3183
       224                         -0.3406225              -9.2688
       ...                                ...                  ...
       454                          2.0792712              56.5798
      -------------------------------------------------------------
                  HL-Gap            0.0009154 Eh            0.0249 eV
             Fermi-level           -0.3824511 Eh          -10.4070 eV

 SCC (total)                   0 d,  0 h,  0 min,  3.550 sec
 SCC setup                      ...        0 min,  0.005 sec (  0.152%)
 Dispersion                     ...        0 min,  0.004 sec (  0.107%)
 classical contributions        ...        0 min,  0.002 sec (  0.043%)
 integral evaluation            ...        0 min,  0.128 sec (  3.608%)
 iterations                     ...        0 min,  3.086 sec ( 86.925%)
 molecular gradient             ...        0 min,  0.314 sec (  8.836%)
 printout                       ...        0 min,  0.012 sec (  0.329%)

         :::::::::::::::::::::::::::::::::::::::::::::::::::::
         ::                     SUMMARY                     ::
         :::::::::::::::::::::::::::::::::::::::::::::::::::::
         :: total energy            -245.573757629923 Eh    ::
         :: gradient norm              1.044845140066 Eh/a0 ::
         :: HOMO-LUMO gap              0.024908126977 eV    ::
         ::.................................................::
         :: SCC energy              -249.336203234968 Eh    ::
         :: -> electrostatic           0.492906674617 Eh    ::
         :: repulsion energy           3.875983424105 Eh    ::
         :: dispersion energy         -0.113537819060 Eh    ::
         :: halogen bond corr.         0.000000000000 Eh    ::
         :: add. restraining           0.000000000000 Eh    ::
         :: total charge               0.000000000000 e     ::
         :::::::::::::::::::::::::::::::::::::::::::::::::::::

      ----------------------------------------------------------- 
     |                   =====================                   |
     |                        A N C O P T                        |
     |                   =====================                   |
     |               Approximate Normal Coordinate               |
     |                Rational Function Optimizer                |
      ----------------------------------------------------------- 

          ...................................................
          :                      SETUP                      :
          :.................................................:
          :   optimization level            normal          :
          :   max. optcycles                   390          :
          :   ANC micro-cycles                  20          :
          :   degrees of freedom               384          :
          :.................................................:
          :   RF solver                   davidson          :
          :   write xtbopt.log                true          :
          :   linear?                        false          :
          :   energy convergence         0.5000000E-05 Eh   :
          :   grad. convergence          0.1000000E-02 Eh/α :
          :   maximium RF displ.         1.0000000          :
          :   Hlow (freq-cutoff)         0.1000000E-01      :
          :   Hmax (freq-cutoff)         5.0000000          :
          :   S6 in model hess.         20.0000000          :
          ...................................................

generating ANC from model Hessian ...
Using Lindh-Hessian (1995)
 Shifting diagonal of input Hessian by    1.0025355232074248E-002
 Lowest  eigenvalues of input Hessian
    0.010000    0.010011    0.010022    0.000000    0.000000    0.000000
    0.000000    0.000000    0.000000    0.010044    0.010058    0.010120
    0.010134    0.010192    0.010256    0.010367    0.010383    0.010450
 Highest eigenvalues
    2.101356    2.368157    2.409539    2.587159    3.382786    3.412163


........................................................................
.............................. CYCLE    1 ..............................
........................................................................
   1   -249.3362032 -0.249336E+03  0.299E-05    0.02       0.0  T
   2   -249.3361864  0.168801E-04  0.493E-03    0.02       1.8  T
   3   -249.3362031 -0.167105E-04  0.507E-04    0.02      17.3  T
   4   -249.3362032 -0.167725E-06  0.625E-05    0.02     140.3  T
   5   -249.3362032  0.330062E-07  0.224E-04    0.02      39.1  T
   6   -249.3362032 -0.351660E-07  0.172E-05    0.02     508.4  T
     SCC iter.                  ...        0 min,  0.312 sec
     gradient                   ...        0 min,  0.311 sec
 * total energy  :  -245.5737576 Eh     change        0.9723067E-10 Eh
   gradient norm :     1.0448451 Eh/α   predicted     0.0000000E+00 (-100.00%)
   displ. norm   :     0.4710135 α      lambda       -0.4258317E+00
   maximum displ.:     0.1958684 α      in ANC's #306, #384, #382, ...

........................................................................
.............................. CYCLE    2 ..............................
........................................................................
   1   -249.4014234 -0.249401E+03  0.246E-01    0.01       0.0  T
   2   -245.8873441  0.351408E+01  0.259E+00    0.13       1.0  T
   3   -249.4221213 -0.353478E+01  0.139E-01    0.01       1.0  T
   4   -245.4284981  0.399362E+01  0.241E+00    0.08       1.0  T
   5   -249.4133178 -0.398482E+01  0.156E-01    0.01       1.0  T
   6   -247.7770346  0.163628E+01  0.153E+00    0.09       1.0  T
   7   -248.6460094 -0.868975E+00  0.106E+00    0.05       1.0  T
   8   -249.1340332 -0.488024E+00  0.650E-01    0.02       1.0  T
   9   -249.3368042 -0.202771E+00  0.365E-01    0.01       1.0  T
  10   -249.4295722 -0.927680E-01  0.184E-02    0.01       1.0  T
  11   -249.4266511  0.292108E-02  0.675E-02    0.01       1.0  T
  12   -249.4255261  0.112503E-02  0.786E-02    0.01       1.0  T
  13   -249.4297862 -0.426012E-02  0.837E-03    0.01       1.0  T
  14   -249.4296183  0.167881E-03  0.175E-02    0.01       1.0  T
  15   -249.4298001 -0.181749E-03  0.663E-03    0.01       1.3  T
  16   -249.4298134 -0.133023E-04  0.491E-03    0.01       1.8  T
  17   -249.4298294 -0.160521E-04  0.913E-04    0.01       9.6  T
  18   -249.4298297 -0.254048E-06  0.626E-04    0.01      14.0  T
  19   -249.4298284  0.126630E-05  0.148E-03    0.01       5.9  T
  20   -249.4298297 -0.131983E-05  0.540E-04    0.01      16.2  T
  21   -249.4298299 -0.197919E-06  0.949E-05    0.01      92.5  T
  22   -249.4298299 -0.618485E-08  0.754E-06    0.01    1163.4  T
     SCC iter.                  ...        0 min,  1.094 sec
     gradient                   ...        0 min,  0.311 sec
 * total energy  :  -245.8343134 Eh     change       -0.2605558E+00 Eh
   gradient norm :     0.3194719 Eh/α   predicted    -0.2601540E+00 (  -0.15%)
   displ. norm   :     0.4828245 α      lambda       -0.1033157E+00
   maximum displ.:     0.1379517 α      in ANC's #92, #102, #146, ...

........................................................................
.............................. CYCLE    3 ..............................
........................................................................
   1   -249.4869937 -0.249487E+03  0.202E-01    0.03       0.0  T
   2   -245.8381645  0.364883E+01  0.262E+00    0.06       1.0  T
   3   -249.4810436 -0.364288E+01  0.236E-01    0.00       1.0  T
   4   -246.6486241  0.283242E+01  0.203E+00    0.12       1.0  T
   5   -249.3753899 -0.272677E+01  0.446E-01    0.02       1.0  T
   6   -249.2121137  0.163276E+00  0.653E-01    0.01       1.0  T
   7   -249.5088490 -0.296735E+00  0.367E-02    0.01       1.0  T
   8   -249.4523347  0.565144E-01  0.288E-01    0.01       1.0  T
   9   -249.5087536 -0.564189E-01  0.382E-02    0.01       1.0  T
  10   -249.5089701 -0.216459E-03  0.322E-02    0.01       1.0  T
  11   -249.5093825 -0.412488E-03  0.214E-02    0.01       1.0  T
  12   -249.5077975  0.158501E-02  0.516E-02    0.01       1.0  T
  13   -249.5092682 -0.147064E-02  0.244E-02    0.01       1.0  T
  14   -249.5096709 -0.402735E-03  0.408E-03    0.01       2.2  T
  15   -249.5096712 -0.297685E-06  0.389E-03    0.01       2.3  T
  16   -249.5096801 -0.892701E-05  0.113E-03    0.01       7.8  T
  17   -249.5096806 -0.470145E-06  0.482E-04    0.01      18.2  T
  18   -249.5096798  0.827130E-06  0.119E-03    0.01       7.4  T
  19   -249.5096804 -0.596707E-06  0.742E-04    0.01      11.8  T
  20   -249.5096806 -0.243334E-06  0.438E-04    0.01      20.0  T
  21   -249.5096807 -0.130583E-06  0.604E-05    0.01     145.2  T
  22   -249.5096807 -0.241204E-08  0.895E-06    0.01     980.1  T
     SCC iter.                  ...        0 min,  1.116 sec
     gradient                   ...        0 min,  0.313 sec
 * total energy  :  -245.9097076 Eh     change       -0.7539413E-01 Eh
   gradient norm :     0.1451289 Eh/α   predicted    -0.6370032E-01 ( -15.51%)
   displ. norm   :     0.5352009 α      lambda       -0.4780028E-01
   maximum displ.:     0.1961810 α      in ANC's #92, #102, #146, ...

........................................................................
.............................. CYCLE    4 ..............................
........................................................................
   1   -249.5523778 -0.249552E+03  0.173E-01    0.07       0.0  T
   2   -246.0305603  0.352182E+01  0.256E+00    0.04       1.0  T
   3   -249.4237030 -0.339314E+01  0.535E-01    0.00       1.0  T
   4   -249.3382819  0.854211E-01  0.657E-01    0.00       1.0  T
   5   -247.2038325  0.213445E+01  0.186E+00    0.05       1.0  T
   6   -249.4218662 -0.221803E+01  0.468E-01    0.01       1.0  T
   7   -249.5036373 -0.817711E-01  0.330E-01    0.06       1.0  T
   8   -249.5365037 -0.328664E-01  0.233E-01    0.06       1.0  T
   9   -249.5252963  0.112073E-01  0.253E-01    0.04       1.0  T
  10   -249.5444141 -0.191177E-01  0.199E-01    0.06       1.0  T
  11   -249.5454478 -0.103376E-02  0.185E-01    0.05       1.0  T
  12   -249.5506738 -0.522590E-02  0.170E-01    0.03       1.0  T
  13   -249.5686885 -0.180148E-01  0.212E-02    0.05       1.0  T
  14   -249.5681435  0.545084E-03  0.361E-02    0.04       1.0  T
  15   -249.5669545  0.118898E-02  0.544E-02    0.04       1.0  T
  16   -249.5688862 -0.193169E-02  0.133E-02    0.05       1.0  T
  17   -249.5689280 -0.418803E-04  0.109E-02    0.05       1.0  T
  18   -249.5689822 -0.541081E-04  0.605E-03    0.05       1.5  T
  19   -249.5689946 -0.124821E-04  0.414E-03    0.05       2.1  T
  20   -249.5690061 -0.114408E-04  0.534E-04    0.05      16.4  T
  21   -249.5690062 -0.137227E-06  0.148E-04    0.05      59.2  T
  22   -249.5690062 -0.521180E-08  0.964E-05    0.05      91.0  T
     SCC iter.                  ...        0 min,  1.133 sec
     gradient                   ...        0 min,  0.319 sec
 * total energy  :  -245.9424716 Eh     change       -0.3276406E-01 Eh
   gradient norm :     0.0570491 Eh/α   predicted    -0.3074620E-01 (  -6.16%)
   displ. norm   :     0.5205827 α      lambda       -0.1672131E-01
   maximum displ.:     0.1826849 α      in ANC's #92, #102, #70, ...

........................................................................
.............................. CYCLE    5 ..............................
........................................................................
   1   -249.5791274 -0.249579E+03  0.143E-01    0.09       0.0  T
   2   -246.2431013  0.333603E+01  0.248E+00    0.03       1.0  T
   3   -249.5803388 -0.333724E+01  0.145E-01    0.05       1.0  T
   4   -247.8880535  0.169229E+01  0.158E+00    0.01       1.0  T
   5   -249.5392514 -0.165120E+01  0.301E-01    0.03       1.0  T
   6   -249.5696697 -0.304183E-01  0.185E-01    0.04       1.0  T
   7   -249.5875802 -0.179105E-01  0.671E-02    0.06       1.0  T
   8   -249.5875426  0.375734E-04  0.777E-02    0.08       1.0  T
   9   -249.5774907  0.100519E-01  0.140E-01    0.07       1.0  T
  10   -249.5849543 -0.746360E-02  0.907E-02    0.06       1.0  T
  11   -249.5893872 -0.443297E-02  0.420E-02    0.07       1.0  T
  12   -249.5864744  0.291282E-02  0.769E-02    0.07       1.0  T
  13   -249.5904143 -0.393987E-02  0.152E-02    0.07       1.0  T
  14   -249.5905248 -0.110520E-03  0.873E-03    0.07       1.0  T
  15   -249.5905561 -0.312574E-04  0.432E-03    0.07       2.0  T
  16   -249.5905666 -0.105068E-04  0.780E-04    0.07      11.3  T
  17   -249.5905656  0.967076E-06  0.139E-03    0.07       6.3  T
  18   -249.5905661 -0.530586E-06  0.113E-03    0.07       7.7  T
  19   -249.5905663 -0.177006E-06  0.874E-04    0.07      10.0  T
  20   -249.5905668 -0.466035E-06  0.863E-05    0.07     101.6  T
  21   -249.5905668  0.187790E-07  0.186E-04    0.07      47.3  T
     SCC iter.                  ...        0 min,  1.092 sec
     gradient                   ...        0 min,  0.311 sec
 * total energy  :  -245.9544528 Eh     change       -0.1198121E-01 Eh
   gradient norm :     0.0329813 Eh/α   predicted    -0.1062645E-01 ( -11.31%)
   displ. norm   :     0.5192827 α      lambda       -0.7872459E-02
   maximum displ.:     0.1804025 α      in ANC's #36, #30, #70, ...

........................................................................
.............................. CYCLE    6 ..............................
........................................................................
   1   -249.5846156 -0.249585E+03  0.146E-01    0.10       0.0  T
   2   -246.2104694  0.337415E+01  0.249E+00    0.02       1.0  T
   3   -249.5905619 -0.338009E+01  0.975E-02    0.09       1.0  T
   4   -249.4001855  0.190376E+00  0.531E-01    0.04       1.0  T
   5   -249.5933722 -0.193187E+00  0.644E-02    0.07       1.0  T
   6   -249.5929253  0.446853E-03  0.788E-02    0.06       1.0  T
   7   -249.5926925  0.232810E-03  0.812E-02    0.06       1.0  T
   8   -249.5956979 -0.300541E-02  0.301E-02    0.08       1.0  T
   9   -249.5959686 -0.270735E-03  0.168E-02    0.07       1.0  T
  10   -249.5953898  0.578830E-03  0.321E-02    0.07       1.0  T
  11   -249.5953702  0.195644E-04  0.328E-02    0.07       1.0  T
  12   -249.5961087 -0.738464E-03  0.385E-03    0.07       2.3  T
  13   -249.5961187 -0.100255E-04  0.874E-04    0.07      10.0  T
  14   -249.5961187  0.551683E-07  0.928E-04    0.07       9.5  T
  15   -249.5961188 -0.147780E-06  0.774E-04    0.07      11.3  T
  16   -249.5961190 -0.226810E-06  0.531E-04    0.07      16.5  T
  17   -249.5961192 -0.149813E-06  0.240E-04    0.07      36.6  T
  18   -249.5961192 -0.261202E-07  0.131E-04    0.07      67.1  T
  19   -249.5961192 -0.109056E-07  0.389E-05    0.07     225.6  T
     SCC iter.                  ...        0 min,  0.922 sec
     gradient                   ...        0 min,  0.299 sec
 * total energy  :  -245.9601504 Eh     change       -0.5697558E-02 Eh
   gradient norm :     0.0242849 Eh/α   predicted    -0.4997657E-02 ( -12.28%)
   displ. norm   :     0.4957181 α      lambda       -0.4006264E-02
   maximum displ.:     0.2036716 α      in ANC's #36, #30, #22, ...

........................................................................
.............................. CYCLE    7 ..............................
........................................................................
   1   -249.5920616 -0.249592E+03  0.113E-01    0.10       0.0  T
   2   -246.4915571  0.310050E+01  0.239E+00    0.01       1.0  T
   3   -249.5894360 -0.309788E+01  0.129E-01    0.10       1.0  T
   4   -248.0375273  0.155191E+01  0.150E+00    0.01       1.0  T
   5   -249.5953645 -0.155784E+01  0.761E-02    0.09       1.0  T
   6   -249.5983321 -0.296756E-02  0.342E-02    0.07       1.0  T
   7   -249.5981703  0.161747E-03  0.390E-02    0.07       1.0  T
   8   -249.5981714 -0.105192E-05  0.389E-02    0.07       1.0  T
   9   -249.5987926 -0.621202E-03  0.137E-02    0.07       1.0  T
  10   -249.5981352  0.657399E-03  0.327E-02    0.07       1.0  T
  11   -249.5982447 -0.109496E-03  0.310E-02    0.08       1.0  T
  12   -249.5988372 -0.592577E-03  0.908E-03    0.07       1.0  T
  13   -249.5988936 -0.563488E-04  0.161E-03    0.08       5.4  T
  14   -249.5988949 -0.127469E-05  0.634E-04    0.08      13.8  T
  15   -249.5988943  0.520937E-06  0.105E-03    0.08       8.4  T
  16   -249.5988942  0.186667E-06  0.116E-03    0.08       7.6  T
  17   -249.5988946 -0.433857E-06  0.856E-04    0.08      10.2  T
  18   -249.5988948 -0.201905E-06  0.635E-04    0.08      13.8  T
  19   -249.5988950 -0.232218E-06  0.249E-04    0.08      35.3  T
  20   -249.5988951 -0.346144E-07  0.105E-04    0.08      83.8  T
  21   -249.5988951 -0.594468E-08  0.474E-05    0.08     185.0  T
     SCC iter.                  ...        0 min,  1.013 sec
     gradient                   ...        0 min,  0.297 sec
 * total energy  :  -245.9630727 Eh     change       -0.2922336E-02 Eh
   gradient norm :     0.0180723 Eh/α   predicted    -0.2495383E-02 ( -14.61%)
   displ. norm   :     0.4725901 α      lambda       -0.2277421E-02
   maximum displ.:     0.2007875 α      in ANC's #36, #22, #30, ...

........................................................................
.............................. CYCLE    8 ..............................
........................................................................
   1   -249.6013505 -0.249601E+03  0.556E-02    0.09       0.0  T
   2   -248.0771912  0.152416E+01  0.167E+00    0.01       1.0  T
   3   -249.5802691 -0.150308E+01  0.184E-01    0.08       1.0  T
   4   -249.2539215  0.326348E+00  0.709E-01    0.05       1.0  T
   5   -249.5934933 -0.339572E+00  0.128E-01    0.10       1.0  T
   6   -249.6022692 -0.877597E-02  0.327E-02    0.08       1.0  T
   7   -249.6025896 -0.320396E-03  0.222E-02    0.08       1.0  T
   8   -249.6027381 -0.148455E-03  0.168E-02    0.08       1.0  T
   9   -249.6010341  0.170402E-02  0.526E-02    0.07       1.0  T
  10   -249.6023816 -0.134755E-02  0.276E-02    0.08       1.0  T
  11   -249.6029171 -0.535496E-03  0.132E-03    0.08       6.7  T
  12   -249.6029140  0.310122E-05  0.251E-03    0.08       3.5  T
  13   -249.6029172 -0.315275E-05  0.139E-03    0.08       6.3  T
  14   -249.6029181 -0.982946E-06  0.459E-04    0.08      19.1  T
  15   -249.6029162  0.192441E-05  0.172E-03    0.08       5.1  T
  16   -249.6029178 -0.159593E-05  0.824E-04    0.08      10.6  T
  17   -249.6029180 -0.206595E-06  0.603E-04    0.08      14.6  T
  18   -249.6029183 -0.227781E-06  0.161E-04    0.08      54.4  T
  19   -249.6029183 -0.132375E-07  0.711E-05    0.08     123.3  T
     SCC iter.                  ...        0 min,  0.912 sec
     gradient                   ...        0 min,  0.287 sec
 * total energy  :  -245.9647263 Eh     change       -0.1653565E-02 Eh
   gradient norm :     0.0128619 Eh/α   predicted    -0.1393034E-02 ( -15.76%)
   displ. norm   :     0.4678984 α      lambda       -0.1489657E-02
   maximum displ.:     0.2138245 α      in ANC's #22, #30, #36, ...

........................................................................
.............................. CYCLE    9 ..............................
........................................................................
   1   -249.6084912 -0.249608E+03  0.162E-02    0.08       0.0  T
   2   -249.4561166  0.152375E+00  0.530E-01    0.01       1.0  T
   3   -249.6049192 -0.148803E+00  0.752E-02    0.08       1.0  T
   4   -249.4392637  0.165655E+00  0.493E-01    0.06       1.0  T
   5   -249.6073378 -0.168074E+00  0.476E-02    0.09       1.0  T
   6   -249.6083057 -0.967850E-03  0.225E-02    0.08       1.0  T
   7   -249.6084294 -0.123712E-03  0.156E-02    0.08       1.0  T
   8   -249.6084588 -0.294488E-04  0.140E-02    0.08       1.0  T
   9   -249.6085518 -0.929586E-04  0.686E-03    0.08       1.3  T
  10   -249.6085689 -0.171010E-04  0.477E-03    0.08       1.8  T
  11   -249.6085849 -0.160568E-04  0.559E-04    0.08      15.7  T
  12   -249.6085850 -0.868973E-07  0.370E-04    0.08      23.7  T
  13   -249.6085851 -0.785234E-07  0.139E-04    0.08      63.2  T
  14   -249.6085851 -0.658454E-08  0.869E-05    0.08     100.9  T
     SCC iter.                  ...        0 min,  0.674 sec
     gradient                   ...        0 min,  0.289 sec
 * total energy  :  -245.9657132 Eh     change       -0.9869387E-03 Eh
   gradient norm :     0.0124201 Eh/α   predicted    -0.9078936E-03 (  -8.01%)
   displ. norm   :     0.4390281 α      lambda       -0.1049413E-02
   maximum displ.:     0.2304665 α      in ANC's #22, #30, #18, ...

........................................................................
.............................. CYCLE   10 ..............................
........................................................................
   1   -249.6088952 -0.249609E+03  0.480E-02    0.07       0.0  T
   2   -249.4797024  0.129193E+00  0.465E-01    0.15       1.0  T
   3   -248.6038817  0.875821E+00  0.121E+00    0.02       1.0  T
   4   -249.6082833 -0.100440E+01  0.513E-02    0.08       1.0  T
   5   -249.6073463  0.936964E-03  0.651E-02    0.09       1.0  T
   6   -249.6098178 -0.247144E-02  0.220E-02    0.08       1.0  T
   7   -249.6099362 -0.118491E-03  0.153E-02    0.08       1.0  T
   8   -249.6098832  0.530708E-04  0.176E-02    0.08       1.0  T
   9   -249.6100644 -0.181193E-03  0.724E-03    0.08       1.2  T
  10   -249.6100885 -0.241251E-04  0.338E-03    0.08       2.6  T
  11   -249.6100932 -0.467798E-05  0.212E-03    0.08       4.1  T
  12   -249.6100951 -0.190131E-05  0.938E-04    0.08       9.3  T
  13   -249.6100956 -0.495471E-06  0.272E-04    0.08      32.3  T
  14   -249.6100956 -0.486856E-07  0.578E-05    0.08     151.8  T
  15   -249.6100956  0.327217E-07  0.224E-04    0.08      39.1  T
  16   -249.6100956 -0.310285E-07  0.755E-05    0.08     116.2  T
     SCC iter.                  ...        0 min,  0.774 sec
     gradient                   ...        0 min,  0.327 sec
 * total energy  :  -245.9663555 Eh     change       -0.6422780E-03 Eh
   gradient norm :     0.0108773 Eh/α   predicted    -0.6258434E-03 (  -2.56%)
   displ. norm   :     0.3303781 α      lambda       -0.5801783E-03
   maximum displ.:     0.1668378 α      in ANC's #22, #18, #13, ...

........................................................................
.............................. CYCLE   11 ..............................
........................................................................
   1   -249.6089474 -0.249609E+03  0.416E-02    0.08       0.0  T
   2   -249.5036032  0.105344E+00  0.422E-01    0.16       1.0  T
   3   -249.6010838 -0.974806E-01  0.112E-01    0.08       1.0  T
   4   -249.5991325  0.195126E-02  0.124E-01    0.08       1.0  T
   5   -249.6095901 -0.104576E-01  0.209E-02    0.09       1.0  T
   6   -249.6096918 -0.101722E-03  0.146E-02    0.09       1.0  T
   7   -249.6096880  0.380710E-05  0.146E-02    0.09       1.0  T
   8   -249.6097598 -0.717506E-04  0.106E-02    0.09       1.0  T
   9   -249.6098251 -0.652742E-04  0.431E-03    0.09       2.0  T
  10   -249.6098370 -0.118986E-04  0.142E-03    0.09       6.2  T
  11   -249.6098383 -0.136878E-05  0.321E-04    0.09      27.4  T
  12   -249.6098383 -0.175478E-07  0.252E-04    0.09      34.8  T
  13   -249.6098384 -0.331067E-07  0.185E-05    0.09     475.0  T
  14   -249.6098384  0.157112E-08  0.514E-05    0.09     170.5  T
     SCC iter.                  ...        0 min,  0.724 sec
     gradient                   ...        0 min,  0.302 sec
 * total energy  :  -245.9667876 Eh     change       -0.4320987E-03 Eh
   gradient norm :     0.0080157 Eh/α   predicted    -0.3217535E-03 ( -25.54%)
   displ. norm   :     0.3596863 α      lambda       -0.5161149E-03
   maximum displ.:     0.1753494 α      in ANC's #18, #22, #13, ...

........................................................................
.............................. CYCLE   12 ..............................
........................................................................
   1   -249.6047027 -0.249605E+03  0.450E-02    0.09       0.0  T
   2   -249.4900152  0.114688E+00  0.439E-01    0.15       1.0  T
   3   -249.0745262  0.415489E+00  0.879E-01    0.05       1.0  T
   4   -249.6043010 -0.529775E+00  0.465E-02    0.10       1.0  T
   5   -249.6051307 -0.829706E-03  0.326E-02    0.10       1.0  T
   6   -249.6055243 -0.393574E-03  0.170E-02    0.10       1.0  T
   7   -249.6056358 -0.111469E-03  0.109E-02    0.10       1.0  T
   8   -249.6056795 -0.437098E-04  0.735E-03    0.10       1.2  T
   9   -249.6057096 -0.301852E-04  0.321E-03    0.10       2.7  T
  10   -249.6057148 -0.516640E-05  0.164E-03    0.10       5.3  T
  11   -249.6057157 -0.902443E-06  0.980E-04    0.10       9.0  T
  12   -249.6057162 -0.514185E-06  0.315E-04    0.10      27.9  T
  13   -249.6057163 -0.271538E-07  0.230E-04    0.10      38.2  T
  14   -249.6057163 -0.714076E-08  0.199E-04    0.10      44.0  T
  15   -249.6057163 -0.105313E-07  0.155E-04    0.10      56.4  T
     SCC iter.                  ...        0 min,  0.807 sec
     gradient                   ...        0 min,  0.325 sec
 * total energy  :  -245.9671302 Eh     change       -0.3426179E-03 Eh
   gradient norm :     0.0064508 Eh/α   predicted    -0.2914519E-03 ( -14.93%)
   displ. norm   :     0.2780238 α      lambda       -0.3022535E-03
   maximum displ.:     0.1518190 α      in ANC's #18, #13, #22, ...

........................................................................
.............................. CYCLE   13 ..............................
........................................................................
   1   -249.6019985 -0.249602E+03  0.531E-03    0.10       0.0  T
   2   -249.5732918  0.287067E-01  0.207E-01    0.11       1.0  T
   3   -249.5834525 -0.101607E-01  0.166E-01    0.11       1.0  T
   4   -249.6015548 -0.181023E-01  0.279E-02    0.10       1.0  T
   5   -249.6018299 -0.275082E-03  0.158E-02    0.10       1.0  T
   6   -249.6017845  0.453546E-04  0.180E-02    0.10       1.0  T
   7   -249.6019602 -0.175615E-03  0.838E-03    0.10       1.0  T
   8   -249.6019501  0.100085E-04  0.910E-03    0.10       1.0  T
   9   -249.6020072 -0.570846E-04  0.749E-04    0.10      11.7  T
  10   -249.6020069  0.364687E-06  0.103E-03    0.10       8.5  T
  11   -249.6020073 -0.421311E-06  0.615E-04    0.10      14.3  T
  12   -249.6020075 -0.207640E-06  0.226E-04    0.10      38.8  T
  13   -249.6020075 -0.212123E-07  0.132E-04    0.10      66.3  T
  14   -249.6020075 -0.108274E-07  0.334E-05    0.10     262.2  T
     SCC iter.                  ...        0 min,  0.707 sec
     gradient                   ...        0 min,  0.298 sec
 * total energy  :  -245.9673148 Eh     change       -0.1846065E-03 Eh
   gradient norm :     0.0061979 Eh/α   predicted    -0.1628099E-03 ( -11.81%)
   displ. norm   :     0.2165762 α      lambda       -0.2081862E-03
   maximum displ.:     0.1267022 α      in ANC's #18, #13, #8, ...

........................................................................
.............................. CYCLE   14 ..............................
........................................................................
   1   -249.5989596 -0.249599E+03  0.230E-02    0.11       0.0  T
   2   -249.2059228  0.393037E+00  0.853E-01    0.02       1.0  T
   3   -249.5797542 -0.373831E+00  0.168E-01    0.10       1.0  T
   4   -249.5910856 -0.113314E-01  0.110E-01    0.10       1.0  T
   5   -249.5985975 -0.751193E-02  0.335E-02    0.11       1.0  T
   6   -249.5987915 -0.194003E-03  0.262E-02    0.10       1.0  T
   7   -249.5992049 -0.413333E-03  0.660E-03    0.10       1.3  T
   8   -249.5991973  0.753062E-05  0.687E-03    0.10       1.3  T
   9   -249.5992195 -0.221401E-04  0.392E-03    0.10       2.2  T
  10   -249.5992299 -0.104108E-04  0.830E-04    0.10      10.6  T
  11   -249.5992299  0.178805E-07  0.836E-04    0.10      10.5  T
  12   -249.5992302 -0.377690E-06  0.190E-04    0.10      46.1  T
  13   -249.5992302 -0.157852E-07  0.810E-05    0.10     108.3  T
     SCC iter.                  ...        0 min,  0.723 sec
     gradient                   ...        0 min,  0.293 sec
 * total energy  :  -245.9674700 Eh     change       -0.1551472E-03 Eh
   gradient norm :     0.0049848 Eh/α   predicted    -0.1089771E-03 ( -29.76%)
   displ. norm   :     0.2335951 α      lambda       -0.1840246E-03
   maximum displ.:     0.1371664 α      in ANC's #18, #13, #8, ...

........................................................................
.............................. CYCLE   15 ..............................
........................................................................
   1   -249.5971293 -0.249597E+03  0.279E-02    0.10       0.0  T
   2   -249.0824537  0.514676E+00  0.972E-01    0.02       1.0  T
   3   -249.3317478 -0.249294E+00  0.621E-01    0.07       1.0  T
   4   -249.5950124 -0.263265E+00  0.638E-02    0.11       1.0  T
   5   -249.5960970 -0.108464E-02  0.497E-02    0.11       1.0  T
   6   -249.5972010 -0.110397E-02  0.228E-02    0.10       1.0  T
   7   -249.5974899 -0.288916E-03  0.766E-03    0.10       1.1  T
   8   -249.5974986 -0.866622E-05  0.664E-03    0.10       1.3  T
   9   -249.5974871  0.114306E-04  0.762E-03    0.10       1.2  T
  10   -249.5975238 -0.366821E-04  0.219E-03    0.10       4.0  T
  11   -249.5975186  0.517025E-05  0.350E-03    0.10       2.5  T
  12   -249.5975263 -0.764170E-05  0.967E-04    0.10       9.1  T
  13   -249.5975267 -0.387349E-06  0.397E-04    0.10      22.1  T
  14   -249.5975266  0.913815E-07  0.515E-04    0.10      17.0  T
  15   -249.5975268 -0.170774E-06  0.117E-04    0.10      74.9  T
  16   -249.5975267  0.264697E-08  0.129E-04    0.10      67.9  T
     SCC iter.                  ...        0 min,  0.857 sec
     gradient                   ...        0 min,  0.287 sec
 * total energy  :  -245.9676083 Eh     change       -0.1383426E-03 Eh
   gradient norm :     0.0038906 Eh/α   predicted    -0.9703444E-04 ( -29.86%)
   displ. norm   :     0.2527815 α      lambda       -0.1514209E-03
   maximum displ.:     0.1421509 α      in ANC's #18, #13, #8, ...

........................................................................
.............................. CYCLE   16 ..............................
........................................................................
   1   -249.5966819 -0.249597E+03  0.139E-02    0.10       0.0  T
   2   -249.3968735  0.199808E+00  0.600E-01    0.03       1.0  T
   3   -249.4579731 -0.610997E-01  0.448E-01    0.07       1.0  T
   4   -249.5959561 -0.137983E+00  0.363E-02    0.10       1.0  T
   5   -249.5964062 -0.450122E-03  0.254E-02    0.10       1.0  T
   6   -249.5966605 -0.254350E-03  0.141E-02    0.10       1.0  T
   7   -249.5967733 -0.112786E-03  0.364E-03    0.10       2.4  T
   8   -249.5967564  0.169205E-04  0.603E-03    0.10       1.5  T
   9   -249.5967627 -0.630234E-05  0.516E-03    0.10       1.7  T
  10   -249.5967789 -0.161586E-04  0.151E-03    0.10       5.8  T
  11   -249.5967769  0.196155E-05  0.226E-03    0.10       3.9  T
  12   -249.5967802 -0.325237E-05  0.671E-04    0.10      13.1  T
  13   -249.5967802 -0.818228E-07  0.532E-04    0.10      16.5  T
  14   -249.5967803 -0.571601E-07  0.426E-04    0.10      20.6  T
  15   -249.5967804 -0.680046E-07  0.251E-04    0.10      35.0  T
  16   -249.5967804 -0.347019E-07  0.480E-05    0.10     182.9  T
  17   -249.5967804 -0.148881E-08  0.707E-06    0.10    1240.5  T
     SCC iter.                  ...        0 min,  0.899 sec
     gradient                   ...        0 min,  0.305 sec
 * total energy  :  -245.9677221 Eh     change       -0.1137767E-03 Eh
   gradient norm :     0.0046623 Eh/α   predicted    -0.8055293E-04 ( -29.20%)
   displ. norm   :     0.2958614 α      lambda       -0.1546656E-03
   maximum displ.:     0.1642443 α      in ANC's #13, #18, #8, ...

........................................................................
.............................. CYCLE   17 ..............................
........................................................................
   1   -249.5963271 -0.249596E+03  0.330E-03    0.09       0.0  T
   2   -249.5889239  0.740320E-02  0.110E-01    0.11       1.0  T
   3   -249.5806106  0.831333E-02  0.151E-01    0.09       1.0  T
   4   -249.5962645 -0.156539E-01  0.101E-02    0.09       1.0  T
   5   -249.5963225 -0.580177E-04  0.372E-03    0.09       2.4  T
   6   -249.5963302 -0.768830E-05  0.178E-03    0.09       4.9  T
   7   -249.5963307 -0.470395E-06  0.151E-03    0.09       5.8  T
   8   -249.5963251  0.556702E-05  0.318E-03    0.09       2.8  T
   9   -249.5963321 -0.703200E-05  0.365E-04    0.09      24.0  T
  10   -249.5963322 -0.946695E-07  0.138E-05    0.09     635.2  T
  11   -249.5963322  0.388437E-08  0.771E-05    0.09     113.7  T
     SCC iter.                  ...        0 min,  0.578 sec
     gradient                   ...        0 min,  0.310 sec
 * total energy  :  -245.9678422 Eh     change       -0.1200568E-03 Eh
   gradient norm :     0.0052602 Eh/α   predicted    -0.8410663E-04 ( -29.94%)
   displ. norm   :     0.3827703 α      lambda       -0.1832342E-03
   maximum displ.:     0.2090534 α      in ANC's #13, #18, #8, ...

........................................................................
.............................. CYCLE   18 ..............................
........................................................................
   1   -249.5960230 -0.249596E+03  0.177E-02    0.09       0.0  T
   2   -249.5493076  0.467153E-01  0.286E-01    0.14       1.0  T
   3   -249.5610949 -0.117873E-01  0.225E-01    0.08       1.0  T
   4   -249.5957404 -0.346454E-01  0.261E-02    0.09       1.0  T
   5   -249.5961745 -0.434113E-03  0.408E-03    0.09       2.1  T
   6   -249.5961841 -0.965578E-05  0.109E-03    0.09       8.1  T
   7   -249.5961843 -0.179179E-06  0.882E-04    0.09       9.9  T
   8   -249.5961828  0.153108E-05  0.174E-03    0.09       5.0  T
   9   -249.5961821  0.631107E-06  0.192E-03    0.09       4.6  T
  10   -249.5961846 -0.247582E-05  0.482E-04    0.09      18.2  T
  11   -249.5961847 -0.127086E-06  0.240E-04    0.09      36.5  T
  12   -249.5961848 -0.308067E-07  0.551E-05    0.09     159.3  T
  13   -249.5961848 -0.132906E-08  0.265E-05    0.09     330.8  T
     SCC iter.                  ...        0 min,  0.658 sec
     gradient                   ...        0 min,  0.308 sec
 * total energy  :  -245.9679919 Eh     change       -0.1497843E-03 Eh
   gradient norm :     0.0054338 Eh/α   predicted    -0.1050454E-03 ( -29.87%)
   displ. norm   :     0.4663026 α      lambda       -0.2128177E-03
   maximum displ.:     0.2497888 α      in ANC's #13, #18, #8, ...

........................................................................
.............................. CYCLE   19 ..............................
........................................................................
   1   -249.5957616 -0.249596E+03  0.292E-02    0.09       0.0  T
   2   -249.5233867  0.723749E-01  0.353E-01    0.15       1.0  T
   3   -249.5765150 -0.531283E-01  0.169E-01    0.09       1.0  T
   4   -249.5948968 -0.183818E-01  0.442E-02    0.09       1.0  T
   5   -249.5961428 -0.124596E-02  0.991E-03    0.10       1.0  T
   6   -249.5961827 -0.399280E-04  0.508E-03    0.10       1.7  T
   7   -249.5961883 -0.562604E-05  0.340E-03    0.10       2.6  T
   8   -249.5961928 -0.447337E-05  0.232E-03    0.10       3.8  T
   9   -249.5961909  0.185530E-05  0.280E-03    0.10       3.1  T
  10   -249.5961950 -0.409678E-05  0.144E-03    0.10       6.1  T
  11   -249.5961964 -0.137421E-05  0.418E-04    0.10      21.0  T
  12   -249.5961965 -0.760064E-07  0.173E-04    0.10      50.8  T
  13   -249.5961965 -0.153155E-07  0.348E-05    0.10     251.8  T
     SCC iter.                  ...        0 min,  0.670 sec
     gradient                   ...        0 min,  0.314 sec
 * total energy  :  -245.9681626 Eh     change       -0.1706031E-03 Eh
   gradient norm :     0.0044281 Eh/α   predicted    -0.1295521E-03 ( -24.06%)
   displ. norm   :     0.4836749 α      lambda       -0.1961849E-03
   maximum displ.:     0.2520438 α      in ANC's #13, #8, #18, ...

........................................................................
.............................. CYCLE   20 ..............................
........................................................................
   1   -249.5963545 -0.249596E+03  0.259E-02    0.10       0.0  T
   2   -249.5323531  0.640014E-01  0.333E-01    0.15       1.0  T
   3   -249.5666818 -0.343287E-01  0.209E-01    0.09       1.0  T
   4   -249.5955167 -0.288349E-01  0.424E-02    0.10       1.0  T
   5   -249.5966144 -0.109768E-02  0.114E-02    0.10       1.0  T
   6   -249.5966769 -0.625163E-04  0.506E-03    0.10       1.7  T
   7   -249.5966711  0.582187E-05  0.547E-03    0.10       1.6  T
   8   -249.5966698  0.126693E-05  0.568E-03    0.10       1.5  T
   9   -249.5966896 -0.198324E-04  0.198E-03    0.10       4.4  T
  10   -249.5966920 -0.236049E-05  0.757E-04    0.10      11.6  T
  11   -249.5966923 -0.328793E-06  0.342E-04    0.10      25.6  T
  12   -249.5966924 -0.494671E-07  0.158E-04    0.10      55.5  T
  13   -249.5966924 -0.125962E-07  0.332E-05    0.10     264.0  T
     SCC iter.                  ...        0 min,  0.677 sec
     gradient                   ...        0 min,  0.317 sec
 * total energy  :  -245.9683120 Eh     change       -0.1494838E-03 Eh
   gradient norm :     0.0040836 Eh/α   predicted    -0.1210436E-03 ( -19.03%)
   displ. norm   :     0.4101093 α      lambda       -0.1425112E-03
   maximum displ.:     0.2044163 α      in ANC's #13, #8, #18, ...
 * RMSD in coord.:     0.4589008 α      energy gain  -0.3945544E+00 Eh

generating ANC from model Hessian ...
Using Lindh-Hessian (1995)
 Shifting diagonal of input Hessian by    1.0024437837081715E-002
 Lowest  eigenvalues of input Hessian
    0.010000    0.010009    0.010018    0.000000    0.000000    0.000000
    0.000000    0.000000    0.000000    0.010031    0.010034    0.010118
    0.010128    0.010208    0.010277    0.010390    0.010401    0.010510
 Highest eigenvalues
    2.397894    2.397942    2.399578    2.399679    2.660385    2.989882


........................................................................
.............................. CYCLE   21 ..............................
........................................................................
   1   -249.5980222 -0.249598E+03  0.101E-02    0.10       0.0  T
   2   -249.5751711  0.228511E-01  0.202E-01    0.14       1.0  T
   3   -249.5874743 -0.123032E-01  0.124E-01    0.10       1.0  T
   4   -249.5973988 -0.992448E-02  0.320E-02    0.10       1.0  T
   5   -249.5980462 -0.647422E-03  0.587E-03    0.10       1.5  T
   6   -249.5980450  0.124588E-05  0.610E-03    0.10       1.4  T
   7   -249.5980615 -0.165474E-04  0.366E-03    0.10       2.4  T
   8   -249.5980649 -0.340583E-05  0.293E-03    0.10       3.0  T
   9   -249.5980702 -0.532505E-05  0.907E-04    0.10       9.7  T
  10   -249.5980708 -0.571485E-06  0.156E-04    0.10      56.2  T
  11   -249.5980708  0.140342E-07  0.215E-04    0.10      40.7  T
  12   -249.5980708 -0.230808E-07  0.711E-05    0.10     123.4  T
     SCC iter.                  ...        0 min,  0.617 sec
     gradient                   ...        0 min,  0.324 sec
 * total energy  :  -245.9684176 Eh     change       -0.1055347E-03 Eh
   gradient norm :     0.0041028 Eh/α   predicted     0.0000000E+00 (-100.00%)
   displ. norm   :     0.0439912 α      lambda       -0.3434331E-04
   maximum displ.:     0.0211623 α      in ANC's #17, #15, #21, ...

........................................................................
.............................. CYCLE   22 ..............................
........................................................................
   1   -249.5994492 -0.249599E+03  0.960E-03    0.10       0.0  T
   2   -249.5256307  0.738184E-01  0.368E-01    0.05       1.0  T
   3   -249.5979996 -0.723689E-01  0.468E-02    0.10       1.0  T
   4   -249.5944316  0.356801E-02  0.858E-02    0.10       1.0  T
   5   -249.5994325 -0.500090E-02  0.107E-02    0.10       1.0  T
   6   -249.5994822 -0.497069E-04  0.503E-03    0.10       1.7  T
   7   -249.5994918 -0.958829E-05  0.292E-03    0.10       3.0  T
   8   -249.5994888  0.304109E-05  0.337E-03    0.10       2.6  T
   9   -249.5994959 -0.714293E-05  0.949E-04    0.10       9.2  T
  10   -249.5994963 -0.403934E-06  0.577E-04    0.10      15.2  T
  11   -249.5994966 -0.225556E-06  0.109E-04    0.10      80.4  T
  12   -249.5994966 -0.607497E-08  0.511E-05    0.10     171.5  T
     SCC iter.                  ...        0 min,  0.621 sec
     gradient                   ...        0 min,  0.326 sec
 * total energy  :  -245.9684461 Eh     change       -0.2854039E-04 Eh
   gradient norm :     0.0022989 Eh/α   predicted    -0.2454285E-04 ( -14.01%)
   displ. norm   :     0.1402943 α      lambda       -0.1261395E-03
   maximum displ.:     0.0539302 α      in ANC's #15, #20, #18, ...

........................................................................
.............................. CYCLE   23 ..............................
........................................................................
   1   -249.6026364 -0.249603E+03  0.311E-02    0.10       0.0  T
   2   -249.0654322  0.537204E+00  0.994E-01    0.02       1.0  T
   3   -249.5336509 -0.468219E+00  0.317E-01    0.09       1.0  T
   4   -249.5962146 -0.625637E-01  0.102E-01    0.10       1.0  T
   5   -249.6018135 -0.559896E-02  0.483E-02    0.11       1.0  T
   6   -249.6028818 -0.106825E-02  0.209E-02    0.10       1.0  T
   7   -249.6031250 -0.243249E-03  0.380E-03    0.10       2.3  T
   8   -249.6031178  0.720117E-05  0.518E-03    0.10       1.7  T
   9   -249.6031163  0.155134E-05  0.516E-03    0.10       1.7  T
  10   -249.6031311 -0.148423E-04  0.222E-03    0.10       3.9  T
  11   -249.6031300  0.114998E-05  0.253E-03    0.10       3.5  T
  12   -249.6031344 -0.444522E-05  0.660E-05    0.10     132.9  T
  13   -249.6031344  0.266158E-07  0.205E-04    0.10      42.7  T
  14   -249.6031344 -0.210804E-07  0.107E-04    0.10      82.2  T
  15   -249.6031344 -0.386794E-08  0.749E-05    0.10     117.1  T
     SCC iter.                  ...        0 min,  0.777 sec
     gradient                   ...        0 min,  0.310 sec
 * total energy  :  -245.9684363 Eh     change        0.9769990E-05 Eh
   gradient norm :     0.0061773 Eh/α   predicted    -0.6431470E-04 (-758.29%)
   displ. norm   :     0.0407372 α      lambda       -0.1158516E-03
   maximum displ.:     0.0286138 α      in ANC's #17, #46, #20, ...

........................................................................
.............................. CYCLE   24 ..............................
........................................................................
   1   -249.6010131 -0.249601E+03  0.769E-03    0.10       0.0  T
   2   -249.5834402  0.175730E-01  0.177E-01    0.13       1.0  T
   3   -249.5904518 -0.701167E-02  0.124E-01    0.09       1.0  T
   4   -249.6008972 -0.104453E-01  0.148E-02    0.10       1.0  T
   5   -249.6010367 -0.139538E-03  0.312E-03    0.10       2.8  T
   6   -249.6010383 -0.161957E-05  0.272E-03    0.10       3.2  T
   7   -249.6010379  0.385325E-06  0.278E-03    0.10       3.2  T
   8   -249.6010394 -0.144904E-05  0.235E-03    0.10       3.7  T
   9   -249.6010431 -0.367700E-05  0.582E-04    0.10      15.1  T
  10   -249.6010433 -0.212395E-06  0.188E-04    0.10      46.8  T
  11   -249.6010433 -0.745729E-08  0.139E-04    0.10      63.1  T
     SCC iter.                  ...        0 min,  0.560 sec
     gradient                   ...        0 min,  0.326 sec
 * total energy  :  -245.9684928 Eh     change       -0.5645381E-04 Eh
   gradient norm :     0.0026907 Eh/α   predicted    -0.5802583E-04 (   2.78%)
   displ. norm   :     0.0575311 α      lambda       -0.6179773E-04
   maximum displ.:     0.0352217 α      in ANC's #14, #18, #20, ...

........................................................................
.............................. CYCLE   25 ..............................
........................................................................
   1   -249.5984937 -0.249598E+03  0.893E-03    0.10       0.0  T
   2   -249.5777252  0.207685E-01  0.193E-01    0.14       1.0  T
   3   -249.5959262 -0.182010E-01  0.615E-02    0.10       1.0  T
   4   -249.5980080 -0.208175E-02  0.278E-02    0.10       1.0  T
   5   -249.5985284 -0.520431E-03  0.298E-03    0.10       2.9  T
   6   -249.5985254  0.301779E-05  0.360E-03    0.10       2.4  T
   7   -249.5985295 -0.416150E-05  0.259E-03    0.10       3.4  T
   8   -249.5985302 -0.691866E-06  0.237E-03    0.10       3.7  T
   9   -249.5985336 -0.333062E-05  0.974E-04    0.10       9.0  T
  10   -249.5985342 -0.645002E-06  0.187E-04    0.10      46.8  T
  11   -249.5985342 -0.106451E-07  0.120E-04    0.10      73.1  T
     SCC iter.                  ...        0 min,  0.564 sec
     gradient                   ...        0 min,  0.311 sec
 * total energy  :  -245.9684728 Eh     change        0.1996109E-04 Eh
   gradient norm :     0.0030088 Eh/α   predicted    -0.3100147E-04 (-255.31%)
   displ. norm   :     0.0525078 α      lambda       -0.8447819E-04
   maximum displ.:     0.0284322 α      in ANC's #14, #15, #21, ...

........................................................................
.............................. CYCLE   26 ..............................
........................................................................
   1   -249.5993069 -0.249599E+03  0.388E-03    0.10       0.0  T
   2   -249.5894996  0.980733E-02  0.134E-01    0.08       1.0  T
   3   -249.5990892 -0.958960E-02  0.182E-02    0.10       1.0  T
   4   -249.5985839  0.505297E-03  0.326E-02    0.10       1.0  T
   5   -249.5993063 -0.722421E-03  0.381E-03    0.10       2.3  T
   6   -249.5993113 -0.498642E-05  0.238E-03    0.10       3.7  T
   7   -249.5993138 -0.254838E-05  0.118E-03    0.10       7.4  T
   8   -249.5993131  0.743758E-06  0.148E-03    0.10       5.9  T
   9   -249.5993144 -0.133582E-05  0.513E-04    0.10      17.1  T
  10   -249.5993146 -0.182081E-06  0.851E-05    0.10     103.1  T
  11   -249.5993146 -0.437623E-08  0.229E-05    0.10     383.0  T
     SCC iter.                  ...        0 min,  0.555 sec
     gradient                   ...        0 min,  0.316 sec
 * total energy  :  -245.9685215 Eh     change       -0.4871080E-04 Eh
   gradient norm :     0.0010987 Eh/α   predicted    -0.4236201E-04 ( -13.03%)
   displ. norm   :     0.1001318 α      lambda       -0.1912412E-04
   maximum displ.:     0.0507912 α      in ANC's #15, #18, #8, ...

........................................................................
.............................. CYCLE   27 ..............................
........................................................................
   1   -249.5998834 -0.249600E+03  0.267E-03    0.10       0.0  T
   2   -249.5955551  0.432826E-02  0.886E-02    0.08       1.0  T
   3   -249.5988051 -0.324996E-02  0.395E-02    0.10       1.0  T
   4   -249.5998370 -0.103191E-02  0.865E-03    0.10       1.0  T
   5   -249.5998830 -0.459988E-04  0.268E-03    0.10       3.3  T
   6   -249.5998856 -0.260121E-05  0.159E-03    0.10       5.5  T
   7   -249.5998868 -0.118121E-05  0.553E-04    0.10      15.9  T
   8   -249.5998868  0.232648E-07  0.520E-04    0.10      16.9  T
   9   -249.5998869 -0.154441E-06  0.224E-04    0.10      39.2  T
  10   -249.5998869 -0.252575E-07  0.123E-04    0.10      71.2  T
  11   -249.5998870 -0.100113E-07  0.289E-05    0.10     303.0  T
     SCC iter.                  ...        0 min,  0.554 sec
     gradient                   ...        0 min,  0.311 sec
 * total energy  :  -245.9685433 Eh     change       -0.2175454E-04 Eh
   gradient norm :     0.0013444 Eh/α   predicted    -0.9609082E-05 ( -55.83%)
   displ. norm   :     0.2379298 α      lambda       -0.3816052E-04
   maximum displ.:     0.1190150 α      in ANC's #15, #18, #8, ...

........................................................................
.............................. CYCLE   28 ..............................
........................................................................
   1   -249.5991096 -0.249599E+03  0.649E-03    0.10       0.0  T
   2   -249.5852338  0.138758E-01  0.158E-01    0.13       1.0  T
   3   -249.5945768 -0.934297E-02  0.811E-02    0.09       1.0  T
   4   -249.5990341 -0.445728E-02  0.121E-02    0.10       1.0  T
   5   -249.5991299 -0.958014E-04  0.141E-03    0.10       6.2  T
   6   -249.5991275  0.237452E-05  0.236E-03    0.10       3.7  T
   7   -249.5991273  0.170164E-06  0.236E-03    0.10       3.7  T
   8   -249.5991301 -0.274865E-05  0.127E-03    0.10       6.9  T
   9   -249.5991311 -0.107243E-05  0.328E-04    0.10      26.7  T
  10   -249.5991312 -0.600259E-07  0.166E-04    0.10      52.9  T
  11   -249.5991312 -0.128439E-07  0.809E-05    0.10     108.4  T
     SCC iter.                  ...        0 min,  0.578 sec
     gradient                   ...        0 min,  0.316 sec
 * total energy  :  -245.9685860 Eh     change       -0.4268209E-04 Eh
   gradient norm :     0.0015794 Eh/α   predicted    -0.1956111E-04 ( -54.17%)
   displ. norm   :     0.3199991 α      lambda       -0.4272268E-04
   maximum displ.:     0.1620094 α      in ANC's #15, #18, #8, ...

........................................................................
.............................. CYCLE   29 ..............................
........................................................................
   1   -249.5994904 -0.249599E+03  0.601E-03    0.10       0.0  T
   2   -249.5858260  0.136644E-01  0.155E-01    0.13       1.0  T
   3   -249.5795699  0.625616E-02  0.170E-01    0.09       1.0  T
   4   -249.5994692 -0.198993E-01  0.793E-03    0.10       1.1  T
   5   -249.5995072 -0.380136E-04  0.157E-03    0.10       5.6  T
   6   -249.5995008  0.639789E-05  0.343E-03    0.10       2.6  T
   7   -249.5995038 -0.299622E-05  0.275E-03    0.10       3.2  T
   8   -249.5995079 -0.413859E-05  0.119E-03    0.10       7.4  T
   9   -249.5995089 -0.989256E-06  0.145E-04    0.10      60.5  T
  10   -249.5995089  0.838651E-08  0.188E-04    0.10      46.6  T
     SCC iter.                  ...        0 min,  0.519 sec
     gradient                   ...        0 min,  0.312 sec
 * total energy  :  -245.9686285 Eh     change       -0.4251891E-04 Eh
   gradient norm :     0.0016978 Eh/α   predicted    -0.2233415E-04 ( -47.47%)
   displ. norm   :     0.2292731 α      lambda       -0.2652844E-04
   maximum displ.:     0.1193296 α      in ANC's #15, #18, #8, ...

........................................................................
.............................. CYCLE   30 ..............................
........................................................................
   1   -249.6000446 -0.249600E+03  0.403E-03    0.10       0.0  T
   2   -249.5917032  0.834148E-02  0.120E-01    0.12       1.0  T
   3   -249.5814799  0.102233E-01  0.164E-01    0.09       1.0  T
   4   -249.6000246 -0.185447E-01  0.668E-03    0.10       1.3  T
   5   -249.6000524 -0.277873E-04  0.769E-04    0.10      11.4  T
   6   -249.6000499  0.249601E-05  0.208E-03    0.10       4.2  T
   7   -249.6000488  0.113606E-05  0.242E-03    0.10       3.6  T
   8   -249.6000522 -0.341339E-05  0.911E-04    0.10       9.6  T
   9   -249.6000528 -0.583599E-06  0.908E-05    0.10      96.6  T
  10   -249.6000528  0.729071E-08  0.139E-04    0.10      63.1  T
     SCC iter.                  ...        0 min,  0.506 sec
     gradient                   ...        0 min,  0.312 sec
 * total energy  :  -245.9686581 Eh     change       -0.2957677E-04 Eh
   gradient norm :     0.0014345 Eh/α   predicted    -0.1357601E-04 ( -54.10%)
   displ. norm   :     0.2042569 α      lambda       -0.2382480E-04
   maximum displ.:     0.1087620 α      in ANC's #15, #18, #8, ...

........................................................................
.............................. CYCLE   31 ..............................
........................................................................
   1   -249.6009545 -0.249601E+03  0.175E-03    0.10       0.0  T
   2   -249.5973378  0.361668E-02  0.755E-02    0.09       1.0  T
   3   -249.5969334  0.404334E-03  0.767E-02    0.09       1.0  T
   4   -249.6009468 -0.401339E-02  0.392E-03    0.10       2.2  T
   5   -249.6009546 -0.778768E-05  0.145E-03    0.10       6.1  T
   6   -249.6009551 -0.458065E-06  0.101E-03    0.10       8.7  T
   7   -249.6009554 -0.270882E-06  0.742E-04    0.10      11.8  T
   8   -249.6009557 -0.346015E-06  0.260E-04    0.10      33.7  T
   9   -249.6009557  0.470166E-07  0.364E-04    0.10      24.1  T
  10   -249.6009557 -0.913147E-07  0.427E-05    0.10     205.4  T
  11   -249.6009557  0.955140E-09  0.545E-05    0.10     161.0  T
     SCC iter.                  ...        0 min,  0.567 sec
     gradient                   ...        0 min,  0.311 sec
 * total energy  :  -245.9686837 Eh     change       -0.2563100E-04 Eh
   gradient norm :     0.0009991 Eh/α   predicted    -0.1213443E-04 ( -52.66%)
   displ. norm   :     0.1787384 α      lambda       -0.1458744E-04
   maximum displ.:     0.0994889 α      in ANC's #15, #18, #8, ...

........................................................................
.............................. CYCLE   32 ..............................
........................................................................
   1   -249.6000407 -0.249600E+03  0.518E-03    0.10       0.0  T
   2   -249.5805339  0.195068E-01  0.189E-01    0.07       1.0  T
   3   -249.5991282 -0.185943E-01  0.367E-02    0.10       1.0  T
   4   -249.5994474 -0.319210E-03  0.298E-02    0.10       1.0  T
   5   -249.6000429 -0.595480E-03  0.461E-03    0.10       1.9  T
   6   -249.6000518 -0.896103E-05  0.220E-03    0.10       4.0  T
   7   -249.6000539 -0.203116E-05  0.101E-03    0.10       8.7  T
   8   -249.6000543 -0.482211E-06  0.316E-04    0.10      27.8  T
   9   -249.6000542  0.129311E-06  0.529E-04    0.10      16.6  T
  10   -249.6000544 -0.193206E-06  0.738E-05    0.10     118.8  T
  11   -249.6000544  0.836593E-09  0.829E-05    0.10     105.8  T
     SCC iter.                  ...        0 min,  0.569 sec
     gradient                   ...        0 min,  0.313 sec
 * total energy  :  -245.9686985 Eh     change       -0.1481438E-04 Eh
   gradient norm :     0.0012070 Eh/α   predicted    -0.7397850E-05 ( -50.06%)
   displ. norm   :     0.1060106 α      lambda       -0.1059457E-04
   maximum displ.:     0.0560941 α      in ANC's #15, #8, #18, ...

........................................................................
.............................. CYCLE   33 ..............................
........................................................................
   1   -249.6003977 -0.249600E+03  0.244E-03    0.10       0.0  T
   2   -249.5972952  0.310256E-02  0.752E-02    0.08       1.0  T
   3   -249.6003834 -0.308826E-02  0.529E-03    0.10       1.7  T
   4   -249.5985829  0.180051E-02  0.513E-02    0.10       1.0  T
   5   -249.6003978 -0.181489E-02  0.219E-03    0.10       4.0  T
   6   -249.6003998 -0.201026E-05  0.106E-03    0.10       8.3  T
   7   -249.6004001 -0.304339E-06  0.746E-04    0.10      11.8  T
   8   -249.6004002 -0.731680E-07  0.562E-04    0.10      15.6  T
   9   -249.6004003 -0.122106E-06  0.379E-04    0.10      23.2  T
  10   -249.6004004 -0.936124E-07  0.109E-04    0.10      80.5  T
  11   -249.6004004 -0.836479E-08  0.991E-06    0.10     884.8  T
     SCC iter.                  ...        0 min,  0.562 sec
     gradient                   ...        0 min,  0.310 sec
 * total energy  :  -245.9687086 Eh     change       -0.1008640E-04 Eh
   gradient norm :     0.0011891 Eh/α   predicted    -0.5324136E-05 ( -47.21%)
   displ. norm   :     0.1127251 α      lambda       -0.9414748E-05
   maximum displ.:     0.0650121 α      in ANC's #15, #8, #18, ...

........................................................................
.............................. CYCLE   34 ..............................
........................................................................
   1   -249.5995431 -0.249600E+03  0.144E-03    0.10       0.0  T
   2   -249.5983875  0.115562E-02  0.446E-02    0.09       1.0  T
   3   -249.5976183  0.769236E-03  0.528E-02    0.09       1.0  T
   4   -249.5995177 -0.189942E-02  0.644E-03    0.10       1.4  T
   5   -249.5995386 -0.209585E-04  0.290E-03    0.10       3.0  T
   6   -249.5995410 -0.234326E-05  0.212E-03    0.10       4.1  T
   7   -249.5995422 -0.121933E-05  0.159E-03    0.10       5.5  T
   8   -249.5995429 -0.754389E-06  0.119E-03    0.10       7.4  T
   9   -249.5995439 -0.100246E-05  0.477E-05    0.10     183.7  T
  10   -249.5995439  0.175706E-08  0.697E-05    0.10     125.8  T
  11   -249.5995439 -0.247499E-08  0.352E-05    0.10     249.3  T
     SCC iter.                  ...        0 min,  0.548 sec
     gradient                   ...        0 min,  0.303 sec
 * total energy  :  -245.9687193 Eh     change       -0.1065694E-04 Eh
   gradient norm :     0.0008768 Eh/α   predicted    -0.4736635E-05 ( -55.55%)
   displ. norm   :     0.1191631 α      lambda       -0.1171587E-04
   maximum displ.:     0.0632675 α      in ANC's #15, #8, #13, ...

........................................................................
.............................. CYCLE   35 ..............................
........................................................................
   1   -249.5985789 -0.249599E+03  0.157E-03    0.10       0.0  T
   2   -249.5974355  0.114341E-02  0.450E-02    0.10       1.0  T
   3   -249.5974134  0.220770E-04  0.411E-02    0.10       1.0  T
   4   -249.5985755 -0.116208E-02  0.266E-03    0.10       3.3  T
   5   -249.5985792 -0.372133E-05  0.122E-03    0.10       7.2  T
   6   -249.5985782  0.989594E-06  0.164E-03    0.10       5.3  T
   7   -249.5985785 -0.316739E-06  0.147E-03    0.10       6.0  T
   8   -249.5985791 -0.537919E-06  0.117E-03    0.10       7.5  T
   9   -249.5985800 -0.937256E-06  0.245E-04    0.10      35.9  T
  10   -249.5985800 -0.421915E-07  0.133E-05    0.10     659.1  T
  11   -249.5985800  0.513580E-10  0.147E-05    0.10     595.0  T
     SCC iter.                  ...        0 min,  0.558 sec
     gradient                   ...        0 min,  0.314 sec
 * total energy  :  -245.9687314 Eh     change       -0.1213760E-04 Eh
   gradient norm :     0.0011283 Eh/α   predicted    -0.5897654E-05 ( -51.41%)
   displ. norm   :     0.1446123 α      lambda       -0.1270818E-04
   maximum displ.:     0.0708687 α      in ANC's #15, #23, #8, ...

........................................................................
.............................. CYCLE   36 ..............................
........................................................................
   1   -249.5982635 -0.249598E+03  0.559E-03    0.09       0.0  T
   2   -249.5846101  0.136534E-01  0.155E-01    0.12       1.0  T
   3   -249.5739166  0.106935E-01  0.188E-01    0.09       1.0  T
   4   -249.5981635 -0.242470E-01  0.130E-02    0.09       1.0  T
   5   -249.5982430 -0.794719E-04  0.728E-03    0.10       1.2  T
   6   -249.5982618 -0.188153E-04  0.512E-03    0.09       1.7  T
   7   -249.5982765 -0.146569E-04  0.232E-03    0.09       3.8  T
   8   -249.5982790 -0.247796E-05  0.141E-03    0.09       6.2  T
   9   -249.5982803 -0.132231E-05  0.257E-04    0.10      34.2  T
  10   -249.5982803 -0.415679E-07  0.780E-05    0.10     112.4  T
  11   -249.5982803 -0.356013E-08  0.242E-05    0.10     362.2  T
     SCC iter.                  ...        0 min,  0.555 sec
     gradient                   ...        0 min,  0.312 sec
 * total energy  :  -245.9687417 Eh     change       -0.1034271E-04 Eh
   gradient norm :     0.0013478 Eh/α   predicted    -0.6415952E-05 ( -37.97%)
   displ. norm   :     0.0910440 α      lambda       -0.8033715E-05
   maximum displ.:     0.0524862 α      in ANC's #15, #8, #23, ...

........................................................................
.............................. CYCLE   37 ..............................
........................................................................
   1   -249.5983642 -0.249598E+03  0.375E-03    0.09       0.0  T
   2   -249.5917902  0.657399E-02  0.108E-01    0.12       1.0  T
   3   -249.5933014 -0.151124E-02  0.856E-02    0.09       1.0  T
   4   -249.5983511 -0.504969E-02  0.547E-03    0.09       1.6  T
   5   -249.5983709 -0.197672E-04  0.114E-03    0.09       7.7  T
   6   -249.5983717 -0.876526E-06  0.143E-04    0.09      61.4  T
   7   -249.5983715  0.216005E-06  0.577E-04    0.09      15.2  T
   8   -249.5983716 -0.814428E-07  0.454E-04    0.09      19.3  T
   9   -249.5983717 -0.122150E-06  0.183E-04    0.09      47.9  T
     SCC iter.                  ...        0 min,  0.459 sec
     gradient                   ...        0 min,  0.317 sec
 * total energy  :  -245.9687511 Eh     change       -0.9341085E-05 Eh
   gradient norm :     0.0009342 Eh/α   predicted    -0.4036625E-05 ( -56.79%)
   displ. norm   :     0.1359922 α      lambda       -0.1240687E-04
   maximum displ.:     0.0795942 α      in ANC's #15, #8, #23, ...

........................................................................
.............................. CYCLE   38 ..............................
........................................................................
   1   -249.5990233 -0.249599E+03  0.444E-03    0.09       0.0  T
   2   -249.5894105  0.961283E-02  0.130E-01    0.12       1.0  T
   3   -249.5831935  0.621702E-02  0.151E-01    0.09       1.0  T
   4   -249.5989915 -0.157981E-01  0.784E-03    0.09       1.1  T
   5   -249.5990316 -0.400743E-04  0.178E-03    0.09       4.9  T
   6   -249.5990337 -0.211407E-05  0.331E-04    0.09      26.5  T
   7   -249.5990335  0.206283E-06  0.673E-04    0.09      13.0  T
   8   -249.5990329  0.575090E-06  0.110E-03    0.09       8.0  T
   9   -249.5990338 -0.832461E-06  0.154E-04    0.09      56.9  T
  10   -249.5990338 -0.149954E-07  0.564E-05    0.09     155.4  T
     SCC iter.                  ...        0 min,  0.518 sec
     gradient                   ...        0 min,  0.318 sec
 * total energy  :  -245.9687646 Eh     change       -0.1350451E-04 Eh
   gradient norm :     0.0010097 Eh/α   predicted    -0.6257176E-05 ( -53.67%)
   displ. norm   :     0.1617606 α      lambda       -0.1106201E-04
   maximum displ.:     0.0976173 α      in ANC's #15, #8, #5, ...

........................................................................
.............................. CYCLE   39 ..............................
........................................................................
   1   -249.5996986 -0.249600E+03  0.456E-03    0.09       0.0  T
   2   -249.5893040  0.103946E-01  0.134E-01    0.12       1.0  T
   3   -249.5797268  0.957716E-02  0.170E-01    0.09       1.0  T
   4   -249.5996225 -0.198957E-01  0.113E-02    0.09       1.0  T
   5   -249.5996929 -0.703576E-04  0.484E-03    0.09       1.8  T
   6   -249.5997054 -0.124835E-04  0.242E-03    0.09       3.6  T
   7   -249.5997082 -0.285233E-05  0.135E-03    0.09       6.5  T
   8   -249.5997073  0.887275E-06  0.176E-03    0.09       5.0  T
   9   -249.5997095 -0.212534E-05  0.675E-05    0.09     129.9  T
  10   -249.5997095 -0.228988E-08  0.298E-05    0.09     294.1  T
  11   -249.5997095  0.149478E-08  0.549E-05    0.09     159.9  T
     SCC iter.                  ...        0 min,  0.570 sec
     gradient                   ...        0 min,  0.320 sec
 * total energy  :  -245.9687749 Eh     change       -0.1033276E-04 Eh
   gradient norm :     0.0011696 Eh/α   predicted    -0.5599949E-05 ( -45.80%)
   displ. norm   :     0.1403889 α      lambda       -0.7953949E-05
   maximum displ.:     0.0889444 α      in ANC's #15, #8, #6, ...

........................................................................
.............................. CYCLE   40 ..............................
........................................................................
   1   -249.5998073 -0.249600E+03  0.244E-03    0.09       0.0  T
   2   -249.5963363  0.347103E-02  0.776E-02    0.11       1.0  T
   3   -249.5940031  0.233321E-02  0.917E-02    0.09       1.0  T
   4   -249.5997721 -0.576899E-02  0.750E-03    0.09       1.2  T
   5   -249.5998070 -0.348799E-04  0.218E-03    0.09       4.0  T
   6   -249.5998053  0.164255E-05  0.269E-03    0.09       3.3  T
   7   -249.5998099 -0.454709E-05  0.864E-04    0.09      10.1  T
   8   -249.5998100 -0.142349E-06  0.731E-04    0.09      12.0  T
   9   -249.5998104 -0.365421E-06  0.655E-05    0.09     134.0  T
  10   -249.5998104 -0.237569E-08  0.100E-05    0.09     876.9  T
     SCC iter.                  ...        0 min,  0.484 sec
     gradient                   ...        0 min,  0.300 sec
 * total energy  :  -245.9687827 Eh     change       -0.7797993E-05 Eh
   gradient norm :     0.0009003 Eh/α   predicted    -0.4013384E-05 ( -48.53%)
   displ. norm   :     0.0960618 α      lambda       -0.5775658E-05
   maximum displ.:     0.0626160 α      in ANC's #15, #8, #6, ...

........................................................................
.............................. CYCLE   41 ..............................
........................................................................
   1   -249.5997307 -0.249600E+03  0.511E-04    0.09       0.0  T
   2   -249.5988633  0.867400E-03  0.357E-02    0.10       1.0  T
   3   -249.5996725 -0.809273E-03  0.973E-03    0.10       1.0  T
   4   -249.5997135 -0.409620E-04  0.509E-03    0.09       1.7  T
   5   -249.5997296 -0.160867E-04  0.128E-03    0.09       6.8  T
   6   -249.5997282  0.141141E-05  0.194E-03    0.09       4.5  T
   7   -249.5997307 -0.248542E-05  0.412E-04    0.09      21.3  T
   8   -249.5997305  0.103726E-06  0.562E-04    0.09      15.6  T
   9   -249.5997308 -0.222425E-06  0.109E-05    0.09     801.6  T
  10   -249.5997308  0.134150E-09  0.176E-05    0.09     497.3  T
     SCC iter.                  ...        0 min,  0.485 sec
     gradient                   ...        0 min,  0.299 sec
 * total energy  :  -245.9687898 Eh     change       -0.7070858E-05 Eh
   gradient norm :     0.0006797 Eh/α   predicted    -0.2903090E-05 ( -58.94%)
   displ. norm   :     0.1096713 α      lambda       -0.6928476E-05
   maximum displ.:     0.0725155 α      in ANC's #15, #8, #6, ...

........................................................................
.............................. CYCLE   42 ..............................
........................................................................
   1   -249.5993992 -0.249599E+03  0.107E-03    0.09       0.0  T
   2   -249.5963697  0.302957E-02  0.670E-02    0.10       1.0  T
   3   -249.5988423 -0.247262E-02  0.293E-02    0.10       1.0  T
   4   -249.5993440 -0.501755E-03  0.913E-03    0.09       1.0  T
   5   -249.5993873 -0.432518E-04  0.418E-03    0.09       2.1  T
   6   -249.5993922 -0.493463E-05  0.330E-03    0.09       2.7  T
   7   -249.5993995 -0.723695E-05  0.694E-04    0.09      12.6  T
   8   -249.5993990  0.431511E-06  0.103E-03    0.09       8.5  T
   9   -249.5993997 -0.719742E-06  0.121E-04    0.09      72.4  T
  10   -249.5993997 -0.890455E-08  0.298E-05    0.09     294.0  T
     SCC iter.                  ...        0 min,  0.482 sec
     gradient                   ...        0 min,  0.299 sec
 * total energy  :  -245.9687979 Eh     change       -0.8085612E-05 Eh
   gradient norm :     0.0006830 Eh/α   predicted    -0.3484931E-05 ( -56.90%)
   displ. norm   :     0.1149166 α      lambda       -0.5980547E-05
[...]
    19   6 C    3.928 --    18 C    1.330    29 C    1.313    20 C    1.032
    20   6 C    3.986 --    28 C    1.386    21 C    1.384    19 C    1.032
    21   6 C    3.986 --    22 C    1.464    20 C    1.384    51 H    0.972
                            27 C    0.103
    22   6 C    3.990 --    21 C    1.464    23 C    1.385    52 H    0.968
                            28 C    0.103
    23   6 C    3.982 --    27 C    1.389    22 C    1.385    24 C    1.009
    24   6 C    3.836 --    26 O    1.690    25 O    1.088    23 C    1.009
    25   8 O    2.097 --    24 C    1.088    53 H    0.838    26 O    0.129
    26   8 O    1.958 --    24 C    1.690    25 O    0.129
    27   6 C    3.991 --    28 C    1.461    23 C    1.389    54 H    0.969
                            21 C    0.103
    28   6 C    3.987 --    27 C    1.461    20 C    1.386    55 H    0.972
                            22 C    0.103
    29   6 C    3.920 --    19 C    1.313    33 N    1.224    30 C    1.174
    30   6 C    3.961 --    31 C    1.650    29 C    1.174    56 H    0.972
    31   6 C    3.959 --    30 C    1.650    32 C    1.173    57 H    0.975
    32   6 C    3.923 --     2 C    1.363    33 N    1.209    31 C    1.173
    33   7 N    3.384 --    29 C    1.224    32 C    1.209     1 Fe   0.674
    34   7 N    3.381 --    15 C    1.244    18 C    1.202     1 Fe   0.661
    35   6 C    3.986 --    43 C    1.388    36 C    1.387     8 C    1.025
    36   6 C    3.987 --    37 C    1.463    35 C    1.387    58 H    0.972
                            42 C    0.103
    37   6 C    3.990 --    36 C    1.463    38 C    1.386    59 H    0.968
                            43 C    0.103
    38   6 C    3.984 --    42 C    1.389    37 C    1.386    39 C    1.009
    39   6 C    3.836 --    41 O    1.691    40 O    1.088    38 C    1.009
    40   8 O    2.097 --    39 C    1.088    60 H    0.838    41 O    0.129
    41   8 O    1.959 --    39 C    1.691    40 O    0.129
    42   6 C    3.991 --    43 C    1.460    38 C    1.389    61 H    0.969
                            36 C    0.103
    43   6 C    3.988 --    42 C    1.460    35 C    1.388    62 H    0.972
                            37 C    0.103
    44   1 H    1.000 --     2 C    0.970
    45   1 H    0.997 --     4 C    0.975
    46   1 H    1.004 --     5 C    0.972
    47   1 H    1.004 --    10 C    0.973
    48   1 H    1.001 --    11 C    0.973
    49   1 H    1.001 --    16 C    0.973
    50   1 H    1.004 --    17 C    0.973
    51   1 H    1.004 --    21 C    0.972
    52   1 H    1.005 --    22 C    0.968
    53   1 H    0.873 --    25 O    0.838
    54   1 H    1.005 --    27 C    0.969
    55   1 H    1.004 --    28 C    0.972
    56   1 H    1.004 --    30 C    0.972
    57   1 H    0.997 --    31 C    0.975
    58   1 H    1.003 --    36 C    0.972
    59   1 H    1.005 --    37 C    0.968
    60   1 H    0.873 --    40 O    0.838
    61   1 H    1.005 --    42 C    0.969
    62   1 H    1.003 --    43 C    0.972
    63  26 Fe   3.163 --    95 N    0.674    69 N    0.668    74 N    0.665
                            96 N    0.661
    64   6 C    3.926 --    94 C    1.363    65 C    1.363   106 H    0.970
    65   6 C    3.923 --    64 C    1.363    69 N    1.209    66 C    1.172
    66   6 C    3.959 --    67 C    1.651    65 C    1.172   107 H    0.975
    67   6 C    3.961 --    66 C    1.651    68 C    1.174   108 H    0.972
    68   6 C    3.920 --    70 C    1.313    69 N    1.225    67 C    1.174
    69   7 N    3.382 --    68 C    1.225    65 C    1.209    63 Fe   0.668
    70   6 C    3.927 --    71 C    1.335    68 C    1.313    97 C    1.025
    71   6 C    3.916 --    70 C    1.335    74 N    1.199    72 C    1.179
    72   6 C    3.956 --    73 C    1.639    71 C    1.179   109 H    0.973
    73   6 C    3.960 --    72 C    1.639    75 C    1.188   110 H    0.973
    74   7 N    3.383 --    75 C    1.246    71 C    1.199    63 Fe   0.665
    75   6 C    3.903 --    76 C    1.250    74 N    1.246    73 C    1.188
    76   6 C    3.926 --    77 C    1.250    75 C    1.250   130 C    1.204
    77   6 C    3.903 --    76 C    1.250    96 N    1.244    78 C    1.189
    78   6 C    3.959 --    79 C    1.637    77 C    1.189   111 H    0.973
    79   6 C    3.957 --    78 C    1.637    80 C    1.180   112 H    0.973
    80   6 C    3.916 --    81 C    1.330    96 N    1.202    79 C    1.180
    81   6 C    3.928 --    80 C    1.330    91 C    1.313    82 C    1.031
    82   6 C    3.986 --    90 C    1.386    83 C    1.384    81 C    1.031
    83   6 C    3.986 --    84 C    1.464    82 C    1.384   113 H    0.972
                            89 C    0.103
    84   6 C    3.990 --    83 C    1.464    85 C    1.385   114 H    0.968
                            90 C    0.103
    85   6 C    3.982 --    89 C    1.389    84 C    1.385    86 C    1.009
    86   6 C    3.836 --    88 O    1.690    87 O    1.088    85 C    1.009
    87   8 O    2.097 --    86 C    1.088   115 H    0.838    88 O    0.129
    88   8 O    1.958 --    86 C    1.690    87 O    0.129
    89   6 C    3.991 --    90 C    1.461    85 C    1.389   116 H    0.969
                            83 C    0.103
    90   6 C    3.987 --    89 C    1.461    82 C    1.386   117 H    0.972
                            84 C    0.103
    91   6 C    3.920 --    81 C    1.313    95 N    1.224    92 C    1.174
    92   6 C    3.961 --    93 C    1.650    91 C    1.174   118 H    0.972
    93   6 C    3.959 --    92 C    1.650    94 C    1.173   119 H    0.975
    94   6 C    3.923 --    64 C    1.363    95 N    1.209    93 C    1.173
    95   7 N    3.384 --    91 C    1.224    94 C    1.209    63 Fe   0.674
    96   7 N    3.381 --    77 C    1.244    80 C    1.202    63 Fe   0.661
    97   6 C    3.986 --   105 C    1.388    98 C    1.387    70 C    1.025
    98   6 C    3.987 --    99 C    1.463    97 C    1.387   120 H    0.972
                           104 C    0.103
    99   6 C    3.990 --    98 C    1.463   100 C    1.386   121 H    0.968
                           105 C    0.103
   100   6 C    3.984 --   104 C    1.389    99 C    1.386   101 C    1.009
   101   6 C    3.836 --   103 O    1.690   102 O    1.088   100 C    1.009
   102   8 O    2.097 --   101 C    1.088   122 H    0.838   103 O    0.129
   103   8 O    1.959 --   101 C    1.690   102 O    0.129
   104   6 C    3.991 --   105 C    1.460   100 C    1.389   123 H    0.969
                            98 C    0.103
   105   6 C    3.988 --   104 C    1.460    97 C    1.388   124 H    0.972
                            99 C    0.103
   106   1 H    1.000 --    64 C    0.970
   107   1 H    0.997 --    66 C    0.975
   108   1 H    1.004 --    67 C    0.972
   109   1 H    1.004 --    72 C    0.973
   110   1 H    1.001 --    73 C    0.973
   111   1 H    1.001 --    78 C    0.973
   112   1 H    1.004 --    79 C    0.973
   113   1 H    1.004 --    83 C    0.972
   114   1 H    1.005 --    84 C    0.968
   115   1 H    0.873 --    87 O    0.838
   116   1 H    1.005 --    89 C    0.969
   117   1 H    1.004 --    90 C    0.972
   118   1 H    1.004 --    92 C    0.972
   119   1 H    0.997 --    93 C    0.975
   120   1 H    1.003 --    98 C    0.972
   121   1 H    1.005 --    99 C    0.968
   122   1 H    0.873 --   102 O    0.838
   123   1 H    1.005 --   104 C    0.969
   124   1 H    1.003 --   105 C    0.972
   125   6 C    3.914 --   126 C    2.341   129 C    1.352   128 C    0.186
   126   6 C    3.914 --   125 C    2.341   127 C    1.352   130 C    0.186
   127   6 C    3.922 --   128 C    2.423   126 C    1.352
   128   6 C    3.880 --   127 C    2.423    14 C    1.204   125 C    0.186
   129   6 C    3.922 --   130 C    2.423   125 C    1.352
   130   6 C    3.879 --   129 C    2.423    76 C    1.204   126 C    0.186
 ---------------------------------------------------------------------------

Topologies differ in total number of bonds
Writing topology from bond orders to xtbtopo.mol

 dipole moment from electron density (au)
     X       Y       Z   
  -0.0035   2.2309   0.1300  total (Debye):    5.680

           -------------------------------------------------
          |                Geometry Summary                 |
           -------------------------------------------------

      molecular mass/u    :     1278.8353590
   center of mass at/Å    :       24.4461365      -0.0293357      -0.0016134
  moments of inertia/u·Å² :        0.3325807E+05   0.8183430E+05   0.1141885E+06
rotational constants/cm⁻¹ :        0.5068735E-03   0.2059971E-03   0.1476298E-03

 * 129 selected distances

     #   Z          #   Z                                           value/Å
     2   6 C        3   6 C                                       1.3795141
     3   6 C        4   6 C                                       1.4319361
     4   6 C        5   6 C                                       1.3535028
     5   6 C        6   6 C                                       1.4346598
     3   6 C        7   7 N                                       1.3702483
     6   6 C        7   7 N                                       1.3685000
     6   6 C        8   6 C                                       1.3905446
     8   6 C        9   6 C                                       1.3873631
     9   6 C       10   6 C                                       1.4328749
    10   6 C       11   6 C                                       1.3544538
     9   6 C       12   7 N                                       1.3749132
    11   6 C       13   6 C                                       1.4294055
    12   7 N       13   6 C                                       1.3632425
    13   6 C       14   6 C                                       1.4003985
    14   6 C       15   6 C                                       1.4003119
    15   6 C       16   6 C                                       1.4291977
    16   6 C       17   6 C                                       1.3548165
    17   6 C       18   6 C                                       1.4326282
    18   6 C       19   6 C                                       1.3883775
    20   6 C       21   6 C                                       1.3975608
    21   6 C       22   6 C                                       1.3825625
    22   6 C       23   6 C                                       1.3961347
    24   6 C       25   8 O                                       1.3414778
    24   6 C       26   8 O                                       1.2046441
    23   6 C       27   6 C                                       1.3951713
    20   6 C       28   6 C                                       1.3971191
    27   6 C       28   6 C                                       1.3840012
    19   6 C       29   6 C                                       1.3909052
    29   6 C       30   6 C                                       1.4347993 (max)
    30   6 C       31   6 C                                       1.3535830
     2   6 C       32   6 C                                       1.3794493
    31   6 C       32   6 C                                       1.4317349
    29   6 C       33   7 N                                       1.3688028
    32   6 C       33   7 N                                       1.3704809
    15   6 C       34   7 N                                       1.3635401
    18   6 C       34   7 N                                       1.3741957
    35   6 C       36   6 C                                       1.3967771
    36   6 C       37   6 C                                       1.3829021
    37   6 C       38   6 C                                       1.3960621
    39   6 C       40   8 O                                       1.3414854
    39   6 C       41   8 O                                       1.2046372
    38   6 C       42   6 C                                       1.3951219
    35   6 C       43   6 C                                       1.3965868
    42   6 C       43   6 C                                       1.3840769
     2   6 C       44   1 H                                       1.0841732
     4   6 C       45   1 H                                       1.0783541
     5   6 C       46   1 H                                       1.0778339
    10   6 C       47   1 H                                       1.0777414
    11   6 C       48   1 H                                       1.0780222
    16   6 C       49   1 H                                       1.0780345
    17   6 C       50   1 H                                       1.0777439
    21   6 C       51   1 H                                       1.0840347
    22   6 C       52   1 H                                       1.0844796
    25   8 O       53   1 H                                       0.9710170
    27   6 C       54   1 H                                       1.0835717
    28   6 C       55   1 H                                       1.0841421
    30   6 C       56   1 H                                       1.0778283
    31   6 C       57   1 H                                       1.0783536
    36   6 C       58   1 H                                       1.0839951
    37   6 C       59   1 H                                       1.0844744
    40   8 O       60   1 H                                       0.9710007
    42   6 C       61   1 H                                       1.0835654
    43   6 C       62   1 H                                       1.0841127
    64   6 C       65   6 C                                       1.3794906
    65   6 C       66   6 C                                       1.4319160
    66   6 C       67   6 C                                       1.3534854
    67   6 C       68   6 C                                       1.4346717
    65   6 C       69   7 N                                       1.3702599
    68   6 C       69   7 N                                       1.3685102
    68   6 C       70   6 C                                       1.3905655
    70   6 C       71   6 C                                       1.3873808
    71   6 C       72   6 C                                       1.4328756
    72   6 C       73   6 C                                       1.3544379
    71   6 C       74   7 N                                       1.3749297
    73   6 C       75   6 C                                       1.4294044
    74   7 N       75   6 C                                       1.3632209
    75   6 C       76   6 C                                       1.4004204
    76   6 C       77   6 C                                       1.4002453
    77   6 C       78   6 C                                       1.4291982
    78   6 C       79   6 C                                       1.3547825
    79   6 C       80   6 C                                       1.4326398
    80   6 C       81   6 C                                       1.3883274
    82   6 C       83   6 C                                       1.3975350
    83   6 C       84   6 C                                       1.3825716
    84   6 C       85   6 C                                       1.3961330
    86   6 C       87   8 O                                       1.3414833
    86   6 C       88   8 O                                       1.2046402
    85   6 C       89   6 C                                       1.3951722
    82   6 C       90   6 C                                       1.3971014
    89   6 C       90   6 C                                       1.3840015
    81   6 C       91   6 C                                       1.3908579
    91   6 C       92   6 C                                       1.4347915
    92   6 C       93   6 C                                       1.3535664
    64   6 C       94   6 C                                       1.3794231
    93   6 C       94   6 C                                       1.4317407
    91   6 C       95   7 N                                       1.3687973
    94   6 C       95   7 N                                       1.3704676
    77   6 C       96   7 N                                       1.3635581
    80   6 C       96   7 N                                       1.3742015
    97   6 C       98   6 C                                       1.3968088
    98   6 C       99   6 C                                       1.3828924
    99   6 C      100   6 C                                       1.3960697
   101   6 C      102   8 O                                       1.3414751
   101   6 C      103   8 O                                       1.2046998
   100   6 C      104   6 C                                       1.3951301
    97   6 C      105   6 C                                       1.3966135
   104   6 C      105   6 C                                       1.3840718
    64   6 C      106   1 H                                       1.0841750
    66   6 C      107   1 H                                       1.0783533
    67   6 C      108   1 H                                       1.0778265
    72   6 C      109   1 H                                       1.0777368
    73   6 C      110   1 H                                       1.0780186
    78   6 C      111   1 H                                       1.0780337
    79   6 C      112   1 H                                       1.0777400
    83   6 C      113   1 H                                       1.0840347
    84   6 C      114   1 H                                       1.0844798
    87   8 O      115   1 H                                       0.9710166
    89   6 C      116   1 H                                       1.0835709
    90   6 C      117   1 H                                       1.0841412
    92   6 C      118   1 H                                       1.0778290
    93   6 C      119   1 H                                       1.0783535
    98   6 C      120   1 H                                       1.0839939
    99   6 C      121   1 H                                       1.0844773
   102   8 O      122   1 H                                       0.9710002 (min)
   104   6 C      123   1 H                                       1.0835547
   105   6 C      124   1 H                                       1.0841034
   125   6 C      126   6 C                                       1.2302787
   127   6 C      128   6 C                                       1.2256880
   129   6 C      130   6 C                                       1.2256711

 * 5 distinct bonds (by element types)

   Z      Z             #   av. dist./Å        max./Å        min./Å
   1 H    6 C          34     1.0812024     1.0844798     1.0777368
   6 C    6 C          67     1.3891118     1.4347993     1.2256711
   6 C    7 N          16     1.3692418     1.3749297     1.3632209
   1 H    8 O           4     0.9710086     0.9710170     0.9710002
   6 C    8 O           8     1.2730679     1.3414854     1.2046372


optimized geometry written to: xtbopt.xyz


           -------------------------------------------------
          | TOTAL ENERGY             -245.968805867357 Eh   |
          | GRADIENT NORM               0.000727508491 Eh/α |
          | HOMO-LUMO GAP               0.094883926423 eV   |
           -------------------------------------------------

------------------------------------------------------------------------
 * finished run on 2022/07/29 at 22:06:08.380     
------------------------------------------------------------------------
 total:
 * wall-time:     0 d,  0 h,  0 min, 54.304 sec
 *  cpu-time:     0 d,  0 h,  0 min, 53.984 sec
 * ratio c/w:     0.994 speedup
 SCF:
 * wall-time:     0 d,  0 h,  0 min,  3.551 sec
 *  cpu-time:     0 d,  0 h,  0 min,  3.531 sec
 * ratio c/w:     0.994 speedup
 ANC optimizer:
 * wall-time:     0 d,  0 h,  0 min, 50.610 sec
 *  cpu-time:     0 d,  0 h,  0 min, 50.331 sec
 * ratio c/w:     0.994 speedup

