124
 energy: -222.636209067331 gnorm: 0.918976591695 xtb: 6.5.1 (b24c23e)
Fe          14.15984100000000       -0.03170200000000       -0.00323600000000
C           10.82184400000000        0.09145300000000        0.06884200000000
C           11.48381900000000        1.24089700000000        0.22976400000000
C           10.83294900000000        2.53820400000000        0.36693900000000
C           11.77291800000000        3.44886200000000        0.53962600000000
C           13.07799500000000        2.77344600000000        0.53363000000000
N           12.90120900000000        1.37142800000000        0.32654500000000
C           14.26992900000000        3.37930000000000        0.71528300000000
C           14.31913900000000        4.83776500000000        0.96755400000000
C           13.83646000000000        5.36690800000000        2.17526100000000
C           13.89941400000000        6.74275400000000        2.41574600000000
C           14.45024900000000        7.59929800000000        1.45408500000000
C           14.51626100000000        9.01552100000000        1.70279800000000
N           14.56932000000000       10.15409600000000        1.90284500000000
C           14.93935700000000        7.07429500000000        0.25115100000000
C           14.87604000000000        5.69863900000000        0.00935800000000
C           15.56136200000000        2.64357600000000        0.68376700000000
C           16.84470300000000        3.22865500000000        1.09106100000000
C           17.77950500000000        2.31876100000000        0.90625100000000
N           15.70439000000000        1.42173000000000        0.27017600000000
C           17.09972100000000        1.14102600000000        0.38106700000000
C           17.69428100000000       -0.00100800000000       -0.00070500000000
C           16.93106800000000       -1.16109900000000       -0.51213200000000
C           17.46198600000000       -2.15361900000000       -1.21498900000000
C           16.41937000000000       -3.13941600000000       -1.42448300000000
C           15.32146200000000       -2.68552200000000       -0.83096800000000
N           15.55485800000000       -1.41219800000000       -0.22706300000000
C           14.04296800000000       -3.43685900000000       -0.74484700000000
C           14.06622700000000       -4.90239800000000       -0.97238900000000
C           13.38205600000000       -5.46644100000000       -2.06183400000000
C           13.42393800000000       -6.84643800000000       -2.28219800000000
C           14.15559200000000       -7.67331300000000       -1.42059200000000
C           14.19960800000000       -9.09387600000000       -1.64862800000000
N           14.23503200000000      -10.23595900000000       -1.83188400000000
C           14.84732400000000       -7.11436400000000       -0.33867500000000
C           14.80540700000000       -5.73453700000000       -0.11695700000000
C           12.88064700000000       -2.81772500000000       -0.46216300000000
C           11.57335800000000       -3.45549200000000       -0.31518400000000
C           10.71137800000000       -2.48054000000000       -0.09978900000000
C           11.45958700000000       -1.22456100000000       -0.09487900000000
N           12.72461300000000       -1.40888200000000       -0.30513200000000
H            9.73848400000000        0.11927900000000        0.05948500000000
H            9.76959800000000        2.73734500000000        0.32973200000000
H           11.58488300000000        4.50761700000000        0.66088600000000
H           13.41415400000000        4.71312900000000        2.92853300000000
H           13.52133000000000        7.13780900000000        3.35104700000000
H           15.37018600000000        7.72744100000000       -0.49819000000000
H           15.25908600000000        5.30340900000000       -0.92352200000000
H           17.01537000000000        4.22475700000000        1.47784400000000
H           18.83328300000000        2.45075800000000        1.11247400000000
H           18.48775500000000       -2.23401700000000       -1.54902200000000
H           16.52848400000000       -4.08187300000000       -1.94535400000000
H           12.82070200000000       -4.83639000000000       -2.74086600000000
H           12.88921400000000       -7.26767200000000       -3.12505500000000
H           15.41924500000000       -7.74435900000000        0.33199800000000
H           15.34577600000000       -5.31397000000000        0.72235700000000
H           11.33176300000000       -4.50895900000000       -0.36631500000000
H            9.64675900000000       -2.60341700000000        0.05006100000000
Fe          33.07648900000000        0.02950500000000       -0.00489400000000
C           36.41448600000000       -0.08956800000000        0.07374600000000
C           35.75251100000000       -1.22861400000000        0.29665800000000
C           36.40338100000000       -2.51659300000000        0.50386300000000
C           35.46341200000000       -3.41656600000000        0.72559700000000
C           34.15833500000000       -2.74246600000000        0.68304500000000
N           34.33512100000000       -1.35371400000000        0.40036400000000
C           32.96640100000000       -3.33759700000000        0.89723100000000
C           32.91719100000000       -4.78026600000000        1.22808700000000
C           33.39987000000000       -5.24325200000000        2.46267000000000
C           33.33691600000000       -6.60406200000000        2.77728500000000
C           32.78608100000000       -7.51141100000000        1.86340500000000
C           32.72006900000000       -8.91209200000000        2.18842300000000
N           32.66701000000000      -10.03816900000000        2.44981400000000
C           32.29697300000000       -7.05230100000000        0.63381300000000
C           32.36029000000000       -5.69175200000000        0.31790200000000
C           31.67496800000000       -2.60465800000000        0.82593200000000
C           30.39162700000000       -3.16683000000000        1.26430200000000
C           29.45682500000000       -2.26827500000000        1.03050500000000
N           31.53193900000000       -1.40699400000000        0.34680100000000
C           30.13660900000000       -1.12069900000000        0.44233200000000
C           29.54204900000000       -0.00100800000000       -0.00070500000000
C           30.30526200000000        1.12969600000000       -0.57418600000000
C           29.77434400000000        2.08271000000000       -1.32974300000000
C           30.81696000000000        3.05572000000000       -1.59229800000000
C           31.91486799999999        2.63462300000000       -0.97508100000000
N           31.68147200000000        1.39585900000000       -0.30312800000000
C           33.19336200000000        3.38952000000000       -0.92976000000000
C           33.17010300000000        4.84059100000000       -1.23630800000000
C           33.85427400000000        5.34482800000000       -2.35469000000000
C           33.81239100000000        6.71087200000000       -2.64943900000000
C           33.08073700000000        7.58317900000000       -1.83386100000000
C           33.03672200000000        8.98931400000000       -2.13846700000000
N           33.00129800000000       10.11980100000000       -2.38328200000000
C           32.38900600000000        7.08362100000000       -0.72327100000000
C           32.43092300000000        5.71782000000000       -0.42717900000000
C           34.35568300000000        2.78659800000000       -0.61397300000000
C           35.66297099999999        3.43138600000000       -0.50173700000000
C           36.52495200000000        2.46952400000000       -0.23387600000000
C           35.77674300000000        1.21565300000000       -0.16098000000000
N           34.51171700000000        1.38832100000000       -0.38090300000000
H           37.49784600000000       -0.11786000000000        0.06590900000000
H           37.46673199999999       -2.71745600000000        0.47749200000000
H           35.65144700000000       -4.46720500000000        0.90399700000000
H           33.82217600000000       -4.54965300000000        3.17944300000000
H           33.71500000000000       -6.94790400000000        3.73260200000000
H           31.86614400000000       -7.74505500000000       -0.07907000000000
H           31.97724400000000       -5.34760400000000       -0.63500700000000
H           30.22095900000000       -4.14053200000000        1.70444400000000
H           28.40304700000000       -2.38891400000000        1.24357200000000
H           28.74857500000000        2.14490700000000       -1.66763800000000
H           30.70784600000000        3.96859700000000       -2.16342600000000
H           34.41562800000000        4.67894200000000       -2.99861800000000
H           34.34711600000000        7.08585900000000       -3.51386500000000
H           31.81708500000000        7.74900000000000       -0.08768700000000
H           31.89055400000000        5.34330700000000        0.43367200000000
H           35.90456700000000        4.48054000000000       -0.60982300000000
H           37.58957000000000        2.60033300000000       -0.09089800000000
C           19.11780200000000        0.01461200000000        0.01022100000000
C           20.57602800000000       -0.00722500000000       -0.00765200000000
C           21.70995600000000       -0.02797900000000       -0.00914300000000
C           23.07133800000000       -0.04056800000000       -0.01133400000000
C           24.34555700000000       -0.03026200000000       -0.01610000000000
C           25.53401900000000       -0.01146400000000       -0.02225600000000
C           26.88638000000000        0.01332100000000       -0.00638800000000
C           27.98664700000000        0.01461200000000        0.01022100000000
124
 energy: -222.829001447358 gnorm: 0.324333655187 xtb: 6.5.1 (b24c23e)
Fe          14.17091403179691       -0.02231731838400       -0.00020377956512
C           10.82286208796203        0.07437179003749        0.06751657314249
C           11.49080158583793        1.23930362911575        0.22989363311811
C           10.83432178800131        2.52951738606940        0.36535342164011
C           11.78531739100948        3.44861854464504        0.54026788936453
C           13.07886215067571        2.76374418498130        0.53195166589860
N           12.89038110138300        1.37911592741365        0.32162116266040
C           14.28555568157515        3.37497136661702        0.71667903827812
C           14.32522992725023        4.83869271367841        0.97002808236197
C           13.83721845525014        5.37098140666569        2.17107828883142
C           13.89988236916803        6.74015176425530        2.41268471177594
C           14.45030070906415        7.60013502936007        1.45423385210398
C           14.51617356313996        9.01241338128163        1.70228602057178
N           14.56887356074604       10.14531416089851        1.90130446049564
C           14.93790878797234        7.07117221170224        0.25275827449032
C           14.87635243759857        5.70156008514600        0.01459002039200
C           15.55290860792263        2.65993541859147        0.68615855702052
C           16.82793097740991        3.24233638582267        1.09077993685854
C           17.77417900074127        2.31346251332376        0.90367947704311
N           15.71194123753401        1.41210014749444        0.28047730259625
C           17.09678861832622        1.14706412368697        0.38412067111468
C           17.71650898445772       -0.01215048160946       -0.00971845591538
C           16.92587555761273       -1.15677952981578       -0.49889651594362
C           17.46400712028213       -2.17321161301188       -1.22170021699725
C           16.43773224690489       -3.14199027674881       -1.42599647942099
C           15.31210984366703       -2.67648018582435       -0.81678355889004
N           15.55185139465959       -1.40248157883165       -0.24352479288671
C           14.05646455400204       -3.42768476887348       -0.74284111543122
C           14.07467554762000       -4.89904461582568       -0.97592228755548
C           13.38424278609106       -5.46865103767127       -2.05696316799447
C           13.42512093664869       -6.84273348403605       -2.27889373247638
C           14.15562462976464       -7.67381193881785       -1.42065815367609
C           14.19959747788116       -9.09060236968345       -1.64819981592804
N           14.23468646470656      -10.22700443963218       -1.83044484570809
C           14.84523267154951       -7.11053787309420       -0.33985345591456
C           14.80526635673995       -5.73636221798758       -0.12205428395261
C           12.88159103541445       -2.81331052965631       -0.46138276557055
C           11.58167256283715       -3.45239660381582       -0.31647929662231
C           10.70223415195507       -2.46776786316913       -0.09893351680861
C           11.44310831339971       -1.21505213658445       -0.09378762430621
N           12.72955615738989       -1.41282507368973       -0.29644591229484
H            9.73927648210982        0.11225929632411        0.05952228990385
H            9.77101445550898        2.72712806797729        0.32840654902110
H           11.59813178124637        4.50716701409952        0.66177987810636
H           13.41578194364351        4.71423791301355        2.92562550998040
H           13.52232532050405        7.13734379197712        3.34898609766883
H           15.36901252692896        7.72655829600538       -0.49648651065732
H           15.25782331249547        5.30378534940860       -0.92048024182132
H           17.00439008009807        4.23174448442693        1.47817625698605
H           18.82964556817616        2.43987387195237        1.10831189007194
H           18.48798599769367       -2.23965042410041       -1.55314920760081
H           16.53406153912747       -4.08119797370078       -1.94799039417371
H           12.82290237985029       -4.83697524671221       -2.73813477616855
H           12.89067362329381       -7.26657946680074       -3.12290988980531
H           15.41764059600745       -7.74314786167139        0.33045567280633
H           15.34426533220403       -5.31425225345002        0.71984464258319
H           11.34353817644387       -4.50668822737566       -0.36780516354229
H            9.64237421502656       -2.59462979352762        0.05133316534376
Fe          33.06611290128392        0.02043659268782       -0.00154221206737
C           36.41350830067590       -0.07242806302826        0.07143038737059
C           35.74547683890593       -1.22690191572416        0.29661839518067
C           36.40190620551717       -2.50801027469547        0.50182071873871
C           35.45108940407196       -3.41637610257323        0.72622797030563
C           34.15731926768645       -2.73315720318713        0.68087715370999
N           34.34627849719223       -1.36173076711428        0.39659050554118
C           32.95143119355427       -3.33359174889915        0.89836982576863
C           32.91109558982696       -4.78127435103443        1.23065656707862
C           33.39909157989819       -5.24763073595213        2.45875181249628
C           33.33647476259969       -6.60168122707466        2.77410633999499
C           32.78602775100680       -7.51226583075019        1.86360531666542
C           32.72016166770900       -8.90902496734673        2.18774330446042
N           32.66744810139944      -10.02949351969118        2.44780419577326
C           32.29837946691421       -7.04915066456558        0.63525334336134
C           32.35995799834345       -5.69447838288879        0.32329265563967
C           31.68415874182557       -2.62019593506159        0.82881052879533
C           30.40645414934329       -3.17924721807324        1.26457486299553
C           29.46147308090593       -2.26289352561347        1.02713008825949
N           31.52962368645147       -1.39881486200450        0.35705379583403
C           30.14383178340518       -1.12285886642388        0.44397617857961
C           29.55711977521170        0.00977033862381       -0.00801466551189
C           30.31581425924930        1.12486086123168       -0.56035261723103
C           29.77268232583215        2.10229462817375       -1.33661686479023
C           30.79797433716000        3.05807946867306       -1.59417077111575
C           31.92474641695567        2.62690340994845       -0.96075234643758
N           31.68784411451339        1.38632864788990       -0.31978447568266
C           33.17987349854062        3.38073001652570       -0.92725507921658
C           33.16166215989912        4.83718737820222       -1.23971523146155
C           33.85208638668625        5.34735032699806       -2.34997995717312
C           33.81122785999778        6.70738443624891       -2.64594949057419
C           33.08070550606268        7.58368964270383       -1.83395826903361
C           33.03673283088489        8.98606911019925       -2.13786211222453
N           33.00164147287416       10.11094632114380       -2.38136250547915
C           32.39108580786611        7.07976356754981       -0.72424570580803
C           32.43108308717049        5.71941301094004       -0.43237295587246
C           34.35466225477192        2.78221207352310       -0.61282065016719
C           35.65470950362634        3.42817414335261       -0.50287470413459
C           36.53410467411426        2.45679825818838       -0.23233082351787
C           35.79335828284977        1.20598368040900       -0.15939392428328
N           34.50675894924236        1.39284377102897       -0.37278003653459
H           37.49707589565958       -0.11078863649264        0.06562736408497
H           37.46526408343494       -2.70733620676223        0.47558808446662
H           35.63826051602575       -4.46676657486195        0.90485622212765
H           33.82055428042842       -4.55093506660880        3.17658212986290
H           33.71401298875850       -6.94758033100504        3.73053718390051
H           31.86731367666464       -7.74412102710432       -0.07742797396528
H           31.97852558950767       -5.34784796055014       -0.63195446365360
H           30.23130894515614       -4.14690034849614        1.70500989609536
H           28.40644264092912       -2.37845710856068        1.23895310519723
H           28.74871496949008        2.15015151852383       -1.67184196057875
H           30.70192292949567        3.96773356596316       -2.16612093694775
H           34.41343023223912        4.67968603845163       -2.99592132688417
H           34.34566302585617        7.08490418234680       -3.51167563413573
H           31.81868388603749        7.74772351624908       -0.08915922101352
H           31.89207296451072        5.34346220120905        0.43113793161698
H           35.89279910638986        4.47817470849513       -0.61117339932080
H           37.59395955709286        2.59164212380349       -0.08914418324759
C           19.13485767777829       -0.00119797986624        0.00558413204008
C           20.46546800142819       -0.00906309653218       -0.00731097976050
C           21.73996992654317       -0.02847359514911       -0.00872495903340
C           23.02471095166480       -0.03993970821728       -0.01174067246029
C           24.31307116141057       -0.03070299836174       -0.01596840701264
C           25.53986064372231       -0.01255973635444       -0.02183992021459
C           26.86409185312283        0.01688592839909       -0.00747769716970
C           28.09094483031989        0.02570499707204        0.00557910317151
124
 energy: -222.885420394129 gnorm: 0.148087699847 xtb: 6.5.1 (b24c23e)
Fe          14.19064164324906       -0.00985943984357        0.00264143675609
C           10.82707874517447        0.05566154259372        0.06614661717908
C           11.50097305550759        1.23601527247984        0.22672971660273
C           10.84300612154108        2.51702070002446        0.36300695788028
C           11.80451067633486        3.44231648568994        0.54010156510169
C           13.08345769446179        2.75088905714528        0.52739502740703
N           12.87986921417723        1.38751867951015        0.31549569014088
C           14.30524714703946        3.36485445090768        0.71788912989010
C           14.33525895599417        4.83435410956813        0.97362476991531
C           13.83901374782670        5.37191672841286        2.16620063531042
C           13.89967860442705        6.73573179071502        2.40843976274445
C           14.45007307518440        7.59786820028605        1.45377535510762
C           14.51585718563214        9.00421881645498        1.70095492775852
N           14.56833055196158       10.13636806136639        1.89979604980188
C           14.93649881127835        7.06643613042174        0.25449968264119
C           14.87942968480284        5.70132583023885        0.02114852581414
C           15.54569395407166        2.67038679837640        0.68968700194226
C           16.80943508790886        3.25285786056758        1.08497430885675
C           17.76216696901060        2.30839137509937        0.89912068248900
N           15.72345875054554        1.39352599542605        0.30045523954382
C           17.09714691880047        1.14381859173147        0.38736280057967
C           17.74327972912848       -0.02458078985218       -0.02201137672536
C           16.93013184303874       -1.15048691167718       -0.48734203639323
C           17.46906093023182       -2.19872456206517       -1.22151402758356
C           16.46314647035199       -3.14272291559134       -1.41843500124736
C           15.31087095434405       -2.66085773429184       -0.80293033345637
N           15.55930607007911       -1.38537307379808       -0.27031717953937
C           14.08044363236040       -3.40816357204795       -0.73875079188943
C           14.09264811194536       -4.88564089517655       -0.98281072405712
C           13.39016693465765       -5.46406564397716       -2.05073652827956
C           13.42634421090814       -6.83392252985905       -2.27293095997057
C           14.15561093930026       -7.66928688331916       -1.41969495150048
C           14.19919619214982       -9.08062989303120       -1.64676256699890
N           14.23413758205284      -10.21638721148654       -1.82891670797630
C           14.84327579883554       -7.10303793902571       -0.34098560953323
C           14.80994532606170       -5.73260689624838       -0.12963529747429
C           12.88704304140312       -2.79961739370540       -0.45386463184814
C           11.59474050088466       -3.43875351410146       -0.31791397115672
C           10.69737214707625       -2.45165435622657       -0.10169208778972
C           11.42847872138223       -1.20422295028567       -0.09044894623016
N           12.73824507886412       -1.41429590532751       -0.27683346928141
H            9.74290870334379        0.10070679886555        0.06259548332037
H            9.77865466129204        2.70678610719815        0.32626692663746
H           11.62663122351483        4.50187873643974        0.66342982917706
H           13.41817162871073        4.71425869349333        2.92060987180052
H           13.52349445787006        7.13584331009015        3.34455736241151
H           15.36617237590076        7.72467777381765       -0.49362025633046
H           15.25719529526570        5.30282220096810       -0.91539812474282
H           16.98322487716726        4.24120822873981        1.47483180425420
H           18.81873826053893        2.42361733012107        1.10066835964510
H           18.49032527784022       -2.25201105167280       -1.55864239528759
H           16.54288722945383       -4.07875156998501       -1.94790767212558
H           12.82710361317637       -4.83417767068868       -2.73253219015296
H           12.89287270140890       -7.26134046222273       -3.11691659042672
H           15.41356166389069       -7.73949528494971        0.32837594196237
H           15.34442250942950       -5.31236038434318        0.71605210372915
H           11.36847816766022       -4.49572964743104       -0.37093443851226
H            9.63836823935119       -2.57868899108764        0.05089483460525
Fe          33.04832046492724        0.00806636936397        0.00197605475366
C           36.40943073864069       -0.05384725489900        0.06907758157833
C           35.73565013429067       -1.22396316457598        0.29340537678997
C           36.39375671389826       -2.49576613456240        0.49875276688855
C           35.43271299405428       -3.41037178321834        0.72570219033296
C           34.15366633342379       -2.72119630426255        0.67593267848096
N           34.35740447172785       -1.37102729145433        0.39109576959123
C           32.93350432903360       -3.32529079218065        0.89955002352972
C           32.90198465862012       -4.77786611097122        1.23406934779378
C           33.39756866129368       -5.24936827310986        2.45419929477272
C           33.33666783158065       -6.59788257077616        2.76986337910985
C           32.78624848029976       -7.51025472391736        1.86308380218618
C           32.72046760149802       -8.90108600991758        2.18599673840012
N           32.66797342983069      -10.02080119964746        2.44583667060033
C           32.29970577786974       -7.04464063405042        0.63677505439009
C           32.35702739392128       -5.69431979881798        0.32983377346926
C           31.69409559258830       -2.63338534997365        0.83387055292623
C           30.42630028090374       -3.19135732655732        1.25955052077866
C           29.47624336231690       -2.25821036870848        1.02265965881596
N           31.52405833968944       -1.38235745791499        0.37764082816956
C           30.15046976933753       -1.12220980883290        0.45000185161345
C           29.54382918101364        0.02561774427506       -0.02069300091355
C           30.31969312052438        1.12236631020504       -0.55039828657235
C           29.77113762365082        2.12882742779150       -1.33794252161370
C           30.77392598759129        3.06088540240842       -1.58670677618211
C           31.92890293027866        2.61471682020821       -0.94761718922969
N           31.68699149162037        1.37107339767163       -0.34820229477569
C           33.15755317168931        3.36296533640989       -0.92271889876645
C           33.14455400573213        4.82439080078574       -1.24586116302191
C           33.84647361202081        5.34360838798657       -2.34375191698582
C           33.81005156867479        6.69926635103825       -2.63973303521088
C           33.08072887354524        7.57941467117358       -1.83281090738616
C           33.03711274302733        8.97632906445772       -2.13592101387813
N           33.00217458433151       10.10055732589812       -2.37928575918544
C           32.39300438572661        7.07244303138995       -0.72502164201429
C           32.42658810324802        5.71557072767267       -0.43976692505025
C           34.34999740431779        2.76935875456677       -0.60469970908606
C           35.64217793831610        3.41458198680926       -0.50340466969670
C           36.53930849008313        2.44049726953239       -0.23417370702137
C           35.80825399283980        1.19536770557930       -0.15548403094035
N           34.49835655068138        1.39576854410068       -0.35332838474299
H           37.49356122320461       -0.09908775014528        0.06807565981463
H           37.45806599535837       -2.68712106964840        0.47228609890221
H           35.61031501607127       -4.46165645288089        0.90619621100374
H           33.81825620875340       -4.55146381392521        3.17166093291659
H           33.71285605375486       -6.94662936071476        3.72622727617588
H           31.87007089380418       -7.74231143771841       -0.07467296301620
H           31.97926745083350       -5.34672140069007       -0.62683434006186
H           30.25251897372731       -4.15724124963721        1.70218921022416
H           28.41916622687500       -2.36118413996887        1.22961231038236
H           28.74887426572647        2.16124924922357       -1.67676012185885
H           30.69305332397055        3.96636812740840       -2.16613202011546
H           34.40934402980510        4.67742313887919       -2.99030261760225
H           34.34349832953188        7.08028802529255       -3.50559315508025
H           31.82269905378150        7.74410590394691       -0.09105588207822
H           31.89206098832585        5.34141700418808        0.42733004930996
H           35.86822919658404        4.46714790731826       -0.61362909150695
H           37.59825627104678        2.57558377367794       -0.08869154988711
C           19.17918221057808       -0.02854281936224       -0.00689485673450
C           20.38128314618372       -0.02197160984515       -0.01082666589193
C           21.72106855723469       -0.03015939980692       -0.00693518465163
C           22.96139564531332       -0.03630281333981       -0.01263478585039
C           24.29477666963197       -0.02910859036844       -0.01339099826786
C           25.54735196097845       -0.01492485138077       -0.01963864159034
C           26.88460060460172        0.02632655203724       -0.01181571301039
C           28.12755388986276        0.05037142305410       -0.01057377871856
124
 energy: -222.906568031166 gnorm: 0.074033341330 xtb: 6.5.1 (b24c23e)
Fe          14.20891826062571       -0.00087718979345        0.00413463915590
C           10.83261834492512        0.04654333913032        0.06771595879692
C           11.51125325927086        1.23440577184261        0.22093470283584
C           10.85527472142330        2.50711935751346        0.35915132698512
C           11.82255478158278        3.43459487548129        0.53759193635208
C           13.08810634140871        2.74164091237942        0.52127347282179
N           12.87789274905653        1.39196147753343        0.30861087348327
C           14.31440793265718        3.35817637025799        0.72071761023806