      -----------------------------------------------------------      
     |                   =====================                   |     
     |                           x T B                           |     
     |                   =====================                   |     
     |                         S. Grimme                         |     
     |          Mulliken Center for Theoretical Chemistry        |     
     |                    University of Bonn                     |     
      -----------------------------------------------------------      

   * xtb version 6.5.1 (b24c23e) compiled by 'conda@728c89f4b128' on 2022-07-12

   xtb is free software: you can redistribute it and/or modify it under
   the terms of the GNU Lesser General Public License as published by
   the Free Software Foundation, either version 3 of the License, or
   (at your option) any later version.
   
   xtb is distributed in the hope that it will be useful,
   but WITHOUT ANY WARRANTY; without even the implied warranty of
   MERCHANTABILITY or FITNESS FOR A PARTICULAR PURPOSE.  See the
   GNU Lesser General Public License for more details.
   
   Cite this work as:
   * C. Bannwarth, E. Caldeweyher, S. Ehlert, A. Hansen, P. Pracht,
     J. Seibert, S. Spicher, S. Grimme, WIREs Comput. Mol. Sci., 2020, 11,
     e01493. DOI: 10.1002/wcms.1493
   
   for GFN2-xTB:
   * C. Bannwarth, S. Ehlert and S. Grimme., J. Chem. Theory Comput., 2019,
     15, 1652-1671. DOI: 10.1021/acs.jctc.8b01176
   for GFN1-xTB:
   * S. Grimme, C. Bannwarth, P. Shushkov, J. Chem. Theory Comput., 2017,
     13, 1989-2009. DOI: 10.1021/acs.jctc.7b00118
   for GFN0-xTB:
   * P. Pracht, E. Caldeweyher, S. Ehlert, S. Grimme, ChemRxiv, 2019, preprint.
     DOI: 10.26434/chemrxiv.8326202.v1
   for GFN-FF:
   * S. Spicher and S. Grimme, Angew. Chem. Int. Ed., 2020, 59, 15665-15673.
     DOI: 10.1002/anie.202004239
   
   for ALPB and GBSA implicit solvation:
   * S. Ehlert, M. Stahn, S. Spicher, S. Grimme, J. Chem. Theory Comput.,
     2021, 17, 4250-4261. DOI: 10.1021/acs.jctc.1c00471
   
   for DFT-D4:
   * E. Caldeweyher, C. Bannwarth and S. Grimme, J. Chem. Phys., 2017,
     147, 034112. DOI: 10.1063/1.4993215
   * E. Caldeweyher, S. Ehlert, A. Hansen, H. Neugebauer, S. Spicher,
     C. Bannwarth and S. Grimme, J. Chem. Phys., 2019, 150, 154122.
     DOI: 10.1063/1.5090222
   * E. Caldeweyher, J.-M. Mewes, S. Ehlert and S. Grimme, Phys. Chem. Chem. Phys.
     2020, 22, 8499-8512. DOI: 10.1039/D0CP00502A
   
   for sTDA-xTB:
   * S. Grimme and C. Bannwarth, J. Chem. Phys., 2016, 145, 054103.
     DOI: 10.1063/1.4959605
   
   in the mass-spec context:
   * V. Asgeirsson, C. Bauer and S. Grimme, Chem. Sci., 2017, 8, 4879.
     DOI: 10.1039/c7sc00601b
   * J. Koopman and S. Grimme, ACS Omega 2019, 4, 12, 15120-15133.
     DOI: 10.1021/acsomega.9b02011
   
   for metadynamics refer to:
   * S. Grimme, J. Chem. Theory Comput., 2019, 155, 2847-2862
     DOI: 10.1021/acs.jctc.9b00143
   
   for SPH calculations refer to:
   * S. Spicher and S. Grimme, J. Chem. Theory Comput., 2021, 17, 1701-1714
     DOI: 10.1021/acs.jctc.0c01306
   
   with help from (in alphabetical order)
   P. Atkinson, C. Bannwarth, F. Bohle, G. Brandenburg, E. Caldeweyher
   M. Checinski, S. Dohm, S. Ehlert, S. Ehrlich, I. Gerasimov, C. Hölzer
   A. Katbashev, J. Koopman, C. Lavigne, S. Lehtola, F. März, M. Müller,
   F. Musil, H. Neugebauer, J. Pisarek, C. Plett, P. Pracht, F. Pultar,
   J. Seibert, P. Shushkov, S. Spicher, M. Stahn, M. Steiner, T. Strunk,
   J. Stückrath, T. Rose, and J. Unsleber
   
 * started run on 2022/07/30 at 04:23:02.712     

           -------------------------------------------------
          |                Calculation Setup                |
           -------------------------------------------------

          program call               : xtb xtbopt.xyz --gfn 1 --vipea
          hostname                   : cx3-14-28.cx3.hpc.ic.ac.uk
          coordinate file            : xtbopt.xyz
          omp threads                :                     1

   ID    Z sym.   atoms
    1   28 Ni     1, 59, 121
    2    6 C      2-6, 8-13, 15-19, 21-26, 28-33, 35-40, 60-64, 66-71, 73-77,
                  79-84, 86-91, 93-98, 117-120, 122-126, 128-133, 135-139,
                  141-146, 148-153, 155-160
    3    7 N      7, 14, 20, 27, 34, 41, 65, 72, 78, 85, 92, 99, 127, 134,
                  140, 147, 154, 161
    4    1 H      42-58, 100-116, 162-177

           -------------------------------------------------
          |                 I P E A - x T B                 |
           -------------------------------------------------

        Reference                      10.1039/c7sc00601b
      * Hamiltonian:
        H0-scaling (s, p, d)           2.150000    2.300000    2.000000
        zeta-weighting                 0.000000
      * Dispersion:
        s8                             2.400000
        a1                             0.630000
        a2                             5.000000
        s9                             0.000000
      * Repulsion:
        kExp                           1.500000
        rExp                           1.000000
      * Coulomb:
        alpha                          1.000000
        third order                    atomic
        anisotropic                    false
      * Halogen bond correction:
        rad-scale                      1.300000
        damping                        0.440000


          ...................................................
          :                      SETUP                      :
          :.................................................:
          :  # basis functions                 750          :
          :  # atomic orbitals                 747          :
          :  # shells                          481          :
          :  # electrons                       594          :
          :  # halogen bonds                     0          :
          :  max. iterations                   250          :
          :  Hamiltonian                  GFN1-xTB          :
          :  restarted?                      false          :
          :  GBSA solvation                  false          :
          :  PC potential                    false          :
          :  electronic temp.          300.0000000     K    :
          :  accuracy                    1.0000000          :
          :  -> integral cutoff          0.2500000E+02      :
          :  -> integral neglect         0.1000000E-07      :
          :  -> SCF convergence          0.1000000E-05 Eh   :
          :  -> wf. convergence          0.2000000E-04 e    :
          :  Broyden damping             0.4000000          :
          ...................................................

 iter      E             dE          RMSdq      gap      omega  full diag
   1   -369.3213441 -0.369321E+03  0.105E+01    1.37       0.0  T
   2   -369.4004222 -0.790781E-01  0.653E+00    1.07       1.0  T
   3   -362.8534820  0.654694E+01  0.507E+00    1.14       1.0  T
   4   -370.2708454 -0.741736E+01  0.944E-01    1.68       1.0  T
   5   -370.5618838 -0.291038E+00  0.350E-01    1.53       1.0  T
   6   -370.6042009 -0.423171E-01  0.104E-01    1.54       1.0  T
   7   -370.6076917 -0.349076E-02  0.383E-02    1.54       1.0  T
   8   -370.6081794 -0.487688E-03  0.212E-02    1.54       1.0  T
   9   -370.6082421 -0.627002E-04  0.112E-02    1.54       1.0  T
  10   -370.6082702 -0.281460E-04  0.248E-03    1.54       3.0  T
  11   -370.6082712 -0.975567E-06  0.140E-03    1.54       5.4  T
  12   -370.6082719 -0.682819E-06  0.505E-04    1.54      14.9  T
  13   -370.6082720 -0.851985E-07  0.173E-04    1.54      43.4  T
  14   -370.6082720 -0.908409E-08  0.561E-05    1.54     133.9  T

   *** convergence criteria satisfied after 14 iterations ***

         #    Occupation            Energy/Eh            Energy/eV
      -------------------------------------------------------------
         1        2.0000           -1.0503821             -28.5824
       ...           ...                  ...                  ...
       291        2.0000           -0.3864544             -10.5160
       292        2.0000           -0.3864034             -10.5146
       293        2.0000           -0.3861446             -10.5075
       294        2.0000           -0.3860708             -10.5055
       295        2.0000           -0.3859420             -10.5020
       296        2.0000           -0.3858620             -10.4998
       297        2.0000           -0.3800278             -10.3411 (HOMO)
       298                         -0.3234009              -8.8002 (LUMO)
       299                         -0.3221345              -8.7657
       300                         -0.3208290              -8.7302
       301                         -0.3207316              -8.7276
       302                         -0.3127555              -8.5105
       ...                                ...                  ...
       747                        549.0019329           14939.1030
      -------------------------------------------------------------
                  HL-Gap            0.0566268 Eh            1.5409 eV
             Fermi-level           -0.3519114 Eh           -9.5760 eV

 SCC (total)                   0 d,  0 h,  0 min,  6.375 sec
 SCC setup                      ...        0 min,  0.008 sec (  0.124%)
 Dispersion                     ...        0 min,  0.010 sec (  0.163%)
 classical contributions        ...        0 min,  0.004 sec (  0.058%)
 integral evaluation            ...        0 min,  0.792 sec ( 12.423%)
 iterations                     ...        0 min,  3.590 sec ( 56.313%)
 molecular gradient             ...        0 min,  1.910 sec ( 29.959%)
 printout                       ...        0 min,  0.061 sec (  0.960%)

         :::::::::::::::::::::::::::::::::::::::::::::::::::::
         ::                     SUMMARY                     ::
         :::::::::::::::::::::::::::::::::::::::::::::::::::::
         :: total energy            -363.168813772451 Eh    ::
         :: gradient norm              0.068086430242 Eh/a0 ::
         :: HOMO-LUMO gap              1.540894257383 eV    ::
         ::.................................................::
         :: SCC energy              -370.608271959725 Eh    ::
         :: -> electrostatic           0.261959365932 Eh    ::
         :: repulsion energy           7.593954804643 Eh    ::
         :: dispersion energy         -0.154496617369 Eh    ::
         :: halogen bond corr.         0.000000000000 Eh    ::
         :: add. restraining           0.000000000000 Eh    ::
         :: total charge               0.000000000000 e     ::
         :::::::::::::::::::::::::::::::::::::::::::::::::::::

           ------------------------------------------------- 
          |        vertical delta SCC IP calculation        |
           ------------------------------------------------- 
   1   -370.1922619 -0.370192E+03  0.110E-01    1.54       0.0  T
   2   -370.1744727  0.177892E-01  0.184E-01    1.43       1.0  T
   3   -370.1875067 -0.130340E-01  0.137E-01    1.48       1.0  T
   4   -370.1979030 -0.103963E-01  0.883E-02    1.50       1.0  T
   5   -370.1990831 -0.118012E-02  0.519E-02    1.50       1.0  T
   6   -370.1992281 -0.144992E-03  0.445E-02    1.49       1.0  T
   7   -370.2002866 -0.105846E-02  0.177E-02    1.50       1.0  T
   8   -370.2002951 -0.850943E-05  0.136E-02    1.49       1.0  T
   9   -370.2003916 -0.965858E-04  0.646E-03    1.49       1.2  T
  10   -370.2004127 -0.210643E-04  0.447E-03    1.50       1.7  T
  11   -370.2004176 -0.488047E-05  0.238E-03    1.49       3.2  T
  12   -370.2004189 -0.130074E-05  0.137E-03    1.49       5.5  T
  13   -370.2004200 -0.105847E-05  0.349E-04    1.49      21.5  T
  14   -370.2004199  0.922000E-09  0.246E-04    1.49      30.6  T
  15   -370.2004200 -0.370077E-07  0.140E-04    1.49      53.7  T
  16   -370.2004200 -0.784962E-08  0.235E-05    1.49     319.6  T
     SCC iter.                  ...        0 min,  4.270 sec
     gradient                   ...        0 min,  1.769 sec
------------------------------------------------------------------------
empirical IP shift (eV):    4.8455
delta SCC IP (eV):    6.2527
------------------------------------------------------------------------
           ------------------------------------------------- 
          |        vertical delta SCC EA calculation        |
           ------------------------------------------------- 
   1   -370.8671474 -0.370867E+03  0.194E-01    0.06       0.0  T
   2   -370.8574192  0.972818E-02  0.253E-01    0.09       1.0  T
   3   -370.8684495 -0.110303E-01  0.188E-01    0.14       1.0  T
   4   -370.8771302 -0.868070E-02  0.163E-01    0.11       1.0  T
   5   -370.8812911 -0.416085E-02  0.155E-01    0.07       1.0  T
   6   -370.9031697 -0.218786E-01  0.705E-02    0.02       1.0  T
   7   -370.9042300 -0.106036E-02  0.432E-02    0.00       1.0  T
   8   -370.9043148 -0.847359E-04  0.287E-02    0.01       1.0  T
   9   -370.9046483 -0.333523E-03  0.169E-02    0.00       1.0  T
  10   -370.9049399 -0.291566E-03  0.867E-03    0.00       1.0  T
  11   -370.9049960 -0.561431E-04  0.507E-03    0.01       1.5  T
  12   -370.9050238 -0.278216E-04  0.171E-03    0.00       4.4  T
  13   -370.9050204  0.345565E-05  0.201E-03    0.01       3.7  T
  14   -370.9050268 -0.637363E-05  0.753E-04    0.00      10.0  T
  15   -370.9050276 -0.859203E-06  0.198E-04    0.00      37.9  T
  16   -370.9050276 -0.361558E-07  0.806E-05    0.00      93.3  T
     SCC iter.                  ...        0 min,  4.137 sec
     gradient                   ...        0 min,  1.910 sec
------------------------------------------------------------------------
empirical EA shift (eV):    4.8455
delta SCC EA (eV):    3.2296
------------------------------------------------------------------------
           -------------------------------------------------
          |                Property Printout                |
           -------------------------------------------------

    * Orbital Energies and Occupations

         #    Occupation            Energy/Eh            Energy/eV
      -------------------------------------------------------------
         1        2.0000           -0.9945338             -27.0626
       ...           ...                  ...                  ...
       286        2.0000           -0.3335882              -9.0774
       287        2.0000           -0.3332872              -9.0692
       288        2.0000           -0.3324207              -9.0456
       289        2.0000           -0.3321020              -9.0370
       290        2.0000           -0.3320256              -9.0349
       291        2.0000           -0.3318750              -9.0308
       292        2.0000           -0.3317332              -9.0269
       293        2.0000           -0.3315078              -9.0208
       294        2.0000           -0.3313880              -9.0175
       295        2.0000           -0.3307377              -8.9998
       296        2.0000           -0.3307346              -8.9997
       297        2.0000           -0.3253323              -8.8527
       298        0.3106           -0.2680605              -7.2943 (HOMO)
       299        0.2801           -0.2679215              -7.2905 (LUMO)
       300        0.2214           -0.2676233              -7.2824
       301        0.1879           -0.2674275              -7.2771
       302        0.0000           -0.2585797              -7.0363
       303                         -0.2497754              -6.7967
       304                         -0.2350094              -6.3949
       305                         -0.2317848              -6.3072
       306                         -0.2296616              -6.2494
       307                         -0.2148518              -5.8464
       308                         -0.2146941              -5.8421
       309                         -0.2114894              -5.7549
       ...                                ...                  ...
       747                        549.0580895           14940.6311
      -------------------------------------------------------------
                  HL-Gap            0.0001389 Eh            0.0038 eV
             Fermi-level           -0.2830052 Eh           -7.7010 eV

  Mulliken/CM5 charges         n(s)   n(p)   n(d)
     1Ni    0.27272  0.64244   0.570  0.783  8.374
     2C    -0.01735 -0.05868   1.086  2.931  0.000
     3C     0.05620  0.11641   1.107  2.837  0.000
     4C    -0.03841 -0.08487   1.086  2.953  0.000
     5C    -0.03848 -0.08404   1.082  2.956  0.000
     6C     0.06317  0.12848   1.117  2.820  0.000
     7N    -0.20992 -0.46180   1.318  3.892  0.000
     8C     0.01217  0.01917   1.077  2.911  0.000
     9C    -0.02181 -0.02371   1.082  2.940  0.000
    10C    -0.03387 -0.03637   1.070  2.964  0.000
    11C     0.02775  0.02264   1.090  2.882  0.000
    12C    -0.01853 -0.06523   1.089  2.930  0.000
    13C     0.05195  0.07656   1.128  2.820  0.000
    14N    -0.26457 -0.45970   1.381  3.884  0.000
    15C     0.05113  0.07571   1.128  2.821  0.000
    16C    -0.01956 -0.06626   1.089  2.931  0.000
    17C     0.06250  0.12724   1.115  2.822  0.000
    18C    -0.03734 -0.08287   1.081  2.956  0.000
    19C    -0.03455 -0.08012   1.083  2.952  0.000
    20N    -0.20829 -0.45971   1.319  3.890  0.000
    21C     0.06085  0.12542   1.111  2.828  0.000
    22C     0.02270  0.02960   1.082  2.896  0.000
    23C     0.06101  0.12553   1.111  2.828  0.000
    24C    -0.03426 -0.07985   1.082  2.952  0.000
    25C    -0.03721 -0.08276   1.081  2.956  0.000
    26C     0.06263  0.12743   1.115  2.822  0.000
    27N    -0.20811 -0.45970   1.319  3.889  0.000
    28C     0.01222  0.01922   1.077  2.911  0.000
    29C    -0.02181 -0.02370   1.082  2.940  0.000
    30C    -0.03380 -0.03629   1.070  2.964  0.000
    31C     0.02777  0.02266   1.090  2.882  0.000
    32C    -0.01845 -0.06514   1.089  2.930  0.000
    33C     0.05196  0.07655   1.128  2.820  0.000
    34N    -0.26454 -0.45967   1.381  3.884  0.000
    35C     0.05116  0.07575   1.128  2.821  0.000
    36C    -0.01960 -0.06630   1.089  2.931  0.000
    37C     0.06308  0.12837   1.117  2.820  0.000
    38C    -0.03851 -0.08406   1.082  2.956  0.000
    39C    -0.03847 -0.08492   1.086  2.953  0.000
    40C     0.05623  0.11653   1.106  2.837  0.000
    41N    -0.21001 -0.46161   1.318  3.892  0.000
    42H     0.02446  0.08345   0.976  0.000  0.000
    43H     0.02857  0.08519   0.971  0.000  0.000
    44H     0.02358  0.08173   0.976  0.000  0.000
    45H     0.03462  0.09187   0.965  0.000  0.000
    46H     0.02983  0.09574   0.970  0.000  0.000
    47H     0.02805  0.09396   0.972  0.000  0.000
    48H     0.03201  0.08926   0.968  0.000  0.000
    49H     0.02468  0.08283   0.975  0.000  0.000
    50H     0.02210  0.08025   0.978  0.000  0.000
    51H     0.02206  0.08031   0.978  0.000  0.000
    52H     0.02473  0.08290   0.975  0.000  0.000
    53H     0.03465  0.09190   0.965  0.000  0.000
    54H     0.02990  0.09581   0.970  0.000  0.000
    55H     0.02803  0.09394   0.972  0.000  0.000
    56H     0.03204  0.08928   0.968  0.000  0.000
    57H     0.02354  0.08166   0.976  0.000  0.000
    58H     0.02856  0.08518   0.971  0.000  0.000
    59Ni    0.27225  0.64049   0.570  0.783  8.374
    60C    -0.01802 -0.05936   1.086  2.932  0.000
    61C     0.05644  0.11670   1.107  2.837  0.000
    62C    -0.03860 -0.08506   1.086  2.953  0.000
    63C    -0.03844 -0.08400   1.082  2.956  0.000
    64C     0.06286  0.12819   1.116  2.821  0.000
    65N    -0.21018 -0.46146   1.318  3.892  0.000
    66C     0.01286  0.01985   1.077  2.910  0.000
    67C    -0.02142 -0.02333   1.082  2.939  0.000
    68C    -0.03345 -0.03595   1.070  2.963  0.000
    69C     0.02793  0.02282   1.090  2.882  0.000
    70C    -0.01826 -0.06495   1.089  2.929  0.000
    71C     0.05209  0.07667   1.128  2.819  0.000
    72N    -0.26428 -0.45941   1.381  3.884  0.000
    73C     0.05124  0.07584   1.128  2.820  0.000
    74C    -0.01945 -0.06614   1.089  2.931  0.000
    75C     0.06200  0.12668   1.115  2.823  0.000
    76C    -0.03724 -0.08280   1.080  2.957  0.000
    77C    -0.03432 -0.07999   1.080  2.954  0.000
    78N    -0.20814 -0.45931   1.319  3.889  0.000
    79C     0.06122  0.12584   1.111  2.828  0.000
    80C     0.02161  0.02848   1.082  2.897  0.000
    81C     0.06111  0.12570   1.111  2.828  0.000
    82C    -0.03451 -0.08013   1.081  2.953  0.000
    83C    -0.03734 -0.08289   1.081  2.957  0.000
    84C     0.06204  0.12677   1.115  2.823  0.000
    85N    -0.20824 -0.45934   1.319  3.889  0.000
    86C     0.01284  0.01982   1.077  2.910  0.000
    87C    -0.02144 -0.02335   1.082  2.939  0.000
    88C    -0.03348 -0.03599   1.070  2.963  0.000
    89C     0.02792  0.02281   1.090  2.882  0.000
    90C    -0.01833 -0.06503   1.089  2.929  0.000
    91C     0.05206  0.07665   1.128  2.819  0.000
    92N    -0.26431 -0.45944   1.381  3.884  0.000
    93C     0.05124  0.07583   1.128  2.820  0.000
    94C    -0.01941 -0.06610   1.089  2.931  0.000
    95C     0.06287  0.12818   1.116  2.821  0.000
    96C    -0.03842 -0.08398   1.082  2.956  0.000
    97C    -0.03861 -0.08507   1.086  2.953  0.000
    98C     0.05644  0.11670   1.107  2.837  0.000
    99N    -0.21011 -0.46159   1.318  3.892  0.000
   100H     0.02416  0.08315   0.976  0.000  0.000
   101H     0.02843  0.08506   0.972  0.000  0.000
   102H     0.02343  0.08157   0.977  0.000  0.000
   103H     0.03480  0.09205   0.965  0.000  0.000
   104H     0.03009  0.09600   0.970  0.000  0.000
   105H     0.02815  0.09406   0.972  0.000  0.000
   106H     0.03214  0.08938   0.968  0.000  0.000
   107H     0.02448  0.08267   0.976  0.000  0.000
   108H     0.02139  0.07975   0.979  0.000  0.000
   109H     0.02166  0.07991   0.978  0.000  0.000
   110H     0.02450  0.08267   0.975  0.000  0.000
   111H     0.03483  0.09207   0.965  0.000  0.000
   112H     0.03004  0.09595   0.970  0.000  0.000
   113H     0.02816  0.09407   0.972  0.000  0.000
   114H     0.03213  0.08938   0.968  0.000  0.000
   115H     0.02346  0.08161   0.977  0.000  0.000
   116H     0.02844  0.08507   0.972  0.000  0.000
   117C    -0.02053 -0.02296   1.074  2.947  0.000
   118C    -0.01955 -0.02193   1.075  2.945  0.000
   119C    -0.02148 -0.02386   1.074  2.948  0.000
   120C    -0.02195 -0.02438   1.074  2.948  0.000
   121Ni    0.27568  0.65170   0.570  0.783  8.371
   122C     0.02071  0.02767   1.080  2.900  0.000
   123C     0.06196  0.12663   1.112  2.826  0.000
   124C    -0.03488 -0.08044   1.082  2.953  0.000
   125C    -0.03653 -0.08205   1.082  2.954  0.000
   126C     0.06183  0.12648   1.114  2.824  0.000
   127N    -0.20766 -0.46076   1.318  3.890  0.000
   128C     0.01646  0.02346   1.080  2.904  0.000
   129C    -0.01974 -0.02159   1.082  2.937  0.000
   130C    -0.03095 -0.03343   1.072  2.959  0.000
   131C     0.02875  0.02364   1.090  2.881  0.000
   132C    -0.01784 -0.06454   1.089  2.929  0.000
   133C     0.05228  0.07688   1.128  2.819  0.000
   134N    -0.26307 -0.45821   1.381  3.882  0.000
   135C     0.05224  0.07684   1.128  2.819  0.000
   136C    -0.01793 -0.06463   1.089  2.929  0.000
   137C     0.06186  0.12662   1.114  2.824  0.000
   138C    -0.03660 -0.08211   1.081  2.955  0.000
   139C    -0.03459 -0.08018   1.081  2.953  0.000
   140N    -0.20745 -0.46063   1.318  3.889  0.000
   141C     0.06187  0.12643   1.112  2.826  0.000
   142C     0.02047  0.02741   1.080  2.899  0.000
   143C     0.06200  0.12673   1.112  2.826  0.000
   144C    -0.03459 -0.08023   1.080  2.954  0.000
   145C    -0.03654 -0.08207   1.081  2.955  0.000
   146C     0.06161  0.12621   1.114  2.824  0.000
   147N    -0.20747 -0.46048   1.318  3.889  0.000
   148C     0.01646  0.02346   1.080  2.904  0.000
   149C    -0.01974 -0.02158   1.082  2.937  0.000
   150C    -0.03091 -0.03339   1.072  2.959  0.000
   151C     0.02875  0.02364   1.090  2.881  0.000
   152C    -0.01789 -0.06458   1.089  2.929  0.000
   153C     0.05225  0.07682   1.128  2.819  0.000
   154N    -0.26302 -0.45816   1.381  3.882  0.000
   155C     0.05232  0.07693   1.128  2.819  0.000
   156C    -0.01786 -0.06456   1.089  2.929  0.000
   157C     0.06213  0.12698   1.114  2.824  0.000
   158C    -0.03655 -0.08205   1.082  2.954  0.000
   159C    -0.03480 -0.08034   1.083  2.952  0.000
   160C     0.06183  0.12631   1.112  2.826  0.000
   161N    -0.20765 -0.46078   1.318  3.890  0.000
   162H     0.02142  0.07958   0.979  0.000  0.000
   163H     0.02466  0.08277   0.975  0.000  0.000
   164H     0.03481  0.09206   0.965  0.000  0.000
   165H     0.03002  0.09594   0.970  0.000  0.000
   166H     0.02993  0.09585   0.970  0.000  0.000
   167H     0.03476  0.09200   0.965  0.000  0.000
   168H     0.02470  0.08281   0.975  0.000  0.000
   169H     0.02160  0.07979   0.978  0.000  0.000
   170H     0.02110  0.07937   0.979  0.000  0.000
   171H     0.02461  0.08273   0.975  0.000  0.000
   172H     0.03471  0.09196   0.965  0.000  0.000
   173H     0.02996  0.09587   0.970  0.000  0.000
   174H     0.03006  0.09598   0.970  0.000  0.000
   175H     0.03485  0.09209   0.965  0.000  0.000
   176H     0.02479  0.08289   0.975  0.000  0.000
   177H     0.02188  0.08001   0.978  0.000  0.000

Wiberg/Mayer (AO) data.
largest (>0.10) Wiberg bond orders for each atom

 ---------------------------------------------------------------------------
     #   Z sym  total        # sym  WBO       # sym  WBO       # sym  WBO
 ---------------------------------------------------------------------------
     1  28 Ni   3.311 --    27 N    0.711    20 N    0.711     7 N    0.710
                            41 N    0.709
     2   6 C    3.827 --     3 C    1.395    40 C    1.394    42 H    0.997
     3   6 C    3.927 --     2 C    1.395     7 N    1.238     4 C    1.207
     4   6 C    3.850 --     5 C    1.629     3 C    1.207    43 H    0.993
     5   6 C    3.829 --     4 C    1.629     6 C    1.220    44 H    1.000
     6   6 C    3.933 --     8 C    1.307     7 N    1.278     5 C    1.220
     7   7 N    3.022 --     6 C    1.278     3 C    1.238     1 Ni   0.710
     8   6 C    3.820 --    17 C    1.310     6 C    1.307     9 C    1.187
     9   6 C    3.811 --    10 C    2.656     8 C    1.187
    10   6 C    3.785 --     9 C    2.656    11 C    1.156
    11   6 C    3.925 --    12 C    1.371    16 C    1.370    10 C    1.156
    12   6 C    3.876 --    13 C    1.465    11 C    1.371    45 H    0.988
    13   6 C    4.005 --    14 N    1.467    12 C    1.465    46 H    0.983
    14   7 N    2.916 --    13 C    1.467    15 C    1.466
    15   6 C    4.006 --    14 N    1.466    16 C    1.466    47 H    0.983
    16   6 C    3.876 --    15 C    1.466    11 C    1.370    48 H    0.989
    17   6 C    3.922 --     8 C    1.310    20 N    1.269    18 C    1.226
    18   6 C    3.827 --    19 C    1.618    17 C    1.226    49 H    0.999
    19   6 C    3.834 --    18 C    1.618    21 C    1.226    50 H    0.997
    20   7 N    3.028 --    17 C    1.269    21 C    1.254     1 Ni   0.711
    21   6 C    3.912 --    22 C    1.324    20 N    1.254    19 C    1.226
    22   6 C    3.850 --    21 C    1.324    23 C    1.324   117 C    1.170
    23   6 C    3.911 --    22 C    1.324    27 N    1.253    24 C    1.226
    24   6 C    3.833 --    25 C    1.618    23 C    1.226    51 H    0.997
    25   6 C    3.826 --    24 C    1.618    26 C    1.226    52 H    0.999
    26   6 C    3.921 --    28 C    1.308    27 N    1.270    25 C    1.226
    27   7 N    3.028 --    26 C    1.270    23 C    1.253     1 Ni   0.711
    28   6 C    3.820 --    26 C    1.308    37 C    1.308    29 C    1.187
    29   6 C    3.811 --    30 C    2.656    28 C    1.187
    30   6 C    3.785 --    29 C    2.656    31 C    1.156
    31   6 C    3.925 --    32 C    1.371    36 C    1.370    30 C    1.156
    32   6 C    3.876 --    33 C    1.465    31 C    1.371    53 H    0.988
    33   6 C    4.005 --    34 N    1.466    32 C    1.465    54 H    0.983
    34   7 N    2.916 --    35 C    1.467    33 C    1.466
    35   6 C    4.006 --    34 N    1.467    36 C    1.465    55 H    0.983
    36   6 C    3.876 --    35 C    1.465    31 C    1.370    56 H    0.989
    37   6 C    3.933 --    28 C    1.308    41 N    1.278    38 C    1.219
    38   6 C    3.829 --    39 C    1.629    37 C    1.219    57 H    1.000
    39   6 C    3.850 --    38 C    1.629    40 C    1.207    58 H    0.993
    40   6 C    3.927 --     2 C    1.394    41 N    1.239    39 C    1.207
    41   7 N    3.021 --    37 C    1.278    40 C    1.239     1 Ni   0.709
    42   1 H    1.041 --     2 C    0.997
    43   1 H    1.025 --     4 C    0.993
    44   1 H    1.031 --     5 C    1.000
    45   1 H    1.034 --    12 C    0.988
    46   1 H    1.050 --    13 C    0.983
    47   1 H    1.051 --    15 C    0.983
    48   1 H    1.036 --    16 C    0.989
    49   1 H    1.030 --    18 C    0.999
    50   1 H    1.042 --    19 C    0.997
    51   1 H    1.043 --    24 C    0.997
    52   1 H    1.029 --    25 C    0.999
    53   1 H    1.034 --    32 C    0.988
    54   1 H    1.050 --    33 C    0.983
    55   1 H    1.051 --    35 C    0.983
    56   1 H    1.035 --    36 C    0.989
    57   1 H    1.032 --    38 C    1.000
    58   1 H    1.025 --    39 C    0.993
    59  28 Ni   3.306 --    78 N    0.711    85 N    0.710    99 N    0.709
                            65 N    0.708
    60   6 C    3.822 --    61 C    1.394    98 C    1.394   100 H    0.996
    61   6 C    3.928 --    60 C    1.394    65 N    1.239    62 C    1.207
    62   6 C    3.849 --    63 C    1.629    61 C    1.207   101 H    0.993
    63   6 C    3.830 --    62 C    1.629    64 C    1.220   102 H    1.000
    64   6 C    3.932 --    66 C    1.309    65 N    1.277    63 C    1.220
    65   7 N    3.020 --    64 C    1.277    61 C    1.239    59 Ni   0.708
    66   6 C    3.822 --    75 C    1.310    64 C    1.309    67 C    1.187
    67   6 C    3.812 --    68 C    2.658    66 C    1.187
    68   6 C    3.785 --    67 C    2.658    69 C    1.156
    69   6 C    3.926 --    70 C    1.371    74 C    1.371    68 C    1.156
    70   6 C    3.876 --    71 C    1.465    69 C    1.371   103 H    0.988
    71   6 C    4.005 --    72 N    1.467    70 C    1.465   104 H    0.983
    72   7 N    2.916 --    73 C    1.467    71 C    1.467
    73   6 C    4.006 --    72 N    1.467    74 C    1.465   105 H    0.983
    74   6 C    3.876 --    73 C    1.465    69 C    1.371   106 H    0.989
    75   6 C    3.919 --    66 C    1.310    78 N    1.267    76 C    1.227
    76   6 C    3.825 --    77 C    1.616    75 C    1.227   107 H    0.999
    77   6 C    3.826 --    76 C    1.616    79 C    1.228   108 H    0.998
    78   7 N    3.028 --    75 C    1.267    79 C    1.258    59 Ni   0.711
    79   6 C    3.908 --    80 C    1.317    78 N    1.258    77 C    1.228
    80   6 C    3.846 --    81 C    1.318    79 C    1.317   120 C    1.182
    81   6 C    3.909 --    80 C    1.318    85 N    1.257    82 C    1.228
    82   6 C    3.828 --    83 C    1.616    81 C    1.228   109 H    0.998
    83   6 C    3.825 --    82 C    1.616    84 C    1.227   110 H    0.999
    84   6 C    3.919 --    86 C    1.310    85 N    1.268    83 C    1.227
    85   7 N    3.028 --    84 C    1.268    81 C    1.257    59 Ni   0.710
    86   6 C    3.823 --    84 C    1.310    95 C    1.309    87 C    1.187
    87   6 C    3.812 --    88 C    2.657    86 C    1.187
    88   6 C    3.786 --    87 C    2.657    89 C    1.156
    89   6 C    3.926 --    90 C    1.371    94 C    1.371    88 C    1.156
    90   6 C    3.876 --    91 C    1.465    89 C    1.371   111 H    0.988
    91   6 C    4.005 --    92 N    1.467    90 C    1.465   112 H    0.983
    92   7 N    2.916 --    93 C    1.467    91 C    1.467
    93   6 C    4.006 --    92 N    1.467    94 C    1.465   113 H    0.983
    94   6 C    3.876 --    93 C    1.465    89 C    1.371   114 H    0.989
    95   6 C    3.932 --    86 C    1.309    99 N    1.277    96 C    1.219
    96   6 C    3.830 --    97 C    1.629    95 C    1.219   115 H    1.000
    97   6 C    3.848 --    96 C    1.629    98 C    1.207   116 H    0.993
    98   6 C    3.928 --    60 C    1.394    99 N    1.239    97 C    1.207
    99   7 N    3.020 --    95 C    1.277    98 C    1.239    59 Ni   0.709
   100   1 H    1.041 --    60 C    0.996
   101   1 H    1.025 --    62 C    0.993
   102   1 H    1.031 --    63 C    1.000
   103   1 H    1.034 --    70 C    0.988
   104   1 H    1.050 --    71 C    0.983
   105   1 H    1.051 --    73 C    0.983
   106   1 H    1.035 --    74 C    0.989
   107   1 H    1.031 --    76 C    0.999
   108   1 H    1.044 --    77 C    0.998
   109   1 H    1.044 --    82 C    0.998
   110   1 H    1.031 --    83 C    0.999
   111   1 H    1.034 --    90 C    0.988
   112   1 H    1.050 --    91 C    0.983
   113   1 H    1.051 --    93 C    0.983
   114   1 H    1.035 --    94 C    0.989
   115   1 H    1.031 --    96 C    1.000
   116   1 H    1.025 --    97 C    0.993
   117   6 C    3.769 --   118 C    2.654    22 C    1.170
   118   6 C    3.773 --   117 C    2.654   122 C    1.171
   119   6 C    3.774 --   120 C    2.645   142 C    1.184
   120   6 C    3.772 --   119 C    2.645    80 C    1.182
   121  28 Ni   3.317 --   140 N    0.711   161 N    0.711   127 N    0.711
                           147 N    0.710
   122   6 C    3.832 --   160 C    1.322   123 C    1.318   118 C    1.171
   123   6 C    3.915 --   122 C    1.318   127 N    1.260   124 C    1.227
   124   6 C    3.829 --   125 C    1.618   123 C    1.227   162 H    0.998
   125   6 C    3.831 --   124 C    1.618   126 C    1.226   163 H    0.999
   126   6 C    3.918 --   128 C    1.314   127 N    1.264   125 C    1.226
   127   7 N    3.021 --   126 C    1.264   123 C    1.260   121 Ni   0.711
   128   6 C    3.831 --   126 C    1.314   137 C    1.311   129 C    1.186
   129   6 C    3.814 --   130 C    2.661   128 C    1.186
   130   6 C    3.790 --   129 C    2.661   131 C    1.154
   131   6 C    3.928 --   136 C    1.373   132 C    1.373   130 C    1.154
   132   6 C    3.877 --   133 C    1.464   131 C    1.373   164 H    0.988
   133   6 C    4.006 --   134 N    1.468   132 C    1.464   165 H    0.983
   134   7 N    2.919 --   135 C    1.468   133 C    1.468
   135   6 C    4.006 --   134 N    1.468   136 C    1.464   166 H    0.983
   136   6 C    3.877 --   135 C    1.464   131 C    1.373   167 H    0.988
   137   6 C    3.917 --   128 C    1.311   140 N    1.266   138 C    1.228
   138   6 C    3.829 --   139 C    1.616   137 C    1.228   168 H    0.999
   139   6 C    3.826 --   138 C    1.616   141 C    1.227   169 H    0.998
   140   7 N    3.022 --   137 C    1.266   141 C    1.259   121 Ni   0.711
   141   6 C    3.912 --   142 C    1.316   140 N    1.259   139 C    1.227
   142   6 C    3.834 --   141 C    1.316   143 C    1.312   119 C    1.184
   143   6 C    3.911 --   142 C    1.312   147 N    1.262   144 C    1.229
   144   6 C    3.824 --   145 C    1.616   143 C    1.229   170 H    0.998
   145   6 C    3.829 --   144 C    1.616   146 C    1.227   171 H    0.999
   146   6 C    3.917 --   148 C    1.314   147 N    1.263   145 C    1.227
   147   7 N    3.022 --   146 C    1.263   143 C    1.262   121 Ni   0.710
   148   6 C    3.831 --   146 C    1.314   157 C    1.311   149 C    1.186
   149   6 C    3.814 --   150 C    2.661   148 C    1.186
   150   6 C    3.790 --   149 C    2.661   151 C    1.154
   151   6 C    3.928 --   156 C    1.373   152 C    1.372   150 C    1.154
   152   6 C    3.877 --   153 C    1.464   151 C    1.372   172 H    0.988
   153   6 C    4.006 --   154 N    1.468   152 C    1.464   173 H    0.983
   154   7 N    2.919 --   155 C    1.468   153 C    1.468
   155   6 C    4.006 --   154 N    1.468   156 C    1.464   174 H    0.983
   156   6 C    3.877 --   155 C    1.464   151 C    1.373   175 H    0.988
   157   6 C    3.918 --   148 C    1.311   161 N    1.267   158 C    1.227
   158   6 C    3.832 --   159 C    1.619   157 C    1.227   176 H    0.999
   159   6 C    3.832 --   158 C    1.619   160 C    1.225   177 H    0.997
   160   6 C    3.915 --   122 C    1.322   161 N    1.256   159 C    1.225
   161   7 N    3.020 --   157 C    1.267   160 C    1.256   121 Ni   0.711
   162   1 H    1.042 --   124 C    0.998
   163   1 H    1.029 --   125 C    0.999
   164   1 H    1.034 --   132 C    0.988
   165   1 H    1.050 --   133 C    0.983
   166   1 H    1.050 --   135 C    0.983
   167   1 H    1.034 --   136 C    0.988
   168   1 H    1.030 --   138 C    0.999
   169   1 H    1.043 --   139 C    0.998
   170   1 H    1.044 --   144 C    0.998
   171   1 H    1.031 --   145 C    0.999
   172   1 H    1.034 --   152 C    0.988
   173   1 H    1.050 --   153 C    0.983
   174   1 H    1.050 --   155 C    0.983
   175   1 H    1.034 --   156 C    0.988
   176   1 H    1.029 --   158 C    0.999
   177   1 H    1.043 --   159 C    0.997
 ---------------------------------------------------------------------------

Topologies differ in total number of bonds
Writing topology from bond orders to xtbtopo.mol

 dipole moment from electron density (au)
     X       Y       Z   
 -86.5211   0.8293   0.4415  total (Debye):  219.928


           -------------------------------------------------
          | TOTAL ENERGY             -363.465569462191 Eh   |
          | GRADIENT NORM               0.070726293513 Eh/α |
          | HOMO-LUMO GAP               0.003780383800 eV   |
           -------------------------------------------------
########################################################################
[WARNING] Runtime exception occurred
-1- restart_readRestart: Dimension missmatch in restart file.
########################################################################

------------------------------------------------------------------------
 * finished run on 2022/07/30 at 04:23:23.764     
------------------------------------------------------------------------
 total:
 * wall-time:     0 d,  0 h,  0 min, 21.052 sec
 *  cpu-time:     0 d,  0 h,  0 min, 20.907 sec
 * ratio c/w:     0.993 speedup
 SCF:
 * wall-time:     0 d,  0 h,  0 min, 20.247 sec
 *  cpu-time:     0 d,  0 h,  0 min, 20.114 sec
 * ratio c/w:     0.993 speedup

