177
 energy: -319.802538542783 gnorm: 0.743893508921 xtb: 6.5.1 (b24c23e)
Ni          35.68059800000000       -0.29536300000000       -0.20173500000000
C           32.29489200000000       -0.15303900000000       -0.15385900000000
C           32.96038700000000        0.63676300000000        0.69366200000000
C           32.31278200000000        1.52229200000000        1.65439600000000
C           33.25729400000000        2.17026700000000        2.31108400000000
C           34.56181600000000        1.73170300000000        1.79569700000000
N           34.38017100000000        0.75418700000000        0.77103800000000
C           35.75518800000000        2.20513300000000        2.20196500000000
C           35.79660100000000        3.21900900000000        3.23217300000000
C           35.83362999999999        4.06422700000000        4.09091400000000
C           35.87853900000000        5.07254000000000        5.11569500000000
C           37.08413199999999        5.71770000000000        5.41497300000000
C           37.10598300000000        6.69427900000000        6.41432000000000
N           35.96493800000000        7.00949300000000        7.08517300000000
C           34.78242700000000        6.39497100000000        6.81070800000000
C           34.71699900000000        5.41296100000000        5.81864700000000
C           37.05008900000000        1.75020500000000        1.63619200000000
C           38.34140400000000        2.36991600000000        1.95711400000000
C           39.27775400000000        1.70785300000000        1.30916000000000
N           37.19050400000000        0.74629900000000        0.82471900000000
C           38.59231700000000        0.65477400000000        0.56879600000000
C           39.18835000000000       -0.28331700000000       -0.18669300000000
C           38.43136199999999       -1.33055800000000       -0.91284500000000
C           38.98424400000000       -2.41143400000000       -1.44958000000000
C           37.93779700000000       -3.13364900000000       -2.14471600000000
C           36.81122100000000       -2.44777500000000       -1.98741000000000
N           37.03296900000000       -1.27515600000000       -1.20039800000000
C           35.51375500000000       -2.81885900000000       -2.60656400000000
C           35.50705799999999       -3.82907600000000       -3.64279300000000
C           35.50192100000000       -4.67081200000000       -4.50581900000000
C           35.49562300000000       -5.67515300000000       -5.53552000000000
C           36.68869900000000       -6.29938900000000       -5.91615600000000
C           36.66083300000000       -7.27200600000000       -6.91925700000000
N           35.48391200000000       -7.60392000000000       -7.51506500000000
C           34.31256400000000       -7.01019100000000       -7.16060000000000
C           34.29642800000000       -6.03258500000000       -6.16200800000000
C           34.35069099999999       -2.25628700000000       -2.23541400000000
C           33.03099900000000       -2.57278300000000       -2.77954700000000
C           32.16885200000000       -1.84504300000000       -2.09642200000000
C           32.92830900000000       -1.06179100000000       -1.12282000000000
N           34.20127900000000       -1.29437900000000       -1.19372500000000
H           31.21144800000000       -0.12945800000000       -0.13478900000000
H           31.24843300000000        1.64114600000000        1.81182300000000
H           33.07489800000000        2.90199900000000        3.08770900000000
H           37.99486300000000        5.46885400000000        4.88248900000000
H           38.03053200000000        7.20169000000000        6.65668900000000
H           33.89275700000000        6.66873100000000        7.36260100000000
H           33.77346900000000        4.92558700000000        5.60232200000000
H           38.51607600000000        3.21804100000000        2.60628500000000
H           40.33696100000000        1.92485500000000        1.34519600000000
H           40.02605900000000       -2.69854300000000       -1.40381000000000
H           38.06348200000000       -4.04990500000000       -2.70703700000000
H           37.62782399999999       -6.03749400000000       -5.44352400000000
H           37.57537700000000       -7.76314100000000       -7.22407100000000
H           33.39338800000000       -7.29690000000000       -7.65391500000000
H           33.36157200000000       -5.56171600000000       -5.88218000000000
H           32.78368000000000       -3.26649900000000       -3.57284600000000
H           31.09615100000000       -1.84162400000000       -2.23862500000000
Ni          55.86595400000000       -0.26422400000000       -0.18407800000000
C           59.25166000000000       -0.37837400000000       -0.28163800000000
C           58.58616400000000       -1.51114700000000       -0.52433900000000
C           59.23376999999999       -2.79022000000000       -0.79107100000000
C           58.28925800000000       -3.68641600000000       -1.01002600000000
C           56.98473600000000       -3.01898300000000       -0.89824300000000
N           57.16638099999999       -1.63783000000000       -0.58538700000000
C           55.79136400000000       -3.61067200000000       -1.09596400000000
C           55.74995100000000       -5.01525300000000       -1.43717600000000
C           55.71292200000000       -6.18610400000000       -1.72167300000000
C           55.66801299999999       -7.58317200000000       -2.06089500000000
C           54.46242000000000       -8.17120500000000       -2.46091500000000
C           54.44056900000000       -9.53015500000000       -2.78596100000000
N           55.58161400000000      -10.26768200000000       -2.71207800000000
C           56.76412500000000       -9.71667100000000       -2.32561300000000
C           56.82955200000000       -8.36118600000000       -1.99216600000000
C           54.49646299999999       -2.89159900000000       -0.99600400000000
C           53.20514799999999       -3.48514100000000       -1.36307400000000
C           52.26879799999999       -2.58920800000000       -1.12754500000000
N           54.35604799999999       -1.67984800000000       -0.55106000000000
C           52.95423400000000       -1.41323600000000       -0.60389700000000
C           52.35820200000000       -0.28331700000000       -0.18669300000000
C           53.11519000000000        0.87746100000000        0.33924100000000
C           52.56230799999999        1.89295200000000        0.99128000000000
C           53.60875500000000        2.86025700000000        1.25420700000000
C           54.73533100000000        2.37315900000000        0.74636500000000
N           54.51358300000000        1.09579000000000        0.14407800000000
C           56.03279700000000        3.09500100000000        0.74696800000000
C           56.03949400000000        4.50287000000000        1.08194700000000
C           56.04463100000000        5.67561100000000        1.36125700000000
C           56.05092899999999        7.07486100000000        1.69454500000000
C           54.85785199999999        7.72197200000000        2.03484300000000
C           54.88571900000000        9.08211000000000        2.35456100000000
N           56.06263900000000        9.76380800000000        2.33353600000000
C           57.23398799999999        9.15481800000000        2.00598300000000
C           57.25012399999999        7.79598900000000        1.67966800000000
C           57.19586000000000        2.48768600000000        0.45471900000000
C           58.51555299999999        3.11712300000000        0.44699000000000
C           59.37770000000000        2.15729100000000        0.17315400000000
C           58.61824300000000        0.91968000000000        0.00080000000000
N           57.34527299999999        1.09993100000000        0.16400000000000
H           60.33510400000000       -0.40684500000000       -0.29208500000000
H           60.29811899999999       -2.98633400000000       -0.81225100000000
H           58.47165399999999       -4.72853800000000       -1.23928900000000
H           53.55168799999999       -7.58649400000000       -2.52071900000000
H           53.51602000000000       -9.99863500000000       -3.09698400000000
H           57.65379500000000      -10.33082800000000       -2.27722500000000
H           57.77308300000000       -7.92534100000000       -1.68496800000000
H           53.03047599999999       -4.47763700000000       -1.75765100000000
H           51.20959100000000       -2.73153300000000       -1.29527100000000
H           51.52049299999999        2.00106400000000        1.26116500000000
H           53.48306999999999        3.81319600000000        1.75183900000000
H           53.91872800000000        7.18192600000000        2.05272400000000
H           53.97117500000000        9.59582300000000        2.61956000000000
H           58.15316400000000        9.72535300000000        1.99878000000000
H           58.18498000000000        7.31412100000000        1.41923400000000
H           58.76287199999999        4.15403800000000        0.63506800000000
H           60.45040100000000        2.27757000000000        0.09721800000000
C           40.44886499999999       -0.28331700000000       -0.18669300000000
C           41.67078200000000       -0.28331700000000       -0.18669300000000
C           49.87577000000000       -0.28331700000000       -0.18669300000000
C           51.09768700000000       -0.28331700000000       -0.18669300000000
Ni          45.84410300000000        0.46938100000000        0.39190400000000
C           42.36248999999999        0.59645600000000        0.39303800000000
C           43.01763600000000        1.14664000000000       -0.64292800000000
C           42.36453800000000        1.70698500000000       -1.82317300000000
C           43.29223600000000        1.97732500000000       -2.71539000000000
C           44.59949099999999        1.66212200000000       -2.13452700000000
N           44.43435900000000        1.12149700000000       -0.82663500000000
C           45.77920100000000        1.84873400000000       -2.75549200000000
C           45.78608899999999        2.24611100000000       -4.14469200000000
C           45.78090199999999        2.53214300000000       -5.31782900000000
C           45.76239200000000        2.83502700000000       -6.72174100000000
C           46.70692700000000        2.25891900000000       -7.57621600000000
C           46.65888499999999        2.54921700000000       -8.94252800000000
N           45.69648100000000        3.37807700000000       -9.42957800000000
C           44.76054800000000        3.93842500000000       -8.61656300000000
C           44.77753500000000        3.68104500000000       -7.24388900000000
C           47.09106600000000        1.64256100000000       -2.09639000000000
C           48.36265300000000        2.12735100000000       -2.64083900000000
C           49.31389200000000        1.80315500000000       -1.78833900000000
N           47.25722399999999        1.04257000000000       -0.96325500000000
C           48.65686100000000        1.10015200000000       -0.69640400000000
C           49.26228500000000        0.59645600000000        0.39303800000000
C           48.53570400000000       -0.17236400000000        1.42991600000000
C           49.12595199999999       -0.81067300000000        2.43712800000000
C           48.10026599999999       -1.54422200000000        3.15403100000000
C           46.94759100000000       -1.30427700000000        2.54081900000000
N           47.13135199999999       -0.42436600000000        1.42877800000000
C           45.64884899999999       -1.89810900000000        2.94689400000000
C           45.66965600000000       -3.09600200000000        3.75496500000000
C           45.70332600000000       -4.13378900000000        4.36777800000000
C           45.76724200000000       -5.41047500000000        5.02256600000000
C           44.59763300000000       -6.04415400000000        5.44948800000000
C           44.66389800000000       -7.36778900000000        5.88693700000000
N           45.85633199999999       -8.01962500000000        5.91301700000000
C           47.01030000000000       -7.41215500000000        5.54056800000000
C           46.98771300000000       -6.09438900000000        5.09093700000000
C           44.46857399999999       -1.40868900000000        2.53158500000000
C           43.15411199999999       -1.89322100000000        2.94253500000000
C           42.27314699999999       -1.17146800000000        2.27894100000000
C           43.01349500000000       -0.23808400000000        1.42412800000000
N           44.29826000000000       -0.37089600000000        1.56681300000000
H           41.31090300000000        1.87083200000000       -1.96836600000000
H           43.10508700000000        2.41095100000000       -3.68034700000000
H           47.46892699999999        1.59233400000000       -7.19455800000000
H           47.39106000000000        2.12144400000000       -9.61129400000000
H           44.00512000000000        4.58595700000000       -9.03678900000000
H           44.02456200000000        4.12207000000000       -6.60469500000000
H           48.51183700000000        2.66668100000000       -3.56480100000000
H           50.36278500000000        2.02425700000000       -1.91052400000000
H           50.18287100000000       -0.83139100000000        2.66768200000000
H           48.25685600000000       -2.18453800000000        4.01919500000000
H           43.63813100000000       -5.53768500000000        5.38294800000000
H           43.76109400000000       -7.88799100000000        6.17412400000000
H           47.93927000000000       -7.96058000000000        5.55900000000000
H           47.90180900000000       -5.63035300000000        4.74501800000000
H           42.91950500000000       -2.68051000000000        3.64792200000000
H           41.19770900000000       -1.27792200000000        2.35697200000000
177
 energy: -320.036271704816 gnorm: 0.368865632659 xtb: 6.5.1 (b24c23e)
Ni          35.68039733243315       -0.28914392919471       -0.19919650666333
C           32.29598616930192       -0.16516436590464       -0.16708894590762
C           32.96859431665433        0.63594341272451        0.69394484697158
C           32.31359617705314        1.51646464105759        1.64836860092292
C           33.26822189369599        2.17065834124603        2.31143659261765
C           34.55917834738524        1.72506378968293        1.79111041457703
N           34.36721521319863        0.76364128949903        0.78058485124968
C           35.77012885723286        2.21001919385182        2.20552017606772
C           35.80166093465522        3.21505692108351        3.22577048770152
C           35.83446435709474        4.06542295378142        4.09270091810411
C           35.87816242888868        5.06824885825821        5.11132299186451
C           37.08002839329574        5.71805248057686        5.41680898572003
C           37.08888670926606        6.68812161964597        6.41319658386420
N           35.96493313534187        7.00864542523718        7.08433653355217
C           34.79918188080602        6.39323584536898        6.80380920759215
C           34.72103689286377        5.41463694294491        5.81888078362119
C           37.03849189342069        1.76684317992472        1.65206698084795
C           38.32374448911313        2.37799320519038        1.96785907989474
C           39.26845918750205        1.70026967387439        1.30419989871798
N           37.18114300582161        0.75280770163539        0.81949276469505
C           38.55914017699691        0.66696699032400        0.57633329611895
C           39.11554000487361       -0.29349117128497       -0.19377491906084
C           38.39430860510913       -1.32504339826511       -0.91411379484259
C           38.98062082527788       -2.42786850402195       -1.46379333294685
C           37.95846932458363       -3.13735494881137       -2.14608396809373
C           36.79873637542242       -2.43672841038776       -1.98630948220542
N           37.01919565469854       -1.28557240090972       -1.19670456622154
C           35.52926447695455       -2.81721577418153       -2.60499710108266
C           35.51463433248471       -3.82272932218965       -3.63276782787642
C           35.50382487000343       -4.67024888019515       -4.50524894570984
C           35.49548861775950       -5.67015137399478       -5.53044895744659
C           36.68448837893182       -6.29962679426523       -5.91732358357567
C           36.64381383439495       -7.26608790216568       -6.91679964650437
N           35.48387392547009       -7.60285479080044       -7.51394630584839
C           34.32954037300046       -7.00802865092073       -7.15464933741259
C           34.30044604180350       -6.03376656312246       -6.16225947913836
C           34.34996856962202       -2.25223426091861       -2.23307841113655
C           33.04008711032241       -2.57079775074491       -2.77619113160169
C           32.16017594929950       -1.83563875670009       -2.08555057765292
C           32.91141967888780       -1.05427828197611       -1.11464942508708
N           34.20796084144847       -1.29465076794001       -1.19960486771736
H           31.21246810778090       -0.13369802675747       -0.14042324251455
H           31.24946680087535        1.63409494637211        1.80452316480949
H           33.08740096685647        2.90204516016465        3.08757978984778
H           37.99251772466313        5.46948997797418        4.88389875090491
H           38.01789329328330        7.20103389997076        6.65985139946825
H           33.90552383686402        6.67134265979977        7.36147722698176
H           33.77579486569793        4.92680551961301        5.60292404824620
H           38.50604349172419        3.22212886612937        2.61132479808692
H           40.33176910728180        1.91351504882415        1.33653289950558
H           40.02432741248147       -2.70114563828763       -1.40563506709726
H           38.07054110296639       -4.05161756756015       -2.70627808551200
H           37.62562320278951       -6.03809262673339       -5.44462240711583
H           37.56263429657673       -7.76265819648695       -7.22632438497844
H           33.40603331149175       -7.29925060546980       -7.65355546453069
H           33.36363883099711       -5.56275778822484       -5.88280275208108
H           32.79571122151177       -3.26521043490263       -3.57027318388262
H           31.09216821724213       -1.83517362159024       -2.23205802770289
Ni          55.86615005004818       -0.26951829592006       -0.18813380588889
C           59.25064856594889       -0.36057102641858       -0.27801378180306
C           58.57777346136840       -1.51092106917008       -0.52346465565659
C           59.23289075974159       -2.78197821969646       -0.78920226900594
C           58.27832006125580       -3.68697268179466       -1.01012631025406
C           56.98734200728394       -3.01202284969337       -0.89508999428786
N           57.17947266848494       -1.65059168820944       -0.58872033291830
C           55.77711733174530       -3.61644832623769       -1.09903891314856
C           55.74510138511866       -5.00776999086513       -1.43715614747730
C           55.71210640081124       -6.18830904218640       -1.72185186155356
C           55.66838817136757       -7.57716546453343       -2.05947523973052
C           54.46652433834689       -8.17296535220562       -2.46031421093494
C           54.45767385759460       -9.52599906875404       -2.78128101496544
N           55.58162926732797      -10.26656733833941       -2.71183251722699
C           56.74738409890031       -9.70982613990156       -2.32770220304917
C           56.82552240777385       -8.36224707616942       -1.99352877984021
C           54.50830932774980       -2.91414238486882       -1.00226855525709
C           53.22381054780050       -3.49794638388053       -1.36399050144245
C           52.28016399293465       -2.57826347676855       -1.12241950571136
N           54.36800767155140       -1.67982977231897       -0.55640767377256
C           52.99291718151672       -1.42382203671721       -0.60629977042158
C           52.43086117971772       -0.26545934091313       -0.17488631969938
C           53.14770601192316        0.88135778729089        0.33435688323243
C           52.56391781305059        1.91606750640915        0.99891150735257
C           53.58839735987231        2.86407578910641        1.25708508308106
C           54.74684496807664        2.36640378620145        0.73753482548222
N           54.52442533615883        1.09768728976155        0.15449703083950
C           56.01745470266214        3.09267340874405        0.74629914997704
C           56.03188577712710        4.49092587313751        1.08150983874863
C           56.04269933678504        5.67480558941903        1.36102277792407
C           56.05106507354573        7.06787776119741        1.69280750644363
C           54.86206589746531        7.72312286376158        2.03441369563221
C           54.90273640771915        9.07696167026392        2.35070936988699
N           56.06266242370592        9.76237852568068        2.33316158337220
C           57.21699697109658        9.14860586569294        2.00714003767163
C           57.24609176477857        7.79684171633804        1.68051323293020
C           57.19642689477634        2.48364626020085        0.45247294156033
C           58.50652932325094        3.11327842123693        0.44695957546199
C           59.38634106763906        2.14324966659418        0.17062036455923
C           58.63514402114705        0.90865977760362       -0.00151851061302
N           57.33857240253884        1.10499039405423        0.16120052513932
H           60.33412961878373       -0.39973963791984       -0.29140632837567
H           60.29706557453376       -2.97637454378710       -0.81000314945835
H           58.45919759090022       -4.72845994145153       -1.23944736945908
H           53.55404040976951       -7.58802203799195       -2.52057102225487
H           53.52866241666888      -10.00099901997536       -3.09482782491488
H           57.64104790120884      -10.33118347035474       -2.28008607848237
H           57.77076551650424       -7.92646688698707       -1.68575131999417
H           53.04050082379386       -4.48351453254465       -1.75851533892434
H           51.21629418139064       -2.71660443864103       -1.28935483805799
H           51.52090656571751        2.00500195453075        1.26334457907722
H           53.47634175036440        3.81382261361484        1.75395469852999
H           53.92092073912585        7.18319611595449        2.05265057652416
H           53.98390509102347        9.59752186144069        2.61796140851246
H           58.14050687476363        9.72627392291091        2.00093762375966
H           58.18290113769386        7.31522202102539        1.41976819534522
H           58.75086629630184        4.15122910815624        0.63523599305109
H           60.45437583401387        2.26869502851380        0.09501294581193
C           40.42502059271108       -0.30417770812971       -0.19955746674952
C           41.63763370701304       -0.32916375816449       -0.21336055938649
C           49.90813264702133       -0.33332724771327       -0.22489618571474
C           51.12838214538441       -0.29044220002618       -0.18551501902856
Ni          45.83018000451769        0.44827824361123        0.37631399923888
C           42.43196584450450        0.57689927847731        0.40691959763068
C           43.06382836084172        1.17528074078890       -0.65246560984783
C           42.37052974139878        1.70301674636104       -1.81120399581347
C           43.30851367608133        1.98296820113203       -2.71880637813758
C           44.59989916087154        1.66231013002307       -2.13662837089480
N           44.43871014184508        1.15160029573089       -0.84051330118688
C           45.79762514145388        1.84744149529743       -2.76824682348864
C           45.79086073621612        2.24545686929398       -4.14061172037670
C           45.78154222768860        2.53268453564307       -5.31977606144317
C           45.76130827680903        2.83301693206081       -6.71652246050489
C           46.70424743638955        2.26244611945840       -7.57724264182877
C           46.64573202726601        2.55910245437990       -8.93460473549513
N           45.69646603804736        3.37759486448390       -9.42849272818865
C           44.77467497528821        3.92771111348385       -8.61394934139326
C           44.78001910984300        3.67782803353601       -7.24657855551048
C           47.07937833111852        1.65666425233908       -2.12466712833128
C           48.34229298219667        2.13230119811884       -2.65650849400509
C           49.30494763714704        1.79840526394048       -1.78125989370482
N           47.24592929516952        1.07052536533045       -0.95180004684081
C           48.61462316532721        1.13813895724938       -0.70493372111422
C           49.17194548885511        0.57909777903292        0.41725766817029
C           48.48868006282388       -0.16295988784484        1.45265032356883
C           49.12182237516673       -0.82488033598569        2.45822810003874
C           48.11936614522723       -1.54798366483423        3.15842458601435
C           46.93383176045080       -1.30401001158998        2.53437051157796
N           47.11516437907779       -0.41931489142549        1.44784041660979
C           45.66567456736929       -1.90319782194314        2.94295878842650
C           45.67928386392543       -3.08631256090024        3.75143646924313
C           45.70602652773160       -4.13250601505613        4.36975325869753
C           45.76639996444002       -5.40652434246414        5.01469602677481
C           44.60027296596538       -6.04606316639475        5.44618882974056
C           44.67960557191829       -7.36319040185116        5.88340956755001
N           45.85512198681170       -8.01946119377240        5.91425215252742
C           46.99333926975785       -7.40694259475358        5.54156706437362
C           46.98375772810155       -6.09476500181447        5.08922092774545
C           44.47041744353576       -1.41279780528549        2.53128891150328
C           43.16445480295338       -1.89191541844325        2.94247608895221
C           42.26897119667336       -1.15849863756221        2.27153971157986
C           43.02854184334097       -0.23051505001710        1.44133878570047
N           44.32095959493284       -0.37560988514402        1.58604869554282
H           41.31127705884569        1.86386234541564       -1.95394842734869
H           43.11623796950987        2.41205506690528       -3.68610680220857
H           47.46778605972258        1.59391259003860       -7.19513053544125
H           47.38076537679294        2.12853281864941       -9.61178611716537
H           44.01472496653093        4.57945860194569       -9.04039557772424
H           44.02648667492535        4.12179787762983       -6.60562303824147
H           48.50206580047360        2.66909014575295       -3.57332113616309
H           50.35917553145553        2.01647187199964       -1.89673998280755
H           50.18122076902130       -0.83102621094874        2.67049326148314
H           48.26334571934367       -2.18384402622538        4.01911306043232
H           43.64093667106327       -5.53938424152529        5.38430173432849
H           43.77291847315180       -7.88966108547762        6.17469014541982
H           47.92808580490303       -7.96233924441479        5.56288788367464
H           47.90083615853555       -5.62984468433576        4.74614744086088
H           42.93080018165559       -2.67868989600946        3.64717502925192
H           41.19651885913693       -1.26758628152451        2.34920467069661
177
 energy: -320.163835163708 gnorm: 0.158427601635 xtb: 6.5.1 (b24c23e)
Ni          35.68010382841231       -0.28049364432033       -0.20051194703893
C           32.30083693645705       -0.17835923989369       -0.18179704500482
C           32.97852002876027        0.63572605580352        0.69531826629555
C           32.31707178122156        1.50886314044534        1.64071960808106
C           33.28157512341588        2.16886166576920        2.30993396640164
C           34.55531820211514        1.71747977111213        1.78618454784791
N           34.35258708758452        0.77434875869747        0.79334803659404
C           35.78503790154405        2.21617851988532        2.20900522327866
C           35.80574230724287        3.21323759314174        3.22035678323548
C           35.83476416339291        4.06345527073564        4.09027725060912
C           35.87765455778730        5.06016622781717        5.10348871724261
C           37.07552749973230        5.71693226324449        5.41734394753390
C           37.07105306165396        6.68147457484453        6.41170804564298
N           35.96490969258588        7.00875196769956        7.08440158791437
C           34.81652091051448        6.39124363146364        6.79631564775960
C           34.72526841560715        5.41507502349856        5.81760697125677
C           37.02365151436395        1.78616658562485        1.66899403435195
C           38.30360068972725        2.38010098085751        1.97601043434622
C           39.24963518412819        1.68685741831090        1.29494453071434
N           37.16895731775694        0.75984160519644        0.81006999057227
C           38.52126327934422        0.66948573490984        0.57407557247848
C           39.03883758237414       -0.33187161279495       -0.21484824786446
C           38.35142659714480       -1.32711354478658       -0.92002726173929
C           38.97077438215214       -2.44780973360847       -1.48589491419193
C           37.98078795635659       -3.13782914217096       -2.15040858264287
C           36.78340145358815       -2.42872967702562       -1.98718256526836
N           37.00190649247806       -1.30907380011722       -1.19040478553626