      -----------------------------------------------------------      
     |                   =====================                   |     
     |                           x T B                           |     
     |                   =====================                   |     
     |                         S. Grimme                         |     
     |          Mulliken Center for Theoretical Chemistry        |     
     |                    University of Bonn                     |     
      -----------------------------------------------------------      

   * xtb version 6.5.1 (b24c23e) compiled by 'conda@728c89f4b128' on 2022-07-12

   xtb is free software: you can redistribute it and/or modify it under
   the terms of the GNU Lesser General Public License as published by
   the Free Software Foundation, either version 3 of the License, or
   (at your option) any later version.
   
   xtb is distributed in the hope that it will be useful,
   but WITHOUT ANY WARRANTY; without even the implied warranty of
   MERCHANTABILITY or FITNESS FOR A PARTICULAR PURPOSE.  See the
   GNU Lesser General Public License for more details.
   
   Cite this work as:
   * C. Bannwarth, E. Caldeweyher, S. Ehlert, A. Hansen, P. Pracht,
     J. Seibert, S. Spicher, S. Grimme, WIREs Comput. Mol. Sci., 2020, 11,
     e01493. DOI: 10.1002/wcms.1493
   
   for GFN2-xTB:
   * C. Bannwarth, S. Ehlert and S. Grimme., J. Chem. Theory Comput., 2019,
     15, 1652-1671. DOI: 10.1021/acs.jctc.8b01176
   for GFN1-xTB:
   * S. Grimme, C. Bannwarth, P. Shushkov, J. Chem. Theory Comput., 2017,
     13, 1989-2009. DOI: 10.1021/acs.jctc.7b00118
   for GFN0-xTB:
   * P. Pracht, E. Caldeweyher, S. Ehlert, S. Grimme, ChemRxiv, 2019, preprint.
     DOI: 10.26434/chemrxiv.8326202.v1
   for GFN-FF:
   * S. Spicher and S. Grimme, Angew. Chem. Int. Ed., 2020, 59, 15665-15673.
     DOI: 10.1002/anie.202004239
   
   for ALPB and GBSA implicit solvation:
   * S. Ehlert, M. Stahn, S. Spicher, S. Grimme, J. Chem. Theory Comput.,
     2021, 17, 4250-4261. DOI: 10.1021/acs.jctc.1c00471
   
   for DFT-D4:
   * E. Caldeweyher, C. Bannwarth and S. Grimme, J. Chem. Phys., 2017,
     147, 034112. DOI: 10.1063/1.4993215
   * E. Caldeweyher, S. Ehlert, A. Hansen, H. Neugebauer, S. Spicher,
     C. Bannwarth and S. Grimme, J. Chem. Phys., 2019, 150, 154122.
     DOI: 10.1063/1.5090222
   * E. Caldeweyher, J.-M. Mewes, S. Ehlert and S. Grimme, Phys. Chem. Chem. Phys.
     2020, 22, 8499-8512. DOI: 10.1039/D0CP00502A
   
   for sTDA-xTB:
   * S. Grimme and C. Bannwarth, J. Chem. Phys., 2016, 145, 054103.
     DOI: 10.1063/1.4959605
   
   in the mass-spec context:
   * V. Asgeirsson, C. Bauer and S. Grimme, Chem. Sci., 2017, 8, 4879.
     DOI: 10.1039/c7sc00601b
   * J. Koopman and S. Grimme, ACS Omega 2019, 4, 12, 15120-15133.
     DOI: 10.1021/acsomega.9b02011
   
   for metadynamics refer to:
   * S. Grimme, J. Chem. Theory Comput., 2019, 155, 2847-2862
     DOI: 10.1021/acs.jctc.9b00143
   
   for SPH calculations refer to:
   * S. Spicher and S. Grimme, J. Chem. Theory Comput., 2021, 17, 1701-1714
     DOI: 10.1021/acs.jctc.0c01306
   
   with help from (in alphabetical order)
   P. Atkinson, C. Bannwarth, F. Bohle, G. Brandenburg, E. Caldeweyher
   M. Checinski, S. Dohm, S. Ehlert, S. Ehrlich, I. Gerasimov, C. Hölzer
   A. Katbashev, J. Koopman, C. Lavigne, S. Lehtola, F. März, M. Müller,
   F. Musil, H. Neugebauer, J. Pisarek, C. Plett, P. Pracht, F. Pultar,
   J. Seibert, P. Shushkov, S. Spicher, M. Stahn, M. Steiner, T. Strunk,
   J. Stückrath, T. Rose, and J. Unsleber
   
 * started run on 2022/07/29 at 19:38:22.051     

           -------------------------------------------------
          |                Calculation Setup                |
           -------------------------------------------------

          program call               : xtb xtbopt.xyz --gfn 1 --vipea
          hostname                   : cx3-14-28.cx3.hpc.ic.ac.uk
          coordinate file            : xtbopt.xyz
          omp threads                :                     1

   ID    Z sym.   atoms
    1   26 Fe     1, 57
    2    6 C      2-6, 8-11, 13-29, 32-37, 58-62, 64-67, 69-85, 88-93, 113-116
    3    7 N      7, 12, 30, 31, 63, 68, 86, 87
    4    1 H      38-56, 94-112

           -------------------------------------------------
          |                 I P E A - x T B                 |
           -------------------------------------------------

        Reference                      10.1039/c7sc00601b
      * Hamiltonian:
        H0-scaling (s, p, d)           2.150000    2.300000    2.000000
        zeta-weighting                 0.000000
      * Dispersion:
        s8                             2.400000
        a1                             0.630000
        a2                             5.000000
        s9                             0.000000
      * Repulsion:
        kExp                           1.500000
        rExp                           1.000000
      * Coulomb:
        alpha                          1.000000
        third order                    atomic
        anisotropic                    false
      * Halogen bond correction:
        rad-scale                      1.300000
        damping                        0.440000


          ...................................................
          :                      SETUP                      :
          :.................................................:
          :  # basis functions                 476          :
          :  # atomic orbitals                 474          :
          :  # shells                          310          :
          :  # electrons                       366          :
          :  # halogen bonds                     0          :
          :  max. iterations                   250          :
          :  Hamiltonian                  GFN1-xTB          :
          :  restarted?                      false          :
          :  GBSA solvation                  false          :
          :  PC potential                    false          :
          :  electronic temp.          300.0000000     K    :
          :  accuracy                    1.0000000          :
          :  -> integral cutoff          0.2500000E+02      :
          :  -> integral neglect         0.1000000E-07      :
          :  -> SCF convergence          0.1000000E-05 Eh   :
          :  -> wf. convergence          0.2000000E-04 e    :
          :  Broyden damping             0.4000000          :
          ...................................................

 iter      E             dE          RMSdq      gap      omega  full diag
   1   -212.8466292 -0.212847E+03  0.119E+01    0.18       0.0  T
   2   -161.9624618  0.508842E+02  0.129E+01    0.08       1.0  T
   3   -222.9174926 -0.609550E+02  0.585E+00    0.11       1.0  T
   4   -203.0804373  0.198371E+02  0.945E+00    0.81       1.0  T
   5   -217.4233885 -0.143430E+02  0.573E+00    0.07       1.0  T
   6   -224.1668701 -0.674348E+01  0.254E+00    0.00       1.0  T
   7   -223.0394850  0.112739E+01  0.304E+00    0.03       1.0  T
   8   -222.4084965  0.630988E+00  0.391E+00    0.23       1.0  T
   9   -222.3865504  0.219461E-01  0.398E+00    0.59       1.0  T
  10   -222.8338505 -0.447300E+00  0.356E+00    0.19       1.0  T
  11   -224.3854103 -0.155156E+01  0.233E+00    0.01       1.0  T
  12   -224.3426839  0.427263E-01  0.228E+00    0.01       1.0  T
  13   -225.8735236 -0.153084E+01  0.118E+00    0.02       1.0  T
  14   -223.9588868  0.191464E+01  0.263E+00    0.00       1.0  T
  15   -225.9103419 -0.195146E+01  0.110E+00    0.02       1.0  T
  16   -225.5145588  0.395783E+00  0.152E+00    0.00       1.0  T
  17   -226.2541817 -0.739623E+00  0.255E-01    0.03       1.0  T
  18   -226.1897459  0.644358E-01  0.528E-01    0.02       1.0  T
  19   -226.2710281 -0.812823E-01  0.157E-01    0.03       1.0  T
  20   -226.2672154  0.381278E-02  0.183E-01    0.03       1.0  T
  21   -226.2769319 -0.971652E-02  0.435E-02    0.03       1.0  T
  22   -226.2725483  0.438363E-02  0.126E-01    0.03       1.0  T
  23   -226.2303024  0.422458E-01  0.376E-01    0.02       1.0  T
  24   -226.2768215 -0.465190E-01  0.481E-02    0.03       1.0  T
  25   -226.2770600 -0.238511E-03  0.401E-02    0.03       1.0  T
  26   -226.2775836 -0.523641E-03  0.606E-03    0.03       1.5  T
  27   -226.2775687  0.149351E-04  0.899E-03    0.03       1.0  T
  28   -226.2775770 -0.827708E-05  0.789E-03    0.03       1.2  T
  29   -226.2774166  0.160394E-03  0.232E-02    0.03       1.0  T
  30   -226.2775964 -0.179875E-03  0.133E-03    0.03       7.0  T
  31   -226.2775958  0.675836E-06  0.196E-03    0.03       4.7  T
  32   -226.2775941  0.169312E-05  0.299E-03    0.03       3.1  T
  33   -226.2775934  0.616563E-06  0.327E-03    0.03       2.8  T
  34   -226.2775970 -0.354083E-05  0.244E-04    0.03      38.1  T
  35   -226.2775969  0.103063E-06  0.608E-04    0.03      15.3  T
  36   -226.2775970 -0.122987E-06  0.327E-05    0.03     284.2  T
  37   -226.2775970  0.210179E-09  0.422E-05    0.03     220.3  T

   *** convergence criteria satisfied after 37 iterations ***

         #    Occupation            Energy/Eh            Energy/eV
      -------------------------------------------------------------
         1        2.0000           -1.0216809             -27.8014
       ...           ...                  ...                  ...
       177        2.0000           -0.3794022             -10.3241
       178        1.9297           -0.3521902              -9.5836
       179        1.9272           -0.3521551              -9.5826
       180        1.6772           -0.3506085              -9.5405
       181        1.5497           -0.3502173              -9.5299
       182        1.5472           -0.3502106              -9.5297
       183        1.4875           -0.3500554              -9.5255 (HOMO)
       184        0.9420           -0.3489327              -9.4949 (LUMO)
       185        0.9396           -0.3489282              -9.4948
       186                         -0.3164913              -8.6122
       187                         -0.3026414              -8.2353
       188                         -0.3026380              -8.2352
       ...                                ...                  ...
       474                        517.6627106           14086.3193
      -------------------------------------------------------------
                  HL-Gap            0.0011226 Eh            0.0305 eV
             Fermi-level           -0.3490431 Eh           -9.4979 eV

 SCC (total)                   0 d,  0 h,  0 min,  4.915 sec
 SCC setup                      ...        0 min,  0.003 sec (  0.067%)
 Dispersion                     ...        0 min,  0.005 sec (  0.102%)
 classical contributions        ...        0 min,  0.002 sec (  0.042%)
 integral evaluation            ...        0 min,  0.459 sec (  9.329%)
 iterations                     ...        0 min,  3.238 sec ( 65.880%)
 molecular gradient             ...        0 min,  1.186 sec ( 24.122%)
 printout                       ...        0 min,  0.023 sec (  0.458%)

         :::::::::::::::::::::::::::::::::::::::::::::::::::::
         ::                     SUMMARY                     ::
         :::::::::::::::::::::::::::::::::::::::::::::::::::::
         :: total energy            -221.727505541220 Eh    ::
         :: gradient norm              0.122354513522 Eh/a0 ::
         :: HOMO-LUMO gap              0.030548291223 eV    ::
         ::.................................................::
         :: SCC energy              -226.277597009099 Eh    ::
         :: -> electrostatic           0.116955372920 Eh    ::
         :: repulsion energy           4.654726241322 Eh    ::
         :: dispersion energy         -0.104634773443 Eh    ::
         :: halogen bond corr.         0.000000000000 Eh    ::
         :: add. restraining           0.000000000000 Eh    ::
         :: total charge               0.000000000000 e     ::
         :::::::::::::::::::::::::::::::::::::::::::::::::::::

           ------------------------------------------------- 
          |        vertical delta SCC IP calculation        |
           ------------------------------------------------- 
   1   -225.7863601 -0.225786E+03  0.596E-01    0.03       0.0  T
   2   -221.6532223  0.413314E+01  0.373E+00    0.00       1.0  T
   3   -225.7654247 -0.411220E+01  0.612E-01    0.04       1.0  T
   4   -225.5005885  0.264836E+00  0.105E+00    0.00       1.0  T
   5   -224.8233388  0.677250E+00  0.172E+00    0.00       1.0  T
   6   -225.8382225 -0.101488E+01  0.392E-01    0.01       1.0  T
   7   -225.8582734 -0.200509E-01  0.289E-01    0.01       1.0  T
   8   -225.8682120 -0.993859E-02  0.229E-01    0.00       1.0  T
   9   -225.8701365 -0.192444E-02  0.212E-01    0.00       1.0  T
  10   -225.8719150 -0.177856E-02  0.196E-01    0.00       1.0  T
  11   -225.8822870 -0.103719E-01  0.754E-02    0.00       1.0  T
  12   -225.8552029  0.270841E-01  0.293E-01    0.01       1.0  T
  13   -225.8355398  0.196631E-01  0.378E-01    0.01       1.0  T
  14   -225.8434827 -0.794286E-02  0.346E-01    0.01       1.0  T
  15   -225.8786474 -0.351647E-01  0.127E-01    0.00       1.0  T
  16   -225.8729549  0.569249E-02  0.182E-01    0.00       1.0  T
  17   -225.8796060 -0.665113E-02  0.116E-01    0.00       1.0  T
  18   -225.8833031 -0.369706E-02  0.495E-02    0.00       1.0  T
  19   -225.8841178 -0.814682E-03  0.732E-03    0.00       1.3  T
  20   -225.8841244 -0.668860E-05  0.575E-03    0.00       1.6  T
  21   -225.8841342 -0.975281E-05  0.204E-03    0.00       4.5  T
  22   -225.8841351 -0.954297E-06  0.117E-03    0.00       8.0  T
  23   -225.8841353 -0.128665E-06  0.988E-04    0.00       9.4  T
  24   -225.8841356 -0.322429E-06  0.147E-04    0.00      63.1  T
  25   -225.8841356 -0.396335E-08  0.101E-04    0.00      92.0  T
     SCC iter.                  ...        0 min,  2.187 sec
     gradient                   ...        0 min,  1.017 sec
------------------------------------------------------------------------
empirical IP shift (eV):    4.8455
delta SCC IP (eV):    5.8611
------------------------------------------------------------------------
           ------------------------------------------------- 
          |        vertical delta SCC EA calculation        |
           ------------------------------------------------- 
   1   -226.2283256 -0.226228E+03  0.120E+00    0.00       0.0  T
   2   -193.5714125  0.326569E+02  0.804E+00    0.24       1.0  T
   3   -226.2239127 -0.326525E+02  0.115E+00    0.00       1.0  T
   4   -225.7518565  0.472056E+00  0.171E+00    0.00       1.0  T
   5   -225.6968685  0.549880E-01  0.177E+00    0.00       1.0  T
   6   -226.3968818 -0.700013E+00  0.828E-01    0.00       1.0  T
   7   -226.4791445 -0.822627E-01  0.607E-01    0.00       1.0  T
   8   -226.5405284 -0.613839E-01  0.397E-01    0.00       1.0  T
   9   -226.5617993 -0.212709E-01  0.282E-01    0.00       1.0  T
  10   -226.5794482 -0.176489E-01  0.124E-01    0.00       1.0  T
  11   -226.5838832 -0.443497E-02  0.133E-02    0.00       1.0  T
  12   -226.5839016 -0.184020E-04  0.964E-03    0.00       1.0  T
  13   -226.5839183 -0.167556E-04  0.540E-03    0.00       1.7  T
  14   -226.5839235 -0.515932E-05  0.349E-03    0.00       2.7  T
  15   -226.5839157  0.780980E-05  0.590E-03    0.00       1.6  T
  16   -226.5839218 -0.611687E-05  0.406E-03    0.00       2.3  T
  17   -226.5839273 -0.546999E-05  0.619E-04    0.00      15.0  T
  18   -226.5839266  0.647616E-06  0.151E-03    0.00       6.2  T
  19   -226.5839274 -0.757284E-06  0.615E-05    0.00     151.0  T
  20   -226.5839272  0.193616E-06  0.767E-04    0.00      12.1  T
  21   -226.5839273 -0.954448E-07  0.547E-04    0.00      17.0  T
  22   -226.5839274 -0.686007E-07  0.306E-04    0.00      30.4  T
  23   -226.5839274 -0.205618E-07  0.174E-04    0.00      53.3  T
     SCC iter.                  ...        0 min,  1.597 sec
     gradient                   ...        0 min,  0.888 sec
------------------------------------------------------------------------
empirical EA shift (eV):    4.8455
delta SCC EA (eV):    3.4902
------------------------------------------------------------------------
           -------------------------------------------------
          |                Property Printout                |
           -------------------------------------------------

    * Orbital Energies and Occupations

         #    Occupation            Energy/Eh            Energy/eV
      -------------------------------------------------------------
         1        2.0000           -0.9480138             -25.7968
       ...           ...                  ...                  ...
       172        2.0000           -0.3551605              -9.6644
       173        2.0000           -0.3488239              -9.4920
       174        2.0000           -0.3244682              -8.8292
       175        2.0000           -0.3193244              -8.6893
       176        2.0000           -0.3193172              -8.6891
       177        2.0000           -0.3078267              -8.3764
       178        1.9547           -0.2685261              -7.3070
       179        1.8848           -0.2675947              -7.2816
       180        1.8844           -0.2675909              -7.2815
       181        1.8653           -0.2674330              -7.2772
       182        1.8595           -0.2673888              -7.2760
       183        1.8268           -0.2671678              -7.2700
       184        0.8625           -0.2644825              -7.1969 (HOMO)
       185        0.8621           -0.2644815              -7.1969 (LUMO)
       186                         -0.2424813              -6.5983
       187                         -0.2305026              -6.2723
       188                         -0.2304974              -6.2722
       189                         -0.2255602              -6.1378
       190                         -0.1940754              -5.2811
       191                         -0.1845270              -5.0212
       192                         -0.1680270              -4.5722
       193                         -0.1626181              -4.4251
       194                         -0.1625860              -4.4242
       195                         -0.1625596              -4.4235
       ...                                ...                  ...
       474                        517.7326813           14088.2233
      -------------------------------------------------------------
                  HL-Gap            0.0000010 Eh            0.0000 eV
             Fermi-level           -0.2647732 Eh           -7.2048 eV

  Mulliken/CM5 charges         n(s)   n(p)   n(d)
     1Fe   -0.08448  0.34785   0.537  1.374  6.173
     2C    -0.02116 -0.06264   1.080  2.941  0.000
     3C     0.05934  0.11971   1.106  2.834  0.000
     4C    -0.04392 -0.09039   1.083  2.961  0.000
     5C    -0.04103 -0.08699   1.077  2.964  0.000
     6C     0.06115  0.12532   1.101  2.838  0.000
     7N    -0.17499 -0.44220   1.316  3.859  0.000
     8C     0.01011  0.01527   1.081  2.909  0.000
     9C     0.06090  0.12403   1.099  2.840  0.000
    10C    -0.03907 -0.08503   1.076  2.963  0.000
    11C    -0.03956 -0.08509   1.081  2.958  0.000
    12N    -0.17262 -0.43878   1.316  3.856  0.000
    13C     0.06605  0.13141   1.113  2.821  0.000
    14C     0.01967  0.02637   1.076  2.904  0.000
    15C     0.06594  0.13124   1.112  2.822  0.000
    16C    -0.03952 -0.08506   1.081  2.959  0.000
    17C    -0.03897 -0.08503   1.076  2.963  0.000
    18C     0.06089  0.12404   1.100  2.839  0.000
    19C     0.00949  0.01464   1.081  2.909  0.000
    20C     0.00844 -0.00047   1.087  2.905  0.000
    21C    -0.02286 -0.07634   1.079  2.944  0.000
    22C    -0.02987 -0.08568   1.086  2.944  0.000
    23C    -0.03224 -0.08807   1.086  2.946  0.000
    24C    -0.02912 -0.08492   1.086  2.943  0.000
    25C    -0.02211 -0.07554   1.079  2.943  0.000
    26C     0.06127  0.12543   1.102  2.837  0.000
    27C    -0.04077 -0.08686   1.077  2.964  0.000
    28C    -0.04376 -0.09025   1.083  2.961  0.000
    29C     0.05940  0.11974   1.106  2.834  0.000
    30N    -0.17496 -0.44172   1.315  3.860  0.000
    31N    -0.17257 -0.43940   1.317  3.856  0.000
    32C     0.00879 -0.00019   1.087  2.904  0.000
    33C    -0.02297 -0.07643   1.078  2.945  0.000
    34C    -0.02963 -0.08544   1.086  2.943  0.000
    35C    -0.03243 -0.08827   1.085  2.947  0.000
    36C    -0.02930 -0.08510   1.087  2.943  0.000
    37C    -0.02266 -0.07608   1.079  2.944  0.000
    38H     0.02012  0.07909   0.980  0.000  0.000
    39H     0.02194  0.07855   0.978  0.000  0.000
    40H     0.01536  0.07429   0.985  0.000  0.000
    41H     0.01786  0.07682   0.982  0.000  0.000
    42H     0.02215  0.08033   0.978  0.000  0.000
    43H     0.02207  0.08020   0.978  0.000  0.000
    44H     0.01726  0.07618   0.983  0.000  0.000
    45H     0.01911  0.07698   0.981  0.000  0.000
    46H     0.02311  0.07898   0.977  0.000  0.000
    47H     0.02297  0.07880   0.977  0.000  0.000
    48H     0.02454  0.08040   0.975  0.000  0.000
    49H     0.02047  0.07831   0.980  0.000  0.000
    50H     0.01481  0.07373   0.985  0.000  0.000
    51H     0.02201  0.07861   0.978  0.000  0.000
    52H     0.01929  0.07691   0.981  0.000  0.000
    53H     0.02334  0.07920   0.977  0.000  0.000
    54H     0.02290  0.07874   0.977  0.000  0.000
    55H     0.02399  0.07985   0.976  0.000  0.000
    56H     0.01989  0.07753   0.980  0.000  0.000
    57Fe   -0.08420  0.34824   0.537  1.374  6.173
    58C    -0.02116 -0.06264   1.080  2.941  0.000
    59C     0.05934  0.11971   1.106  2.834  0.000
    60C    -0.04392 -0.09039   1.083  2.961  0.000
    61C    -0.04103 -0.08699   1.077  2.964  0.000
    62C     0.06115  0.12533   1.101  2.838  0.000
    63N    -0.17498 -0.44223   1.316  3.859  0.000
    64C     0.01011  0.01527   1.081  2.909  0.000
    65C     0.06090  0.12403   1.099  2.840  0.000
    66C    -0.03907 -0.08502   1.076  2.963  0.000
    67C    -0.03956 -0.08508   1.081  2.958  0.000
    68N    -0.17263 -0.43881   1.316  3.856  0.000
    69C     0.06604  0.13140   1.113  2.821  0.000
    70C     0.01967  0.02637   1.076  2.904  0.000
    71C     0.06595  0.13124   1.112  2.822  0.000
    72C    -0.03952 -0.08505   1.081  2.959  0.000
    73C    -0.03897 -0.08503   1.076  2.963  0.000
    74C     0.06088  0.12403   1.100  2.839  0.000
    75C     0.00949  0.01463   1.081  2.909  0.000
    76C     0.00844 -0.00047   1.087  2.905  0.000
    77C    -0.02286 -0.07634   1.079  2.944  0.000
    78C    -0.02987 -0.08568   1.086  2.944  0.000
    79C    -0.03223 -0.08807   1.086  2.946  0.000
    80C    -0.02912 -0.08492   1.086  2.943  0.000
    81C    -0.02211 -0.07554   1.079  2.943  0.000
    82C     0.06128  0.12543   1.102  2.837  0.000
    83C    -0.04077 -0.08686   1.077  2.964  0.000
    84C    -0.04376 -0.09025   1.083  2.961  0.000
    85C     0.05940  0.11974   1.106  2.834  0.000
    86N    -0.17495 -0.44175   1.315  3.860  0.000
    87N    -0.17258 -0.43942   1.317  3.856  0.000
    88C     0.00879 -0.00018   1.087  2.904  0.000
    89C    -0.02297 -0.07643   1.078  2.945  0.000
    90C    -0.02963 -0.08544   1.086  2.943  0.000
    91C    -0.03243 -0.08827   1.085  2.947  0.000
    92C    -0.02930 -0.08510   1.087  2.943  0.000
    93C    -0.02266 -0.07609   1.079  2.944  0.000
    94H     0.02012  0.07909   0.980  0.000  0.000
    95H     0.02194  0.07855   0.978  0.000  0.000
    96H     0.01536  0.07429   0.985  0.000  0.000
    97H     0.01786  0.07682   0.982  0.000  0.000
    98H     0.02215  0.08033   0.978  0.000  0.000
    99H     0.02206  0.08019   0.978  0.000  0.000
   100H     0.01725  0.07617   0.983  0.000  0.000
   101H     0.01911  0.07698   0.981  0.000  0.000
   102H     0.02311  0.07898   0.977  0.000  0.000
   103H     0.02297  0.07880   0.977  0.000  0.000
   104H     0.02454  0.08040   0.975  0.000  0.000
   105H     0.02047  0.07832   0.980  0.000  0.000
   106H     0.01480  0.07372   0.985  0.000  0.000
   107H     0.02200  0.07861   0.978  0.000  0.000
   108H     0.01929  0.07692   0.981  0.000  0.000
   109H     0.02334  0.07920   0.977  0.000  0.000
   110H     0.02290  0.07874   0.977  0.000  0.000
   111H     0.02398  0.07985   0.976  0.000  0.000
   112H     0.01989  0.07753   0.980  0.000  0.000
   113C    -0.02427 -0.02511   1.062  2.962  0.000
   114C    -0.01989 -0.02162   1.091  2.929  0.000
   115C    -0.02427 -0.02511   1.062  2.962  0.000
   116C    -0.01989 -0.02162   1.091  2.929  0.000

Wiberg/Mayer (AO) data.
largest (>0.10) Wiberg bond orders for each atom

 ---------------------------------------------------------------------------
     #   Z sym  total        # sym  WBO       # sym  WBO       # sym  WBO
 ---------------------------------------------------------------------------
     1  26 Fe   4.458 --    30 N    0.868     7 N    0.867    12 N    0.861
                            31 N    0.860
     2   6 C    3.842 --    29 C    1.393     3 C    1.392    38 H    0.997
     3   6 C    3.949 --     2 C    1.392     7 N    1.223     4 C    1.205
     4   6 C    3.858 --     5 C    1.634     3 C    1.205    39 H    0.994
     5   6 C    3.835 --     4 C    1.634     6 C    1.211    40 H    1.000
     6   6 C    3.928 --     8 C    1.364     7 N    1.226     5 C    1.211
     7   7 N    3.113 --     6 C    1.226     3 C    1.223     1 Fe   0.867
     8   6 C    3.844 --     9 C    1.373     6 C    1.364    32 C    1.040
     9   6 C    3.920 --     8 C    1.373    10 C    1.216    12 N    1.215
    10   6 C    3.830 --    11 C    1.623     9 C    1.216    41 H    0.999
    11   6 C    3.849 --    10 C    1.623    13 C    1.227    42 H    0.999
    12   7 N    3.120 --    13 C    1.248     9 C    1.215     1 Fe   0.861
    13   6 C    3.928 --    14 C    1.303    12 N    1.248    11 C    1.227
    14   6 C    3.864 --    13 C    1.303    15 C    1.302   114 C    1.213
    15   6 C    3.928 --    14 C    1.302    31 N    1.247    16 C    1.228
    16   6 C    3.848 --    17 C    1.620    15 C    1.228    43 H    0.999
    17   6 C    3.830 --    16 C    1.620    18 C    1.218    44 H    0.999
    18   6 C    3.921 --    19 C    1.369    17 C    1.218    31 N    1.217
    19   6 C    3.845 --    18 C    1.369    26 C    1.364    20 C    1.047
    20   6 C    3.894 --    25 C    1.426    21 C    1.425    19 C    1.047
    21   6 C    3.869 --    22 C    1.447    20 C    1.425    45 H    0.990
    22   6 C    3.912 --    21 C    1.447    23 C    1.441    46 H    0.983
    23   6 C    3.904 --    24 C    1.441    22 C    1.441    47 H    0.985
    24   6 C    3.912 --    25 C    1.447    23 C    1.441    48 H    0.982
    25   6 C    3.870 --    24 C    1.447    20 C    1.426    49 H    0.989
    26   6 C    3.929 --    19 C    1.364    30 N    1.227    27 C    1.211
    27   6 C    3.835 --    28 C    1.634    26 C    1.211    50 H    1.000
    28   6 C    3.857 --    27 C    1.634    29 C    1.205    51 H    0.994
    29   6 C    3.949 --     2 C    1.393    30 N    1.223    28 C    1.205
    30   7 N    3.113 --    26 C    1.227    29 C    1.223     1 Fe   0.868
    31   7 N    3.120 --    15 C    1.247    18 C    1.217     1 Fe   0.860
    32   6 C    3.894 --    33 C    1.429    37 C    1.429     8 C    1.040
    33   6 C    3.870 --    34 C    1.446    32 C    1.429    52 H    0.989
    34   6 C    3.912 --    33 C    1.446    35 C    1.442    53 H    0.983
    35   6 C    3.906 --    34 C    1.442    36 C    1.442    54 H    0.985
    36   6 C    3.912 --    37 C    1.446    35 C    1.442    55 H    0.983
    37   6 C    3.871 --    36 C    1.446    32 C    1.429    56 H    0.989
    38   1 H    1.037 --     2 C    0.997
    39   1 H    1.029 --     4 C    0.994
    40   1 H    1.046 --     5 C    1.000
    41   1 H    1.045 --    10 C    0.999
    42   1 H    1.036 --    11 C    0.999
    43   1 H    1.036 --    16 C    0.999
    44   1 H    1.046 --    17 C    0.999
    45   1 H    1.059 --    21 C    0.990
    46   1 H    1.037 --    22 C    0.983
    47   1 H    1.032 --    23 C    0.985
    48   1 H    1.037 --    24 C    0.982
    49   1 H    1.059 --    25 C    0.989
    50   1 H    1.048 --    27 C    1.000
    51   1 H    1.029 --    28 C    0.994
    52   1 H    1.058 --    33 C    0.989
    53   1 H    1.037 --    34 C    0.983
    54   1 H    1.031 --    35 C    0.985
    55   1 H    1.037 --    36 C    0.983
    56   1 H    1.059 --    37 C    0.989
    57  26 Fe   4.458 --    86 N    0.868    63 N    0.867    68 N    0.861
                            87 N    0.860
    58   6 C    3.842 --    85 C    1.393    59 C    1.392    94 H    0.997
    59   6 C    3.949 --    58 C    1.392    63 N    1.223    60 C    1.205
    60   6 C    3.858 --    61 C    1.634    59 C    1.205    95 H    0.994
    61   6 C    3.835 --    60 C    1.634    62 C    1.211    96 H    1.000
    62   6 C    3.928 --    64 C    1.364    63 N    1.226    61 C    1.211
    63   7 N    3.113 --    62 C    1.226    59 C    1.223    57 Fe   0.867
    64   6 C    3.844 --    65 C    1.373    62 C    1.364    88 C    1.039
    65   6 C    3.920 --    64 C    1.373    66 C    1.216    68 N    1.215
    66   6 C    3.830 --    67 C    1.623    65 C    1.216    97 H    0.999
    67   6 C    3.849 --    66 C    1.623    69 C    1.227    98 H    0.999
    68   7 N    3.120 --    69 C    1.248    65 C    1.215    57 Fe   0.861
    69   6 C    3.928 --    70 C    1.303    68 N    1.248    67 C    1.227
    70   6 C    3.864 --    69 C    1.303    71 C    1.302   116 C    1.213
    71   6 C    3.928 --    70 C    1.302    87 N    1.247    72 C    1.228
    72   6 C    3.848 --    73 C    1.620    71 C    1.228    99 H    0.999
    73   6 C    3.830 --    72 C    1.620    74 C    1.218   100 H    0.999
    74   6 C    3.921 --    75 C    1.369    73 C    1.218    87 N    1.217
    75   6 C    3.845 --    74 C    1.369    82 C    1.364    76 C    1.047
    76   6 C    3.894 --    81 C    1.426    77 C    1.425    75 C    1.047
    77   6 C    3.869 --    78 C    1.447    76 C    1.425   101 H    0.990
    78   6 C    3.912 --    77 C    1.447    79 C    1.441   102 H    0.983
    79   6 C    3.904 --    80 C    1.441    78 C    1.441   103 H    0.985
    80   6 C    3.912 --    81 C    1.447    79 C    1.441   104 H    0.982
    81   6 C    3.870 --    80 C    1.447    76 C    1.426   105 H    0.989
    82   6 C    3.929 --    75 C    1.364    86 N    1.227    83 C    1.211
    83   6 C    3.835 --    84 C    1.634    82 C    1.211   106 H    1.000
    84   6 C    3.857 --    83 C    1.634    85 C    1.205   107 H    0.994
    85   6 C    3.949 --    58 C    1.393    86 N    1.223    84 C    1.205
    86   7 N    3.113 --    82 C    1.227    85 C    1.223    57 Fe   0.868
    87   7 N    3.120 --    71 C    1.247    74 C    1.217    57 Fe   0.860
    88   6 C    3.894 --    89 C    1.429    93 C    1.429    64 C    1.039
    89   6 C    3.870 --    90 C    1.446    88 C    1.429   108 H    0.989
    90   6 C    3.912 --    89 C    1.446    91 C    1.442   109 H    0.983
    91   6 C    3.906 --    90 C    1.442    92 C    1.442   110 H    0.985
    92   6 C    3.912 --    93 C    1.446    91 C    1.442   111 H    0.983
    93   6 C    3.871 --    92 C    1.446    88 C    1.429   112 H    0.989
    94   1 H    1.037 --    58 C    0.997
    95   1 H    1.029 --    60 C    0.994
    96   1 H    1.046 --    61 C    1.000
    97   1 H    1.045 --    66 C    0.999
    98   1 H    1.036 --    67 C    0.999
    99   1 H    1.036 --    72 C    0.999
   100   1 H    1.046 --    73 C    0.999
   101   1 H    1.059 --    77 C    0.990
   102   1 H    1.037 --    78 C    0.983
   103   1 H    1.032 --    79 C    0.985
   104   1 H    1.037 --    80 C    0.982
   105   1 H    1.059 --    81 C    0.989
   106   1 H    1.048 --    83 C    1.000
   107   1 H    1.029 --    84 C    0.994
   108   1 H    1.058 --    89 C    0.989
   109   1 H    1.037 --    90 C    0.983
   110   1 H    1.031 --    91 C    0.985
   111   1 H    1.037 --    92 C    0.983
   112   1 H    1.059 --    93 C    0.989
   113   6 C    3.820 --   114 C    2.510   115 C    1.324
   114   6 C    3.805 --   113 C    2.510    14 C    1.213   116 C    0.188
   115   6 C    3.820 --   116 C    2.510   113 C    1.324
   116   6 C    3.805 --   115 C    2.510    70 C    1.213   114 C    0.188
 ---------------------------------------------------------------------------

Topologies differ in total number of bonds
Writing topology from bond orders to xtbtopo.mol

 dipole moment from electron density (au)
     X       Y       Z   
 -39.2408  -0.0020   0.0657  total (Debye):   99.740


           -------------------------------------------------
          | TOTAL ENERGY             -222.033835903883 Eh   |
          | GRADIENT NORM               0.124040474113 Eh/α |
          | HOMO-LUMO GAP               0.000026992695 eV   |
           -------------------------------------------------
########################################################################
[WARNING] Runtime exception occurred
-1- restart_readRestart: Dimension missmatch in restart file.
########################################################################

------------------------------------------------------------------------
 * finished run on 2022/07/29 at 19:38:33.932     
------------------------------------------------------------------------
 total:
 * wall-time:     0 d,  0 h,  0 min, 11.881 sec
 *  cpu-time:     0 d,  0 h,  0 min, 11.803 sec
 * ratio c/w:     0.993 speedup
 SCF:
 * wall-time:     0 d,  0 h,  0 min, 11.506 sec
 *  cpu-time:     0 d,  0 h,  0 min, 11.436 sec
 * ratio c/w:     0.994 speedup

