116
 energy: -195.418734792249 gnorm: 0.596450568153 xtb: 6.5.1 (b24c23e)
Fe          13.92092700000000        0.04870900000000        0.00435800000000
C           10.58436400000000       -0.10736100000000       -0.00605500000000
C           11.24847300000000       -1.25956500000000       -0.13388400000000
C           10.59879500000000       -2.55630600000000       -0.28427300000000
C           11.54062400000000       -3.48001900000000       -0.33166500000000
C           12.84545300000000       -2.81559800000000       -0.21219800000000
N           12.66716700000000       -1.40401900000000       -0.09176100000000
C           14.03565600000000       -3.44732400000000       -0.16701800000000
C           15.32928900000000       -2.73128700000000       -0.01655000000000
C           16.61983200000000       -3.40608500000000        0.16836200000000
C           17.55454800000000       -2.47960900000000        0.22615600000000
N           15.46990700000000       -1.44223200000000       -0.07651800000000
C           16.86941200000000       -1.20219600000000        0.07075500000000
C           17.46398600000000        0.00023300000000        0.00006600000000
C           16.70297200000000        1.25781600000000       -0.17884400000000
C           17.23994000000000        2.40288700000000       -0.58104900000000
C           16.19620500000000        3.40763800000000       -0.53899100000000
C           15.09018700000000        2.81119200000000       -0.10969700000000
C           13.80507900000000        3.51320600000000        0.14150600000000
C           13.82419900000000        4.98800700000000        0.29946600000000
C           13.16493500000000        5.81395900000000       -0.62678200000000
C           13.20363800000000        7.20407200000000       -0.48168400000000
C           13.90519300000000        7.77803200000000        0.58229100000000
C           14.57123600000000        6.96279800000000        1.50178900000000
C           14.53444200000000        5.57214500000000        1.36086600000000
C           12.64003100000000        2.84320300000000        0.23020800000000
C           11.32767200000000        3.42414000000000        0.50899200000000
C           10.46607900000000        2.42706800000000        0.45650800000000
C           11.21906100000000        1.21011900000000        0.15822500000000
N           12.48721200000000        1.44022700000000        0.02479200000000
N           15.31994600000000        1.42256600000000        0.13732600000000
C           14.07443700000000       -4.92223400000000       -0.25892500000000
C           13.97344900000000       -5.55438600000000       -1.50782100000000
C           14.01154100000000       -6.94963400000000       -1.59241300000000
C           14.15145700000000       -7.71816700000000       -0.43281300000000
C           14.25330500000000       -7.09258500000000        0.81343700000000
C           14.21492400000000       -5.69763400000000        0.90228900000000
H            9.50096300000000       -0.13596100000000       -0.00904400000000
H            9.53446900000000       -2.74602300000000       -0.33879700000000
H           11.35519100000000       -4.54188500000000       -0.42945000000000
H           16.79725100000000       -4.47093600000000        0.24046700000000
H           18.61321800000000       -2.66409300000000        0.35100700000000
H           18.26927999999999        2.57056900000000       -0.86821000000000
H           16.30905500000000        4.45428000000000       -0.79040900000000
H           12.62607600000000        5.38064800000000       -1.46046200000000
H           12.69236600000000        7.83651100000000       -1.19583800000000
H           13.93509300000000        8.85430100000000        0.69258500000000
H           15.11703700000000        7.40855900000000        2.32326100000000
H           15.05553100000000        4.95025100000000        2.07848500000000
H           11.08282700000000        4.45634900000000        0.72192900000000
H            9.39880300000000        2.50853600000000        0.61538300000000
H           13.86537400000000       -4.96683600000000       -2.41128100000000
H           13.93297700000000       -7.43509700000000       -2.55653600000000
H           14.18109500000000       -8.79798600000000       -0.49995100000000
H           14.36190200000000       -7.68859400000000        1.71029400000000
H           14.29456100000000       -5.22134900000000        1.87179900000000
Fe          27.61509400000000       -0.04838500000000        0.00224900000000
C           30.95165700000000        0.10799000000000       -0.00137700000000
C           30.28754800000000        1.26465800000000       -0.07905400000000
C           30.93722600000000        2.56670600000000       -0.17299600000000
C           29.99539700000000        3.49160600000000       -0.18023400000000
C           28.69056800000000        2.82262400000000       -0.08972900000000
N           28.86885400000000        1.40714700000000       -0.03070000000000
C           27.50036500000000        3.45179300000000       -0.01716100000000
C           26.20673200000000        2.72989700000000        0.10207300000000
C           24.91618900000000        3.39602900000000        0.31611200000000
C           23.98147300000000        2.46791800000000        0.33362200000000
N           26.06611400000000        1.44466200000000       -0.01381100000000
C           24.66660900000000        1.19845700000000        0.12290000000000
C           24.07203500000000        0.00023300000000        0.00006600000000
C           24.83304900000000       -1.24839600000000       -0.23328200000000
C           24.29608100000000       -2.37492300000000       -0.68482800000000
C           25.33981600000000       -3.38055200000000       -0.68643800000000
C           26.44583400000000       -2.80331000000000       -0.23165100000000
C           27.73094200000000       -3.51556900000000       -0.01116800000000
C           27.71182200000000       -4.99583800000000        0.08260600000000
C           28.37108600000000       -5.78079200000000       -0.87863300000000
C           28.33238300000000       -7.17589400000000       -0.79403400000000
C           27.63082800000000       -7.79551200000000        0.24401500000000
C           26.96478500000000       -7.02097300000000        1.19804500000000
C           27.00157900000000       -5.62551300000000        1.11764000000000
C           28.89599000000000       -2.85005000000000        0.10654400000000
C           30.20834900000000       -3.44254400000000        0.35983900000000
C           31.06994200000000       -2.44413300000000        0.35070000000000
C           30.31696000000000       -1.21538100000000        0.10554000000000
N           29.04880900000000       -1.43947700000000       -0.03775900000000
N           26.21607500000000       -1.42672000000000        0.07543600000000
C           27.46158399999999        4.92930200000000       -0.04493800000000
C           27.56257200000000        5.61508700000000       -1.26520700000000
C           27.52448000000000        7.01269300000000       -1.28913500000000
C           27.38456400000000        7.73014900000000       -0.09725800000000
C           27.28271600000000        7.05104200000000        1.12065300000000
C           27.32109700000000        5.65354900000000        1.14885000000000
H           32.03505800000000        0.13669300000000       -0.00312200000000
H           32.00155200000000        2.75861200000000       -0.21923000000000
H           30.18083000000000        4.55671600000000       -0.23181800000000
H           24.73877000000000        4.45674500000000        0.43438700000000
H           22.92280299999999        2.64680600000000        0.46636600000000
H           23.26674100000000       -2.52997800000000       -0.97900000000000
H           25.22696600000000       -4.41529000000000       -0.98306700000000
H           28.90994500000000       -5.31168900000000       -1.69271300000000
H           28.84365500000000       -7.77672700000000       -1.53497600000000
H           27.60092800000000       -8.87555500000000        0.30747200000000
H           26.41898400000000       -7.50198400000000        1.99938700000000
H           26.48049000000000       -5.03536600000000        1.86158600000000
H           30.45319400000000       -4.48302600000000        0.52775600000000
H           32.13721800000000       -2.53242300000000        0.50588700000000
H           27.67064700000000        5.06732200000000       -2.19332700000000
H           27.60304400000000        7.53956100000000       -2.23126900000000
H           27.35492600000000        8.81186400000000       -0.11744500000000
H           27.17411900000000        7.60754600000000        2.04254400000000
H           27.24146000000000        5.13561500000000        2.09676400000000
C           20.03074800000000        0.01266900000000        0.00250700000000
C           18.77847700000000       -0.00651200000000       -0.00184100000000
C           21.34441600000000        0.01190300000000        0.00444000000000
C           22.84755000000000       -0.00651200000000       -0.00184100000000
116
 energy: -195.566565250403 gnorm: 0.304122800419 xtb: 6.5.1 (b24c23e)
Fe          13.93399986068426        0.03230273735113        0.00038009835711
C           10.58499358391582       -0.08849809546158       -0.00295087987276
C           11.25536594370273       -1.25658957799935       -0.13300567350887
C           10.60123730018766       -2.54581438831871       -0.28374807711927
C           11.55554983062343       -3.47834996881633       -0.33119579211182
C           12.84750044967118       -2.80316032572401       -0.21231116792330
N           12.65408716558068       -1.41062355152503       -0.09487940364938
C           14.05283344626404       -3.44293815784868       -0.16547845281584
C           15.31708349319644       -2.75195820239086       -0.01683987904050
C           16.59880774049010       -3.42230091395895        0.16456616979743
C           17.54361146836064       -2.47295991194459        0.22461851693115
N           15.47137304966259       -1.43966676134936       -0.06252909259224
C           16.85208272069494       -1.21193483361534        0.07228737877168
C           17.45621354303243        0.01658722404671       -0.00416106002524
C           16.68570130058726        1.25402471861947       -0.16792880960198
C           17.24003300398978        2.42587596268945       -0.58152586686325
C           16.21585485841192        3.41256416161245       -0.53812887699354
C           15.07926052894117        2.79989594116073       -0.09769818944949
C           13.82029590316756        3.50271317517511        0.14167474103212
C           13.83563395309293        4.98488850828254        0.29396212073809
C           13.16762098128305        5.81301099443063       -0.62039204959716
C           13.20637418062053        7.19819130903377       -0.47673503187170
C           13.90504555474319        7.77212889700764        0.58173814441440
C           14.56734165477040        6.95888052945401        1.49712763669515
C           14.53528119452229        5.57406294783449        1.35474543376728
C           12.64222025932362        2.83702954630284        0.23045585705136
C           11.33765601924877        3.41922134077213        0.50639543927927
C           10.45582749419274        2.41206182672839        0.45305401237788
C           11.20163782604686        1.19954574406662        0.15765044877521
N           12.49286998575078        1.44002514953439        0.03879858643869
N           15.30966705140279        1.42052772542883        0.11421707250456
C           14.08074495467648       -4.92539430728771       -0.25860867851074
C           13.97363002678574       -5.55773323863238       -1.50221269325258
C           14.01153043099301       -6.94690700707703       -1.58644728296960
C           14.15133379675505       -7.71315005793658       -0.43247781873019
C           14.25253328367409       -7.08968192118703        0.80819767751319
C           14.21682015638181       -5.70104322132858        0.89714662044384
H            9.50157712508345       -0.12598399858721       -0.00724413807817
H            9.53662631145914       -2.73180132874841       -0.33790048921523
H           11.37428726712538       -4.54066039728357       -0.42910194518773
H           16.78163101718476       -4.48110718217464        0.23883991429056
H           18.60550631864629       -2.64704642966923        0.34985678715034
H           18.26846595081234        2.57856820416774       -0.87051067737890
H           16.31730281092310        4.45541380477849       -0.79358685232865
H           12.62901808640700        5.37916353540220       -1.45669299172818
H           12.69419129960603        7.83248879172080       -1.19344212505067
H           13.93501079866105        8.85102230141252        0.69209381471083
H           15.11478020769951        7.40587966014929        2.32066861850628
H           15.05377150153605        4.95040036599993        2.07524781469209
H           11.09958196926154        4.45320439258474        0.71896863037771
H            9.39281845383829        2.49600747490053        0.61341692219875
H           13.86620943406942       -4.96720226344518       -2.40651395068689
H           13.93317041883638       -7.43290941117854       -2.55343182291586
H           14.18103257725320       -8.79529421413239       -0.49984802466551
H           14.36128562597530       -7.68650508554451        1.70766132841306
H           14.29431230195239       -5.22162966054933        1.86761094486872
Fe          27.60161568667701       -0.03156546971339       -0.00092359299646
C           30.95101461395038        0.08909249443924        0.00093039666949
C           30.28064573495078        1.26168648739202       -0.07826951311742
C           30.93480270859832        2.55618264231123       -0.17293463253877
C           29.98038757860169        3.48984768234313       -0.17982157859430
C           28.68851238197149        2.81006763890749       -0.09036618671138
N           28.88169494285384        1.41360923907797       -0.03389401603720
C           27.48286545686858        3.44711011886252       -0.01571826361032
C           26.21817512943312        2.75120085398251        0.10270105066281
C           24.93841154977421        3.41338744805731        0.31300461407885
C           23.99243813841083        2.46186279856156        0.33224377995341
N           26.06105703693287        1.44067797729675       -0.00077965364557
C           24.68101688763574        1.21191007893799        0.12537614169763
C           24.06227251284559       -0.01674533298236       -0.00563401264903
C           24.84910428570923       -1.24741328261717       -0.22316844873258
C           24.29612654068300       -2.39834063458276       -0.68712422538579
C           25.32083266701273       -3.38593755409753       -0.68573825878174
C           26.45663838112596       -2.79258123429049       -0.21911565752753
C           27.71597871161924       -3.50507518986365       -0.01054604942534
C           27.70044800937040       -4.99244230491000        0.07729145015544
C           28.36841829922129       -5.78010359254126       -0.87219584505933
C           28.32963655171563       -7.17021864121019       -0.78883568017758
C           27.63097507431192       -7.78958126183753        0.24371987328769
C           26.96867929996396       -7.01684464148708        1.19355888327093
C           27.00072499884769       -5.62714841200342        1.11144384594690
C           28.89387627301008       -2.84395231640273        0.10695620982492
C           30.19839927430231       -3.43756005951431        0.35748256073237
C           31.08018715088134       -2.42903130437874        0.34791445548668
C           30.33428566395080       -1.20487590845980        0.10547339887895
N           29.04315911961337       -1.43970802351560       -0.02367152419639
N           26.22512972495298       -1.42365604970665        0.05297162385465
C           27.45529241954268        4.93227734688157       -0.04444810402487
C           27.56241078945936        5.61810391008257       -1.25943161104564
C           27.52448755923323        7.00965265121455       -1.28327193747012
C           27.38469168026329        7.72509557501886       -0.09713924818637
C           27.28350645301857        7.04832365606959        1.11528048487033
C           27.31921561318153        5.65711447878212        1.14386310750921
H           32.03443352176277        0.12667561238478       -0.00180022942208
H           31.99940144122739        2.74435594677705       -0.21893355830311
H           30.16167654494307        4.55542509061076       -0.23150685036803
H           24.75494537148919        4.46755528441531        0.43322799988507
H           22.93036064852543        2.62965523215180        0.46446627432235
H           23.26738675949218       -2.53794651183855       -0.98170157899235
H           25.21903678480685       -4.41653481874046       -0.98625330192592
H           28.90700516583851       -5.31036389965068       -1.68888372186249
H           28.84182381785487       -7.77279889755309       -1.53240573124651
H           27.60101024514966       -8.87224948768502        0.30712294025140
H           26.42124352754333       -7.49918626301213        1.99691196466221
H           26.48224655646118       -5.03536934591838        1.85835437721413
H           30.43646430123350       -4.47978481670564        0.52493799357365
H           32.14319970921684       -2.51982213462477        0.50446636986413
H           27.66980413180787        5.06745960872915       -2.18855341471598
H           27.60284605520263        7.53720070301144       -2.22824588157691
H           27.35498812388681        8.80915120711674       -0.11746080130401
H           27.17473463251993        7.60554276150376        2.03980864411965
H           27.24169471406840        5.13606285500902        2.09260372362559
C           20.07875788137270        0.01977052923979        0.00394412155738
C           18.82122521242938        0.01342762697426       -0.00359830582822
C           21.40255392302989        0.00482170262426        0.00389108411313
C           22.72417955788305       -0.02672240585619       -0.00080189097110
116
 energy: -195.607982880541 gnorm: 0.260850061906 xtb: 6.5.1 (b24c23e)
Fe          13.95452992650459        0.01526954024561       -0.00312453001051
C           10.58998912852531       -0.06829239279492        0.00090205176279
C           11.26645384469381       -1.25469459703990       -0.13427189103963
C           10.60912515799884       -2.53291100745156       -0.28291628729174
C           11.57474997714229       -3.47205841594411       -0.33096742198019
C           12.84945717245439       -2.78774557011326       -0.21377404617006
N           12.64033805314859       -1.42005206514492       -0.09713036700814
C           14.07271290631189       -3.43296725534686       -0.16309067947259
C           15.30485971074665       -2.76793127344527       -0.01548856936097
C           16.57732753743143       -3.42956342683792        0.15818532506896
C           17.52682070872055       -2.46297076544824        0.22175974691758
N           15.47718093114362       -1.42740051355001       -0.04348895340234
C           16.83794835017212       -1.21175173432777        0.07746149850514
C           17.45530378463671        0.03633090987536       -0.01096815456964
C           16.67496304433048        1.24424073264306       -0.16141242240979
C           17.23953635221700        2.45277202122635       -0.57465864402243
C           16.24239436045029        3.41189973124759       -0.53017060020405
C           15.07163033071462        2.78256942966352       -0.08988357594897
C           13.84496478744328        3.48340821205720        0.13982150982630
C           13.85225083273227        4.97463351414003        0.28447461273714
C           13.17324282715602        5.80656519950650       -0.61620547274420
C           13.20842947966041        7.18861554182759       -0.47224573912640
C           13.90495706257805        7.76530621407160        0.58116890766369
C           14.56489559537417        6.95251649756117        1.49253905812172
C           14.53967921385933        5.57155538816278        1.34649838745676
C           12.64580200354970        2.82095122357402        0.23626239504313
C           11.35157202599967        3.40608958750374        0.50196484070200
C           10.45146350011152        2.39651911309658        0.44603363981772
C           11.18450021994467        1.18695707839655        0.15886225846647
N           12.50200091111641        1.43900496065824        0.05786507598576
N           15.31216379955272        1.41833493007346        0.08513839261064
C           14.08612825049895       -4.92415964057207       -0.25747422776765
C           13.97460106289207       -5.55797689607912       -1.49676435851503
C           14.01122789258504       -6.94327735781293       -1.58132433953001
C           14.15117930265539       -7.70928604359033       -0.43212319029473
C           14.25211759289331       -7.08665153474755        0.80432912631210
C           14.21939690421377       -5.70199556820257        0.89323039124268
H            9.50567283550243       -0.11666244702579       -0.00281612204937
H            9.54372339507544       -2.71137155816613       -0.33630766740155
H           11.40248978039184       -4.53520846423856       -0.42846607895360
H           16.76125516193525       -4.48738220099431        0.23486803461577
H           18.59042025213253       -2.62513059589292        0.34721486548109
H           18.26735312444587        2.58793934953501       -0.86975848996034
H           16.32546716323679        4.45405287958891       -0.79238696686926
H           12.63274204213749        5.37384424681768       -1.45264590987683
H           12.69520570784034        7.82379589979592       -1.18997649512162
H           13.93460341918525        8.84558752456127        0.69126077452044
H           15.11116606816668        7.40027621966063        2.31831367603270
H           15.05418733524557        4.94787280622186        2.07058509446972
H           11.12450081630343        4.44313358062104        0.71306075767011
H            9.38977783139217        2.48132052782257        0.60840283003495
H           13.86731266596027       -4.96554850700205       -2.40063675438319
H           13.93273311448897       -7.42898531869612       -2.54989416625463
H           14.18099729534699       -8.79238637365467       -0.49986292478205
H           14.36014585778893       -7.68353182688490        1.70522092127684
H           14.29502768359940       -5.22038234243411        1.86336745299716
Fe          27.57983509023624       -0.01464972667912       -0.00391218902645
C           30.94594334635966        0.06869694065649        0.00387861046391
C           30.26928779526978        1.25967365845499       -0.07963948447368
C           30.92643670382201        2.54319788235832       -0.17258668492811
C           29.96049816863938        3.48336089102347       -0.17978872695119
C           28.68570475067650        2.79420510827591       -0.09253164649397
N           28.89504142438355        1.42268854704269       -0.03535286509554
C           27.46138992138921        3.43532184933696       -0.01392168976396
C           26.22800498469583        2.76365727583957        0.10455947983579
C           24.95813459759900        3.41920159000234        0.30701849648495
C           24.00609981494823        2.45181058283489        0.32856475992097
N           26.05000599138757        1.42394686125743        0.01766883126168
C           24.68722173482711        1.20691969632418        0.12841741088063
C           24.04963216957999       -0.03349328431846       -0.01422224578116
C           24.85245057586366       -1.23338266289647       -0.21425501416827
C           24.29383859849203       -2.42412354605580       -0.68107748552064
C           25.29309986179610       -3.38410052566179       -0.67792839120994
C           26.46220579638879       -2.77320739043326       -0.20998285611002
C           27.68996281750760       -3.48457919163439       -0.01134008131571
C           27.68322893032124       -4.98117570208037        0.06810678122112
C           28.36259421510561       -5.77350036879428       -0.86764893561782
C           28.32755215568006       -7.16059983978490       -0.78386078972920
C           27.63105665446476       -7.78261393182643        0.24345679021295
C           26.97114105346762       -7.01014478972713        1.18924619618085
C           26.99622406461099       -5.62409246583451        1.10329882588752
C           28.88970830878243       -2.82783301197895        0.11354905584291
C           30.18409430660566       -3.42417521567705        0.35350993496081
C           31.08434968305136       -2.41321417196867        0.34157642130980
C           30.35130496430227       -1.19234111042294        0.10720350987947
N           29.03389560796796       -1.43934089407635       -0.00473095185751
N           26.21753391229414       -1.41676159993085        0.02396771483968
C           27.44902287008107        4.93006034763274       -0.04338689575683
C           27.56124814708922        5.61768995477885       -1.25382996913586
C           27.52483471942082        7.00548815698811       -1.27820232602939
C           27.38484983322616        7.72101709436931       -0.09693130228931
C           27.28396071889998        7.04516934264021        1.11124282564242
C           27.31646151024387        5.65783314869872        1.13990390025937
H           32.03027629808448        0.11717657895575        0.00226340155144
H           31.99190017775397        2.72391291253867       -0.21820153210343
H           30.13303001155047        4.54977220874122       -0.23107226873282
H           24.77498757978333        4.47298015498754        0.42961490945543
H           22.94334208016116        2.60992786378267        0.46126089858611
H           23.26687104814248       -2.54826788776526       -0.98203560774519
H           25.21080950933572       -4.41426674731787       -0.98501972395199
H           28.90321416050146       -5.30506878763987       -1.68454428745204
H           28.84078944856270       -7.76407200738823       -1.52849562115812
H           27.60143810006564       -8.86668219239179        0.30652809929034
H           26.42488722522761       -7.49340698190717        1.99479052732986
H           26.48174135922493       -5.03259763648591        1.85388165069181
H           30.41126035433460       -4.46940301729955        0.51942652477051
H           32.14607165757016       -2.50498714011995        0.50012790184809
H           27.66865280455343        5.06539795895424       -2.18273309476430
H           27.60332033083284        7.53289024089233       -2.22477457069327
H           27.35503355324375        8.80607779019102       -0.11758956401685
H           27.17592152515316        7.60247138987239        2.03718947359783
H           27.24091762714616        5.13486111828628        2.08835606018786
C           20.10972264754108        0.02628298200728        0.00340670220287
C           18.86827120957681        0.03878826497037       -0.00875917873746
C           21.48184083702552       -0.00899658438941        0.00581414684787
C           22.63553556281551       -0.04489714692509       -0.00740343965265
116
 energy: -195.631548156247 gnorm: 0.065188195929 xtb: 6.5.1 (b24c23e)
Fe          13.96564577730841        0.00427023555793       -0.00882453199916
C           10.59196534153829       -0.06188449513753        0.00419280862816
C           11.27144832350334       -1.25237302133083       -0.13524878835298
C           10.61654621634914       -2.52477518390439       -0.28367478960677
C           11.58687488031530       -3.46562275109458       -0.33243722660033
C           12.85107116974725       -2.78052639117499       -0.21577264980289
N           12.63653169437311       -1.42278286458752       -0.09899126833674
C           14.07642060642977       -3.43041610987021       -0.16141325156157
C           15.29349911459079       -2.77341008900023       -0.00874117947226
C           16.56122116364794       -3.43111640179467        0.15370366068498
C           17.50615249013141       -2.45444536432831        0.21988748768068
N           15.46449949919194       -1.42284288288876       -0.02351437740762
C           16.81504346594367       -1.20576808554206        0.08446408722939
C           17.42878187497165        0.04982492075039       -0.01519632306385
C           16.66492698644643        1.24661204452484       -0.16623810084197
C           17.24274989396970        2.47018206830681       -0.56523758182010
C           16.25836072422063        3.41920070030953       -0.51885685263833
C           15.07302913776412        2.77799757170753       -0.09083402968868
C           13.85960269044158        3.46900605350743        0.13943577897984
C           13.86794029464433        4.96202312950799        0.27606218946446
C           13.18054258892725        5.79421850871410       -0.61611789190214
C           13.20992429983805        7.17535747179926       -0.47042935749008
C           13.90508997588257        7.75547919416115        0.58024143621494
C           14.56568647535903        6.94298723034275        1.48913232984525
C           14.54917798404983        5.56328857983252        1.33834772973930
C           12.65429929965209        2.80418585066452        0.24474930420188
C           11.36421724190214        3.39229849211222        0.49927912368875
C           10.45368857842729        2.38705194373958        0.44051226950776
C           11.18258331624667        1.17932907525947        0.16531348027648
N           12.51128056168024        1.43055383896966        0.07895181595076
N           15.30839678722807        1.41773883304489        0.05539973158966
C           14.08947750364445       -4.92232634505551       -0.25611858866814