      -----------------------------------------------------------      
     |                   =====================                   |     
     |                           x T B                           |     
     |                   =====================                   |     
     |                         S. Grimme                         |     
     |          Mulliken Center for Theoretical Chemistry        |     
     |                    University of Bonn                     |     
      -----------------------------------------------------------      

   * xtb version 6.5.1 (b24c23e) compiled by 'conda@728c89f4b128' on 2022-07-12

   xtb is free software: you can redistribute it and/or modify it under
   the terms of the GNU Lesser General Public License as published by
   the Free Software Foundation, either version 3 of the License, or
   (at your option) any later version.
   
   xtb is distributed in the hope that it will be useful,
   but WITHOUT ANY WARRANTY; without even the implied warranty of
   MERCHANTABILITY or FITNESS FOR A PARTICULAR PURPOSE.  See the
   GNU Lesser General Public License for more details.
   
   Cite this work as:
   * C. Bannwarth, E. Caldeweyher, S. Ehlert, A. Hansen, P. Pracht,
     J. Seibert, S. Spicher, S. Grimme, WIREs Comput. Mol. Sci., 2020, 11,
     e01493. DOI: 10.1002/wcms.1493
   
   for GFN2-xTB:
   * C. Bannwarth, S. Ehlert and S. Grimme., J. Chem. Theory Comput., 2019,
     15, 1652-1671. DOI: 10.1021/acs.jctc.8b01176
   for GFN1-xTB:
   * S. Grimme, C. Bannwarth, P. Shushkov, J. Chem. Theory Comput., 2017,
     13, 1989-2009. DOI: 10.1021/acs.jctc.7b00118
   for GFN0-xTB:
   * P. Pracht, E. Caldeweyher, S. Ehlert, S. Grimme, ChemRxiv, 2019, preprint.
     DOI: 10.26434/chemrxiv.8326202.v1
   for GFN-FF:
   * S. Spicher and S. Grimme, Angew. Chem. Int. Ed., 2020, 59, 15665-15673.
     DOI: 10.1002/anie.202004239
   
   for ALPB and GBSA implicit solvation:
   * S. Ehlert, M. Stahn, S. Spicher, S. Grimme, J. Chem. Theory Comput.,
     2021, 17, 4250-4261. DOI: 10.1021/acs.jctc.1c00471
   
   for DFT-D4:
   * E. Caldeweyher, C. Bannwarth and S. Grimme, J. Chem. Phys., 2017,
     147, 034112. DOI: 10.1063/1.4993215
   * E. Caldeweyher, S. Ehlert, A. Hansen, H. Neugebauer, S. Spicher,
     C. Bannwarth and S. Grimme, J. Chem. Phys., 2019, 150, 154122.
     DOI: 10.1063/1.5090222
   * E. Caldeweyher, J.-M. Mewes, S. Ehlert and S. Grimme, Phys. Chem. Chem. Phys.
     2020, 22, 8499-8512. DOI: 10.1039/D0CP00502A
   
   for sTDA-xTB:
   * S. Grimme and C. Bannwarth, J. Chem. Phys., 2016, 145, 054103.
     DOI: 10.1063/1.4959605
   
   in the mass-spec context:
   * V. Asgeirsson, C. Bauer and S. Grimme, Chem. Sci., 2017, 8, 4879.
     DOI: 10.1039/c7sc00601b
   * J. Koopman and S. Grimme, ACS Omega 2019, 4, 12, 15120-15133.
     DOI: 10.1021/acsomega.9b02011
   
   for metadynamics refer to:
   * S. Grimme, J. Chem. Theory Comput., 2019, 155, 2847-2862
     DOI: 10.1021/acs.jctc.9b00143
   
   for SPH calculations refer to:
   * S. Spicher and S. Grimme, J. Chem. Theory Comput., 2021, 17, 1701-1714
     DOI: 10.1021/acs.jctc.0c01306
   
   with help from (in alphabetical order)
   P. Atkinson, C. Bannwarth, F. Bohle, G. Brandenburg, E. Caldeweyher
   M. Checinski, S. Dohm, S. Ehlert, S. Ehrlich, I. Gerasimov, C. Hölzer
   A. Katbashev, J. Koopman, C. Lavigne, S. Lehtola, F. März, M. Müller,
   F. Musil, H. Neugebauer, J. Pisarek, C. Plett, P. Pracht, F. Pultar,
   J. Seibert, P. Shushkov, S. Spicher, M. Stahn, M. Steiner, T. Strunk,
   J. Stückrath, T. Rose, and J. Unsleber
   
 * started run on 2022/07/30 at 11:04:49.321     

           -------------------------------------------------
          |                Calculation Setup                |
           -------------------------------------------------

          program call               : xtb Ni_BSA_C6_2.xyz --gfn 1 --opt -T 48
          hostname                   : cx3-15-13.cx3.hpc.ic.ac.uk
          coordinate file            : Ni_BSA_C6_2.xyz
          omp threads                :                     1

   ID    Z sym.   atoms
    1   28 Ni     1, 65
    2    6 C      2-6, 8-12, 17-21, 23-28, 30-34, 39-44, 66-70, 72-76, 81-85,
                  87-92, 94-98, 103-108, 129-134
    3    7 N      7, 22, 29, 45, 71, 86, 93, 109
    4   16 S      13, 35, 77, 99
    5    8 O      14-16, 36-38, 78-80, 100-102
    6    1 H      46-64, 110-128
########################################################################
[WARNING] Please study the warnings concerning your input carefully
-1- prog_main_parseArguments: Unknown option '-T' provided
########################################################################

           -------------------------------------------------
          |                 G F N 1 - x T B                 |
           -------------------------------------------------

        Reference                      10.1021/acs.jctc.7b00118
      * Hamiltonian:
        H0-scaling (s, p, d)           1.850000    2.250000    2.000000
        zeta-weighting                 0.000000
      * Dispersion:
        s8                             2.400000
        a1                             0.630000
        a2                             5.000000
        s9                             0.000000
      * Repulsion:
        kExp                           1.500000
        rExp                           1.000000
      * Coulomb:
        alpha                          2.000000
        third order                    atomic
        anisotropic                    false
      * Halogen bond correction:
        rad-scale                      1.300000
        damping                        0.440000


          ...................................................
          :                      SETUP                      :
          :.................................................:
          :  # basis functions                 496          :
          :  # atomic orbitals                 490          :
          :  # shells                          274          :
          :  # electrons                       474          :
          :  # halogen bonds                     0          :
          :  max. iterations                   250          :
          :  Hamiltonian                  GFN1-xTB          :
          :  restarted?                      false          :
          :  GBSA solvation                  false          :
          :  PC potential                    false          :
          :  electronic temp.          300.0000000     K    :
          :  accuracy                    1.0000000          :
          :  -> integral cutoff          0.2500000E+02      :
          :  -> integral neglect         0.1000000E-07      :
          :  -> SCF convergence          0.1000000E-05 Eh   :
          :  -> wf. convergence          0.2000000E-04 e    :
          :  Broyden damping             0.4000000          :
          ...................................................

 iter      E             dE          RMSdq      gap      omega  full diag
   1   -275.4815732 -0.275482E+03  0.104E+01    0.25       0.0  T
   2   -260.0935260  0.153880E+02  0.885E+00    0.01       1.0  T
   3   -270.6595625 -0.105660E+02  0.650E+00    0.11       1.0  T
   4   -237.0612123  0.335984E+02  0.630E+00    0.09       1.0  T
   5   -141.0737028  0.959875E+02  0.943E+00    0.08       1.0  T
   6   -270.0250350 -0.128951E+03  0.414E+00    0.26       1.0  T
   7   -273.7310086 -0.370597E+01  0.332E+00    0.17       1.0  T
   8   -275.2410857 -0.151008E+01  0.301E+00    0.14       1.0  T
   9   -275.6425244 -0.401439E+00  0.264E+00    0.18       1.0  T
  10   -275.8577714 -0.215247E+00  0.212E+00    0.22       1.0  T
  11   -276.0829473 -0.225176E+00  0.136E+00    0.35       1.0  T
  12   -276.1750005 -0.920532E-01  0.855E-01    0.49       1.0  T
  13   -276.2385950 -0.635945E-01  0.248E-01    0.68       1.0  T
  14   -276.2466637 -0.806865E-02  0.139E-01    0.65       1.0  T
  15   -276.2492645 -0.260086E-02  0.874E-02    0.65       1.0  T
  16   -276.2498598 -0.595308E-03  0.665E-02    0.65       1.0  T
  17   -276.2506945 -0.834673E-03  0.380E-02    0.66       1.0  T
  18   -276.2510236 -0.329069E-03  0.254E-02    0.67       1.0  T
  19   -276.2511277 -0.104129E-03  0.226E-02    0.67       1.0  T
  20   -276.2511733 -0.455964E-04  0.137E-02    0.67       1.0  T
  21   -276.2511710  0.232519E-05  0.726E-03    0.67       1.2  T
  22   -276.2511825 -0.115697E-04  0.596E-03    0.67       1.4  T
  23   -276.2511942 -0.116830E-04  0.481E-03    0.67       1.8  T
  24   -276.2512032 -0.898227E-05  0.300E-03    0.67       2.9  T
  25   -276.2512067 -0.353175E-05  0.208E-03    0.67       4.1  T
  26   -276.2512084 -0.165224E-05  0.139E-03    0.67       6.2  T
  27   -276.2512093 -0.913926E-06  0.657E-04    0.67      13.1  T
  28   -276.2512095 -0.142814E-06  0.348E-04    0.67      24.8  T
  29   -276.2512095 -0.380725E-07  0.215E-04    0.67      40.2  T
  30   -276.2512095 -0.214698E-07  0.703E-05    0.67     122.9  T
  31   -276.2512095 -0.240391E-08  0.267E-05    0.67     323.3  T

   *** convergence criteria satisfied after 31 iterations ***

         #    Occupation            Energy/Eh            Energy/eV
      -------------------------------------------------------------
         1        2.0000           -1.0291769             -28.0053
       ...           ...                  ...                  ...
       231        2.0000           -0.4197919             -11.4231
       232        2.0000           -0.4191284             -11.4051
       233        2.0000           -0.4189098             -11.3991
       234        2.0000           -0.4167253             -11.3397
       235        2.0000           -0.4149455             -11.2912
       236        2.0000           -0.4096777             -11.1479
       237        2.0000           -0.4022380             -10.9455 (HOMO)
       238        0.0000           -0.3776274             -10.2758 (LUMO)
       239                         -0.3614909              -9.8367
       240                         -0.3614874              -9.8366
       241                         -0.3572875              -9.7223
       242                         -0.3561317              -9.6908
       ...                                ...                  ...
       490                          4.9261548             134.0475
      -------------------------------------------------------------
                  HL-Gap            0.0246105 Eh            0.6697 eV
             Fermi-level           -0.3899325 Eh          -10.6106 eV

 SCC (total)                   0 d,  0 h,  0 min,  2.189 sec
 SCC setup                      ...        0 min,  0.005 sec (  0.235%)
 Dispersion                     ...        0 min,  0.004 sec (  0.166%)
 classical contributions        ...        0 min,  0.001 sec (  0.064%)
 integral evaluation            ...        0 min,  0.123 sec (  5.600%)
 iterations                     ...        0 min,  1.738 sec ( 79.380%)
 molecular gradient             ...        0 min,  0.304 sec ( 13.894%)
 printout                       ...        0 min,  0.014 sec (  0.661%)

         :::::::::::::::::::::::::::::::::::::::::::::::::::::
         ::                     SUMMARY                     ::
         :::::::::::::::::::::::::::::::::::::::::::::::::::::
         :: total energy            -271.830093053556 Eh    ::
         :: gradient norm              3.117279713816 Eh/a0 ::
         :: HOMO-LUMO gap              0.669686897690 eV    ::
         ::.................................................::
         :: SCC energy              -276.251209517621 Eh    ::
         :: -> electrostatic           0.547654619842 Eh    ::
         :: repulsion energy           4.541729462839 Eh    ::
         :: dispersion energy         -0.120612998773 Eh    ::
         :: halogen bond corr.         0.000000000000 Eh    ::
         :: add. restraining           0.000000000000 Eh    ::
         :: total charge               0.000000001890 e     ::
         :::::::::::::::::::::::::::::::::::::::::::::::::::::

      ----------------------------------------------------------- 
     |                   =====================                   |
     |                        A N C O P T                        |
     |                   =====================                   |
     |               Approximate Normal Coordinate               |
     |                Rational Function Optimizer                |
      ----------------------------------------------------------- 

          ...................................................
          :                      SETUP                      :
          :.................................................:
          :   optimization level            normal          :
          :   max. optcycles                   402          :
          :   ANC micro-cycles                  20          :
          :   degrees of freedom               396          :
          :.................................................:
          :   RF solver                   davidson          :
          :   write xtbopt.log                true          :
          :   linear?                        false          :
          :   energy convergence         0.5000000E-05 Eh   :
          :   grad. convergence          0.1000000E-02 Eh/α :
          :   maximium RF displ.         1.0000000          :
          :   Hlow (freq-cutoff)         0.1000000E-01      :
          :   Hmax (freq-cutoff)         5.0000000          :
          :   S6 in model hess.         20.0000000          :
          ...................................................

generating ANC from model Hessian ...
Using Lindh-Hessian (1995)
 Shifting diagonal of input Hessian by    1.0035588409227397E-002
 Lowest  eigenvalues of input Hessian
    0.010000    0.010019    0.010028    0.000000    0.000000    0.000000
    0.000000    0.000000    0.000000    0.010052    0.010059    0.010098
    0.010114    0.010142    0.010178    0.010311    0.010343    0.010362
 Highest eigenvalues
    2.703953    2.703955    3.136613    3.529019    4.344996    4.349180


........................................................................
.............................. CYCLE    1 ..............................
........................................................................
   1   -276.2512095 -0.276251E+03  0.127E-05    0.67       0.0  T
   2   -276.2512095  0.204636E-10  0.164E-05    0.67     527.4  T
   3   -276.2512095 -0.881641E-10  0.320E-06    0.67    2700.6  T
     SCC iter.                  ...        0 min,  0.175 sec
     gradient                   ...        0 min,  0.301 sec
 * total energy  :  -271.8300931 Eh     change       -0.4440039E-09 Eh
   gradient norm :     3.1172797 Eh/α   predicted     0.0000000E+00 (-100.00%)
   displ. norm   :     0.5947812 α      lambda       -0.1780712E+01
   maximum displ.:     0.4642633 α      in ANC's #396, #388, #318, ...

........................................................................
.............................. CYCLE    2 ..............................
........................................................................
   1   -276.3905217 -0.276391E+03  0.255E-01    1.10       0.0  T
   2   -276.3979566 -0.743495E-02  0.131E-01    1.11       1.0  T
   3   -276.4004004 -0.244379E-02  0.421E-02    1.10       1.0  T
   4   -276.4003750  0.254313E-04  0.299E-02    1.11       1.0  T
   5   -276.4004292 -0.541881E-04  0.139E-02    1.10       1.0  T
   6   -276.4004900 -0.608351E-04  0.516E-03    1.11       1.7  T
   7   -276.4004947 -0.471263E-05  0.200E-03    1.11       4.3  T
   8   -276.4004960 -0.126821E-05  0.824E-04    1.11      10.5  T
   9   -276.4004962 -0.247725E-06  0.190E-04    1.11      45.6  T
  10   -276.4004962 -0.952542E-08  0.696E-05    1.11     124.2  T
     SCC iter.                  ...        0 min,  0.566 sec
     gradient                   ...        0 min,  0.301 sec
 * total energy  :  -272.6516245 Eh     change       -0.8215314E+00 Eh
   gradient norm :     0.5630826 Eh/α   predicted    -0.1205338E+01 (  46.72%)
   displ. norm   :     0.4592938 α      lambda       -0.2039870E+00
   maximum displ.:     0.0988603 α      in ANC's #274, #136, #314, ...

........................................................................
.............................. CYCLE    3 ..............................
........................................................................
   1   -276.4519155 -0.276452E+03  0.144E-01    0.99       0.0  T
   2   -276.4545847 -0.266920E-02  0.812E-02    1.00       1.0  T
   3   -276.4553743 -0.789629E-03  0.430E-02    1.00       1.0  T
   4   -276.4553413  0.329767E-04  0.283E-02    1.00       1.0  T
   5   -276.4554821 -0.140794E-03  0.140E-02    1.00       1.0  T
   6   -276.4555634 -0.812992E-04  0.273E-03    1.00       3.2  T
   7   -276.4555650 -0.158419E-05  0.197E-03    1.00       4.4  T
   8   -276.4555663 -0.123926E-05  0.533E-04    1.00      16.2  T
   9   -276.4555664 -0.100111E-06  0.130E-04    1.00      66.4  T
  10   -276.4555664 -0.244626E-08  0.633E-05    1.00     136.4  T
     SCC iter.                  ...        0 min,  0.567 sec
     gradient                   ...        0 min,  0.303 sec
 * total energy  :  -272.7912173 Eh     change       -0.1395928E+00 Eh
   gradient norm :     0.3371424 Eh/α   predicted    -0.1235439E+00 ( -11.50%)
   displ. norm   :     0.5127430 α      lambda       -0.1072688E+00
   maximum displ.:     0.1226805 α      in ANC's #136, #108, #91, ...

........................................................................
.............................. CYCLE    4 ..............................
........................................................................
   1   -276.5583035 -0.276558E+03  0.160E-01    1.01       0.0  T
   2   -276.5611178 -0.281425E-02  0.798E-02    1.00       1.0  T
   3   -276.5618355 -0.717741E-03  0.503E-02    1.01       1.0  T
   4   -276.5621642 -0.328707E-03  0.314E-02    1.00       1.0  T
   5   -276.5623750 -0.210755E-03  0.135E-02    1.00       1.0  T
   6   -276.5624373 -0.622954E-04  0.350E-03    1.00       2.5  T
   7   -276.5624408 -0.354718E-05  0.242E-03    1.00       3.6  T
   8   -276.5624428 -0.194429E-05  0.546E-04    1.00      15.8  T
   9   -276.5624428 -0.850048E-07  0.178E-04    1.00      48.6  T
  10   -276.5624429 -0.601256E-08  0.727E-05    1.00     118.8  T
     SCC iter.                  ...        0 min,  0.566 sec
     gradient                   ...        0 min,  0.302 sec
 * total energy  :  -272.8650231 Eh     change       -0.7380587E-01 Eh
   gradient norm :     0.1495409 Eh/α   predicted    -0.6773525E-01 (  -8.23%)
   displ. norm   :     0.5661225 α      lambda       -0.4052282E-01
   maximum displ.:     0.1740148 α      in ANC's #91, #88, #108, ...

........................................................................
.............................. CYCLE    5 ..............................
........................................................................
   1   -276.6127910 -0.276613E+03  0.734E-02    1.09       0.0  T
   2   -276.6132232 -0.432217E-03  0.393E-02    1.09       1.0  T
   3   -276.6134254 -0.202241E-03  0.252E-02    1.09       1.0  T
   4   -276.6135745 -0.149058E-03  0.150E-02    1.09       1.0  T
   5   -276.6136121 -0.376293E-04  0.609E-03    1.09       1.4  T
   6   -276.6136237 -0.115301E-04  0.177E-03    1.09       4.9  T
   7   -276.6136247 -0.107102E-05  0.113E-03    1.09       7.6  T
   8   -276.6136252 -0.433276E-06  0.260E-04    1.09      33.2  T
   9   -276.6136252 -0.164908E-07  0.868E-05    1.09      99.5  T
  10   -276.6136252 -0.127216E-08  0.459E-05    1.09     188.1  T
     SCC iter.                  ...        0 min,  0.567 sec
     gradient                   ...        0 min,  0.302 sec
 * total energy  :  -272.8945696 Eh     change       -0.2954645E-01 Eh
   gradient norm :     0.0775209 Eh/α   predicted    -0.2675509E-01 (  -9.45%)
   displ. norm   :     0.5974651 α      lambda       -0.2045854E-01
   maximum displ.:     0.1652025 α      in ANC's #22, #26, #88, ...

........................................................................
.............................. CYCLE    6 ..............................
........................................................................
   1   -276.6243155 -0.276624E+03  0.341E-02    1.15       0.0  T
   2   -276.6243880 -0.725179E-04  0.201E-02    1.15       1.0  T
   3   -276.6244669 -0.788660E-04  0.114E-02    1.15       1.0  T
   4   -276.6244933 -0.264116E-04  0.738E-03    1.15       1.2  T
   5   -276.6245018 -0.849104E-05  0.256E-03    1.15       3.4  T
   6   -276.6245035 -0.170213E-05  0.939E-04    1.15       9.2  T
   7   -276.6245039 -0.409562E-06  0.333E-04    1.15      25.9  T
   8   -276.6245039 -0.423651E-07  0.941E-05    1.15      91.8  T
   9   -276.6245039 -0.119678E-08  0.308E-05    1.15     280.3  T
     SCC iter.                  ...        0 min,  0.510 sec
     gradient                   ...        0 min,  0.301 sec
 * total energy  :  -272.9101517 Eh     change       -0.1558212E-01 Eh
   gradient norm :     0.0502042 Eh/α   predicted    -0.1388078E-01 ( -10.92%)
   displ. norm   :     0.6361747 α      lambda       -0.1236468E-01
   maximum displ.:     0.2541078 α      in ANC's #22, #26, #72, ...

........................................................................
.............................. CYCLE    7 ..............................
........................................................................
   1   -276.6207989 -0.276621E+03  0.242E-02    1.19       0.0  T
   2   -276.6208525 -0.536333E-04  0.136E-02    1.19       1.0  T
   3   -276.6208826 -0.301095E-04  0.756E-03    1.19       1.1  T
   4   -276.6208889 -0.635090E-05  0.518E-03    1.19       1.7  T
   5   -276.6208939 -0.496581E-05  0.158E-03    1.19       5.5  T
   6   -276.6208944 -0.469618E-06  0.716E-04    1.19      12.1  T
   7   -276.6208946 -0.187593E-06  0.273E-04    1.19      31.7  T
   8   -276.6208946 -0.252819E-07  0.825E-05    1.19     104.8  T
   9   -276.6208946 -0.134480E-08  0.264E-05    1.19     326.8  T
     SCC iter.                  ...        0 min,  0.509 sec
     gradient                   ...        0 min,  0.303 sec
 * total energy  :  -272.9198445 Eh     change       -0.9692766E-02 Eh
   gradient norm :     0.0371862 Eh/α   predicted    -0.8684467E-02 ( -10.40%)
   displ. norm   :     0.6710338 α      lambda       -0.8434823E-02
   maximum displ.:     0.3388087 α      in ANC's #22, #26, #28, ...

........................................................................
.............................. CYCLE    8 ..............................
........................................................................
   1   -276.6155467 -0.276616E+03  0.199E-02    1.22       0.0  T
   2   -276.6155807 -0.339546E-04  0.104E-02    1.22       1.0  T
   3   -276.6155972 -0.164569E-04  0.591E-03    1.22       1.5  T
   4   -276.6156016 -0.441102E-05  0.374E-03    1.22       2.3  T
   5   -276.6156044 -0.282377E-05  0.135E-03    1.22       6.4  T
   6   -276.6156047 -0.333366E-06  0.675E-04    1.22      12.8  T
   7   -276.6156049 -0.147594E-06  0.238E-04    1.22      36.3  T
   8   -276.6156049 -0.202268E-07  0.665E-05    1.22     129.9  T
   9   -276.6156049 -0.104706E-08  0.196E-05    1.22     440.1  T
     SCC iter.                  ...        0 min,  0.510 sec
     gradient                   ...        0 min,  0.303 sec
 * total energy  :  -272.9266137 Eh     change       -0.6769195E-02 Eh
   gradient norm :     0.0270873 Eh/α   predicted    -0.6116460E-02 (  -9.64%)
   displ. norm   :     0.7037688 α      lambda       -0.6445954E-02
   maximum displ.:     0.4054818 α      in ANC's #22, #26, #28, ...

........................................................................
.............................. CYCLE    9 ..............................
........................................................................
   1   -276.6130000 -0.276613E+03  0.168E-02    1.23       0.0  T
   2   -276.6130222 -0.222256E-04  0.840E-03    1.23       1.0  T
   3   -276.6130344 -0.121682E-04  0.470E-03    1.23       1.8  T
   4   -276.6130397 -0.528903E-05  0.263E-03    1.23       3.3  T
   5   -276.6130411 -0.139967E-05  0.111E-03    1.23       7.8  T
   6   -276.6130413 -0.204810E-06  0.543E-04    1.23      15.9  T
   7   -276.6130414 -0.894558E-07  0.175E-04    1.23      49.3  T
   8   -276.6130414 -0.118737E-07  0.645E-05    1.23     133.9  T
     SCC iter.                  ...        0 min,  0.454 sec
     gradient                   ...        0 min,  0.302 sec
 * total energy  :  -272.9316661 Eh     change       -0.5052446E-02 Eh
   gradient norm :     0.0205184 Eh/α   predicted    -0.4819290E-02 (  -4.61%)
   displ. norm   :     0.7240885 α      lambda       -0.5278525E-02
   maximum displ.:     0.4451080 α      in ANC's #22, #26, #28, ...

........................................................................
.............................. CYCLE   10 ..............................
........................................................................
   1   -276.6120207 -0.276612E+03  0.140E-02    1.24       0.0  T
   2   -276.6120364 -0.157258E-04  0.740E-03    1.24       1.2  T
   3   -276.6120459 -0.945496E-05  0.390E-03    1.24       2.2  T
   4   -276.6120493 -0.340910E-05  0.228E-03    1.24       3.8  T
   5   -276.6120504 -0.108134E-05  0.934E-04    1.24       9.2  T
   6   -276.6120506 -0.189902E-06  0.410E-04    1.24      21.0  T
   7   -276.6120506 -0.490069E-07  0.147E-04    1.24      58.7  T
   8   -276.6120506 -0.876008E-08  0.532E-05    1.24     162.3  T
     SCC iter.                  ...        0 min,  0.454 sec
     gradient                   ...        0 min,  0.301 sec
 * total energy  :  -272.9355041 Eh     change       -0.3837979E-02 Eh
   gradient norm :     0.0176208 Eh/α   predicted    -0.4023060E-02 (   4.82%)
   displ. norm   :     0.6616608 α      lambda       -0.3675305E-02
   maximum displ.:     0.4236892 α      in ANC's #22, #26, #28, ...

........................................................................
.............................. CYCLE   11 ..............................
........................................................................
   1   -276.6111896 -0.276611E+03  0.951E-03    1.25       0.0  T
   2   -276.6111971 -0.752497E-05  0.450E-03    1.25       1.9  T
   3   -276.6111999 -0.274524E-05  0.263E-03    1.25       3.3  T
   4   -276.6112007 -0.802378E-06  0.152E-03    1.25       5.7  T
   5   -276.6112012 -0.526153E-06  0.689E-04    1.25      12.5  T
   6   -276.6112013 -0.100404E-06  0.289E-04    1.25      29.9  T
   7   -276.6112013 -0.186695E-07  0.128E-04    1.25      67.5  T
   8   -276.6112013 -0.756540E-08  0.393E-05    1.25     219.7  T
     SCC iter.                  ...        0 min,  0.454 sec
     gradient                   ...        0 min,  0.302 sec
 * total energy  :  -272.9384285 Eh     change       -0.2924433E-02 Eh
   gradient norm :     0.0159198 Eh/α   predicted    -0.2642179E-02 (  -9.65%)
   displ. norm   :     0.6454039 α      lambda       -0.2656967E-02
   maximum displ.:     0.4166354 α      in ANC's #22, #26, #20, ...

........................................................................
.............................. CYCLE   12 ..............................
........................................................................
   1   -276.6083045 -0.276608E+03  0.801E-03    1.25       0.0  T
   2   -276.6083093 -0.482668E-05  0.401E-03    1.25       2.2  T
   3   -276.6083118 -0.255044E-05  0.270E-03    1.25       3.2  T
   4   -276.6083130 -0.110957E-05  0.138E-03    1.25       6.3  T
   5   -276.6083133 -0.372056E-06  0.595E-04    1.25      14.5  T
   6   -276.6083134 -0.662660E-07  0.227E-04    1.25      38.0  T
   7   -276.6083134 -0.101953E-07  0.109E-04    1.25      78.9  T
   8   -276.6083134 -0.556270E-08  0.335E-05    1.25     257.8  T
     SCC iter.                  ...        0 min,  0.454 sec
     gradient                   ...        0 min,  0.302 sec
 * total energy  :  -272.9405905 Eh     change       -0.2162008E-02 Eh
   gradient norm :     0.0139228 Eh/α   predicted    -0.1881860E-02 ( -12.96%)
   displ. norm   :     0.6213938 α      lambda       -0.1931369E-02
   maximum displ.:     0.4017684 α      in ANC's #22, #26, #20, ...

........................................................................
.............................. CYCLE   13 ..............................
........................................................................
   1   -276.6025490 -0.276603E+03  0.820E-03    1.25       0.0  T
   2   -276.6025532 -0.421368E-05  0.473E-03    1.25       1.8  T
   3   -276.6025586 -0.543260E-05  0.300E-03    1.25       2.9  T
   4   -276.6025610 -0.237139E-05  0.135E-03    1.25       6.4  T
   5   -276.6025612 -0.153765E-06  0.628E-04    1.25      13.8  T
   6   -276.6025612 -0.616083E-07  0.334E-04    1.25      25.9  T
   7   -276.6025613 -0.427004E-07  0.108E-04    1.25      80.1  T
   8   -276.6025613 -0.294648E-08  0.358E-05    1.25     241.6  T
     SCC iter.                  ...        0 min,  0.454 sec
     gradient                   ...        0 min,  0.301 sec
 * total energy  :  -272.9420781 Eh     change       -0.1487543E-02 Eh
   gradient norm :     0.0119890 Eh/α   predicted    -0.1338569E-02 ( -10.01%)
   displ. norm   :     0.5535306 α      lambda       -0.1151840E-02
   maximum displ.:     0.3512986 α      in ANC's #22, #20, #26, ...

........................................................................
.............................. CYCLE   14 ..............................
........................................................................
   1   -276.5975747 -0.276598E+03  0.665E-03    1.25       0.0  T
   2   -276.5975775 -0.278235E-05  0.421E-03    1.25       2.1  T
   3   -276.5975820 -0.453430E-05  0.238E-03    1.25       3.6  T
   4   -276.5975834 -0.144643E-05  0.108E-03    1.25       8.0  T
   5   -276.5975836 -0.122883E-06  0.491E-04    1.25      17.6  T
   6   -276.5975836 -0.217777E-07  0.285E-04    1.25      30.3  T
   7   -276.5975836 -0.298343E-07  0.998E-05    1.25      86.6  T
   8   -276.5975836 -0.264521E-08  0.302E-05    1.25     286.3  T
     SCC iter.                  ...        0 min,  0.454 sec
     gradient                   ...        0 min,  0.299 sec
 * total energy  :  -272.9429076 Eh     change       -0.8295292E-03 Eh
   gradient norm :     0.0116514 Eh/α   predicted    -0.7523803E-03 (  -9.30%)
   displ. norm   :     0.4675843 α      lambda       -0.7264039E-03
   maximum displ.:     0.2797979 α      in ANC's #22, #20, #18, ...

........................................................................
.............................. CYCLE   15 ..............................
........................................................................
   1   -276.5920247 -0.276592E+03  0.601E-03    1.24       0.0  T
   2   -276.5920261 -0.140664E-05  0.343E-03    1.24       2.5  T
   3   -276.5920275 -0.139730E-05  0.266E-03    1.24       3.2  T
   4   -276.5920293 -0.183006E-05  0.110E-03    1.24       7.9  T
   5   -276.5920295 -0.167218E-06  0.400E-04    1.24      21.6  T
   6   -276.5920295 -0.287752E-07  0.252E-04    1.24      34.3  T
   7   -276.5920295 -0.249830E-07  0.774E-05    1.24     111.6  T
   8   -276.5920295 -0.146787E-08  0.238E-05    1.24     363.2  T
     SCC iter.                  ...        0 min,  0.454 sec
     gradient                   ...        0 min,  0.300 sec
 * total energy  :  -272.9433731 Eh     change       -0.4655246E-03 Eh
   gradient norm :     0.0092322 Eh/α   predicted    -0.4426164E-03 (  -4.92%)
   displ. norm   :     0.4103706 α      lambda       -0.5782976E-03
   maximum displ.:     0.2015396 α      in ANC's #22, #20, #8, ...

........................................................................
.............................. CYCLE   16 ..............................
........................................................................
   1   -276.5870492 -0.276587E+03  0.676E-03    1.24       0.0  T
   2   -276.5870506 -0.145473E-05  0.429E-03    1.25       2.0  T
   3   -276.5870510 -0.352460E-06  0.296E-03    1.25       2.9  T
   4   -276.5870523 -0.132057E-05  0.183E-03    1.25       4.7  T
   5   -276.5870532 -0.896631E-06  0.359E-04    1.25      24.0  T
   6   -276.5870532 -0.156484E-07  0.140E-04    1.25      61.7  T
   7   -276.5870532 -0.626017E-08  0.522E-05    1.25     165.6  T
     SCC iter.                  ...        0 min,  0.399 sec
     gradient                   ...        0 min,  0.303 sec
 * total energy  :  -272.9436431 Eh     change       -0.2699344E-03 Eh
   gradient norm :     0.0174947 Eh/α   predicted    -0.3378451E-03 (  25.16%)
   displ. norm   :     0.3744880 α      lambda       -0.8119114E-03
   maximum displ.:     0.1512655 α      in ANC's #8, #20, #12, ...

........................................................................
.............................. CYCLE   17 ..............................
........................................................................
   1   -276.5898250 -0.276590E+03  0.120E-02    1.24       0.0  T
   2   -276.5898301 -0.511361E-05  0.541E-03    1.24       1.6  T
   3   -276.5898245  0.569859E-05  0.463E-03    1.24       1.9  T
   4   -276.5898314 -0.691868E-05  0.177E-03    1.24       4.9  T
   5   -276.5898320 -0.603623E-06  0.546E-04    1.24      15.8  T
   6   -276.5898321 -0.805704E-07  0.255E-04    1.24      33.9  T
   7   -276.5898321 -0.272459E-07  0.649E-05    1.24     133.1  T
   8   -276.5898321 -0.111720E-08  0.203E-05    1.24     424.8  T
     SCC iter.                  ...        0 min,  0.454 sec
     gradient                   ...        0 min,  0.300 sec
 * total energy  :  -272.9438838 Eh     change       -0.2406964E-03 Eh
   gradient norm :     0.0141381 Eh/α   predicted    -0.4628903E-03 (  92.31%)
   displ. norm   :     0.1678492 α      lambda       -0.5190056E-03
   maximum displ.:     0.0866945 α      in ANC's #26, #8, #12, ...

........................................................................
.............................. CYCLE   18 ..............................
........................................................................
   1   -276.5897809 -0.276590E+03  0.365E-03    1.24       0.0  T
   2   -276.5897812 -0.273397E-06  0.213E-03    1.24       4.1  T
   3   -276.5897807  0.491841E-06  0.158E-03    1.24       5.5  T
   4   -276.5897814 -0.630348E-06  0.830E-04    1.24      10.4  T
   5   -276.5897816 -0.197167E-06  0.200E-04    1.24      43.2  T
   6   -276.5897816 -0.110302E-07  0.706E-05    1.24     122.4  T
     SCC iter.                  ...        0 min,  0.341 sec
     gradient                   ...        0 min,  0.297 sec
 * total energy  :  -272.9442413 Eh     change       -0.3575611E-03 Eh
   gradient norm :     0.0088006 Eh/α   predicted    -0.2668150E-03 ( -25.38%)
   displ. norm   :     0.3161249 α      lambda       -0.5619262E-03
   maximum displ.:     0.1553279 α      in ANC's #26, #8, #12, ...

........................................................................
.............................. CYCLE   19 ..............................
........................................................................
   1   -276.5898874 -0.276590E+03  0.119E-02    1.24       0.0  T
   2   -276.5898910 -0.363108E-05  0.597E-03    1.24       1.4  T
   3   -276.5898863  0.474941E-05  0.440E-03    1.24       2.0  T
   4   -276.5898913 -0.498305E-05  0.206E-03    1.24       4.2  T
   5   -276.5898925 -0.121006E-05  0.598E-04    1.24      14.4  T
   6   -276.5898926 -0.863125E-07  0.172E-04    1.24      50.4  T
   7   -276.5898926 -0.123934E-07  0.775E-05    1.24     111.5  T
     SCC iter.                  ...        0 min,  0.396 sec
     gradient                   ...        0 min,  0.300 sec
 * total energy  :  -272.9441528 Eh     change        0.8849630E-04 Eh
   gradient norm :     0.0261795 Eh/α   predicted    -0.3090427E-03 (-449.22%)
   displ. norm   :     0.1813382 α      lambda       -0.8716077E-03
   maximum displ.:     0.0893815 α      in ANC's #8, #12, #26, ...

........................................................................
.............................. CYCLE   20 ..............................
........................................................................
   1   -276.5886580 -0.276589E+03  0.102E-02    1.24       0.0  T
   2   -276.5886607 -0.262906E-05  0.493E-03    1.24       1.8  T
   3   -276.5886584  0.223188E-05  0.301E-03    1.24       2.9  T
   4   -276.5886601 -0.166363E-05  0.177E-03    1.24       4.9  T
   5   -276.5886611 -0.102081E-05  0.265E-04    1.24      32.6  T
   6   -276.5886611 -0.106555E-07  0.134E-04    1.24      64.3  T
   7   -276.5886611 -0.988734E-08  0.466E-05    1.24     185.3  T
     SCC iter.                  ...        0 min,  0.398 sec
     gradient                   ...        0 min,  0.300 sec
 * total energy  :  -272.9446156 Eh     change       -0.4627868E-03 Eh
   gradient norm :     0.0113373 Eh/α   predicted    -0.4501369E-03 (  -2.73%)
   displ. norm   :     0.1569769 α      lambda       -0.2076111E-03
   maximum displ.:     0.0852637 α      in ANC's #8, #12, #20, ...
 * RMSD in coord.:     0.5914737 α      energy gain  -0.1114523E+01 Eh

generating ANC from model Hessian ...
Using Lindh-Hessian (1995)
 Shifting diagonal of input Hessian by    1.0024730249145240E-002
 Lowest  eigenvalues of input Hessian
    0.010000    0.010010    0.010017    0.000000    0.000000    0.000000
    0.000000    0.000000    0.000000    0.010034    0.010052    0.010095
    0.010107    0.010173    0.010230    0.010384    0.010385    0.010394
 Highest eigenvalues
    2.836395    2.985776    3.576618    3.576646    3.668318    3.668472


........................................................................
.............................. CYCLE   21 ..............................
........................................................................
   1   -276.5895525 -0.276590E+03  0.233E-03    1.24       0.0  T
   2   -276.5895528 -0.309551E-06  0.118E-03    1.24       7.3  T
   3   -276.5895527  0.459315E-07  0.966E-04    1.24       8.9  T
   4   -276.5895529 -0.164138E-06  0.484E-04    1.24      17.8  T
   5   -276.5895530 -0.607100E-07  0.153E-04    1.24      56.5  T
   6   -276.5895530 -0.464416E-08  0.564E-05    1.24     153.2  T
     SCC iter.                  ...        0 min,  0.344 sec
     gradient                   ...        0 min,  0.301 sec
 * total energy  :  -272.9447600 Eh     change       -0.1444264E-03 Eh
   gradient norm :     0.0081673 Eh/α   predicted     0.0000000E+00 (-100.00%)
   displ. norm   :     0.0980054 α      lambda       -0.2464501E-03
   maximum displ.:     0.0406873 α      in ANC's #8, #22, #20, ...

........................................................................
.............................. CYCLE   22 ..............................
........................................................................
   1   -276.5912169 -0.276591E+03  0.229E-03    1.24       0.0  T
   2   -276.5912174 -0.457474E-06  0.120E-03    1.24       7.2  T
   3   -276.5912174 -0.376336E-07  0.794E-04    1.24      10.9  T
   4   -276.5912176 -0.147634E-06  0.482E-04    1.24      17.9  T
   5   -276.5912176 -0.721278E-07  0.133E-04    1.24      65.1  T
   6   -276.5912176 -0.157888E-08  0.798E-05    1.24     108.3  T
     SCC iter.                  ...        0 min,  0.342 sec
     gradient                   ...        0 min,  0.302 sec
 * total energy  :  -272.9449012 Eh     change       -0.1411712E-03 Eh
   gradient norm :     0.0042620 Eh/α   predicted    -0.1244089E-03 ( -11.87%)
   displ. norm   :     0.2001740 α      lambda       -0.3269994E-03
   maximum displ.:     0.0914602 α      in ANC's #8, #20, #22, ...

........................................................................
.............................. CYCLE   23 ..............................
........................................................................
   1   -276.5940419 -0.276594E+03  0.427E-03    1.24       0.0  T
   2   -276.5940439 -0.199333E-05  0.213E-03    1.24       4.0  T
   3   -276.5940442 -0.299876E-06  0.145E-03    1.24       6.0  T
   4   -276.5940447 -0.474845E-06  0.848E-04    1.24      10.2  T
   5   -276.5940449 -0.198132E-06  0.263E-04    1.24      32.8  T
   6   -276.5940449 -0.447943E-08  0.175E-04    1.24      49.5  T
   7   -276.5940449 -0.120005E-07  0.441E-05    1.24     195.9  T
     SCC iter.                  ...        0 min,  0.397 sec
     gradient                   ...        0 min,  0.301 sec
 * total energy  :  -272.9450509 Eh     change       -0.1496778E-03 Eh
   gradient norm :     0.0070787 Eh/α   predicted    -0.1700529E-03 (  13.61%)
   displ. norm   :     0.2623829 α      lambda       -0.3928889E-03
   maximum displ.:     0.1263257 α      in ANC's #8, #22, #11, ...

........................................................................
.............................. CYCLE   24 ..............................
........................................................................
   1   -276.5954049 -0.276595E+03  0.459E-03    1.24       0.0  T
   2   -276.5954077 -0.276606E-05  0.235E-03    1.24       3.7  T
   3   -276.5954086 -0.879358E-06  0.151E-03    1.24       5.7  T
   4   -276.5954092 -0.663637E-06  0.765E-04    1.24      11.3  T
   5   -276.5954093 -0.956819E-07  0.307E-04    1.24      28.1  T
   6   -276.5954093 -0.411467E-08  0.219E-04    1.24      39.4  T
   7   -276.5954094 -0.196635E-07  0.479E-05    1.24     180.3  T
   8   -276.5954094 -0.438831E-09  0.175E-05    1.24     493.5  T
     SCC iter.                  ...        0 min,  0.454 sec
     gradient                   ...        0 min,  0.303 sec
 * total energy  :  -272.9453375 Eh     change       -0.2866005E-03 Eh
   gradient norm :     0.0089291 Eh/α   predicted    -0.2099690E-03 ( -26.74%)
   displ. norm   :     0.3973965 α      lambda       -0.4171068E-03
   maximum displ.:     0.2044853 α      in ANC's #8, #22, #11, ...

........................................................................
.............................. CYCLE   25 ..............................
........................................................................
   1   -276.5936790 -0.276594E+03  0.677E-03    1.24       0.0  T
   2   -276.5936834 -0.444241E-05  0.371E-03    1.24       2.3  T
   3   -276.5936853 -0.191813E-05  0.250E-03    1.24       3.5  T
   4   -276.5936871 -0.172746E-05  0.128E-03    1.24       6.8  T
   5   -276.5936873 -0.216773E-06  0.432E-04    1.24      20.0  T
   6   -276.5936873 -0.310809E-07  0.302E-04    1.24      28.6  T
   7   -276.5936873 -0.383729E-07  0.654E-05    1.24     132.1  T
   8   -276.5936873 -0.840544E-09  0.222E-05    1.24     390.0  T
     SCC iter.                  ...        0 min,  0.454 sec
     gradient                   ...        0 min,  0.301 sec
 * total energy  :  -272.9456305 Eh     change       -0.2930527E-03 Eh
   gradient norm :     0.0084040 Eh/α   predicted    -0.2414893E-03 ( -17.60%)
   displ. norm   :     0.3010979 α      lambda       -0.2337801E-03
   maximum displ.:     0.1729671 α      in ANC's #8, #11, #22, ...

........................................................................
.............................. CYCLE   26 ..............................
........................................................................
   1   -276.5928821 -0.276593E+03  0.395E-03    1.24       0.0  T
   2   -276.5928831 -0.102703E-05  0.243E-03    1.24       3.6  T
   3   -276.5928842 -0.108402E-05  0.155E-03    1.24       5.6  T
   4   -276.5928849 -0.675168E-06  0.720E-04    1.24      12.0  T
   5   -276.5928849 -0.545095E-07  0.232E-04    1.24      37.2  T
   6   -276.5928850 -0.114974E-07  0.157E-04    1.24      55.1  T
   7   -276.5928850 -0.103583E-07  0.368E-05    1.24     235.0  T
     SCC iter.                  ...        0 min,  0.399 sec
     gradient                   ...        0 min,  0.300 sec
 * total energy  :  -272.9458019 Eh     change       -0.1713841E-03 Eh
   gradient norm :     0.0115544 Eh/α   predicted    -0.1274892E-03 ( -25.61%)
   displ. norm   :     0.2791890 α      lambda       -0.3078143E-03
   maximum displ.:     0.1771714 α      in ANC's #8, #11, #14, ...

........................................................................
.............................. CYCLE   27 ..............................
........................................................................
   1   -276.5940699 -0.276594E+03  0.396E-03    1.24       0.0  T
   2   -276.5940713 -0.137782E-05  0.216E-03    1.24       4.0  T
   3   -276.5940716 -0.263045E-06  0.168E-03    1.24       5.1  T
   4   -276.5940724 -0.841236E-06  0.690E-04    1.24      12.5  T
   5   -276.5940725 -0.508383E-07  0.204E-04    1.24      42.4  T
   6   -276.5940725 -0.607463E-08  0.960E-05    1.24      90.0  T
   7   -276.5940725 -0.348939E-08  0.358E-05    1.24     241.4  T
     SCC iter.                  ...        0 min,  0.398 sec
     gradient                   ...        0 min,  0.300 sec
 * total energy  :  -272.9460422 Eh     change       -0.2402413E-03 Eh
   gradient norm :     0.0101234 Eh/α   predicted    -0.1659038E-03 ( -30.94%)
   displ. norm   :     0.3658294 α      lambda       -0.3551129E-03
   maximum displ.:     0.2427804 α      in ANC's #8, #11, #14, ...

........................................................................
.............................. CYCLE   28 ..............................
........................................................................
   1   -276.5956932 -0.276596E+03  0.495E-03    1.24       0.0  T
   2   -276.5956955 -0.231000E-05  0.243E-03    1.24       3.6  T
   3   -276.5956957 -0.276765E-06  0.201E-03    1.24       4.3  T
   4   -276.5956971 -0.131571E-05  0.692E-04    1.24      12.5  T
   5   -276.5956971 -0.475122E-07  0.218E-04    1.24      39.7  T
   6   -276.5956971 -0.198344E-08  0.107E-04    1.24      81.1  T
   7   -276.5956971 -0.407704E-08  0.442E-05    1.24     195.5  T
     SCC iter.                  ...        0 min,  0.400 sec
     gradient                   ...        0 min,  0.303 sec
 * total energy  :  -272.9463089 Eh     change       -0.2666974E-03 Eh
   gradient norm :     0.0078417 Eh/α   predicted    -0.2013192E-03 ( -24.51%)
   displ. norm   :     0.4215217 α      lambda       -0.2814389E-03
   maximum displ.:     0.2889338 α      in ANC's #8, #11, #14, ...

........................................................................
.............................. CYCLE   29 ..............................
........................................................................
   1   -276.5955947 -0.276596E+03  0.468E-03    1.24       0.0  T
   2   -276.5955968 -0.217818E-05  0.253E-03    1.24       3.4  T
   3   -276.5955979 -0.107245E-05  0.172E-03    1.24       5.0  T
   4   -276.5955989 -0.953647E-06  0.584E-04    1.24      14.8  T
   5   -276.5955989 -0.299437E-07  0.219E-04    1.24      39.4  T
   6   -276.5955989  0.328822E-08  0.158E-04    1.24      54.8  T
   7   -276.5955989 -0.114084E-07  0.483E-05    1.24     179.0  T
     SCC iter.                  ...        0 min,  0.398 sec
     gradient                   ...        0 min,  0.299 sec
 * total energy  :  -272.9465262 Eh     change       -0.2173704E-03 Eh
   gradient norm :     0.0089650 Eh/α   predicted    -0.1657230E-03 ( -23.76%)
   displ. norm   :     0.4087456 α      lambda       -0.3181383E-03
   maximum displ.:     0.2914437 α      in ANC's #8, #11, #14, ...

........................................................................
.............................. CYCLE   30 ..............................
........................................................................
   1   -276.5973459 -0.276597E+03  0.580E-03    1.24       0.0  T
   2   -276.5973488 -0.292942E-05  0.252E-03    1.24       3.4  T
   3   -276.5973487  0.108962E-06  0.216E-03    1.24       4.0  T
   4   -276.5973496 -0.853191E-06  0.106E-03    1.24       8.2  T
   5   -276.5973499 -0.321702E-06  0.260E-04    1.24      33.3  T
   6   -276.5973499  0.502683E-08  0.157E-04    1.24      54.9  T
   7   -276.5973499 -0.886661E-08  0.625E-05    1.24     138.3  T
     SCC iter.                  ...        0 min,  0.398 sec
     gradient                   ...        0 min,  0.301 sec
 * total energy  :  -272.9467392 Eh     change       -0.2129693E-03 Eh
   gradient norm :     0.0061895 Eh/α   predicted    -0.1856487E-03 ( -12.83%)
   displ. norm   :     0.5750411 α      lambda       -0.3256740E-03
   maximum displ.:     0.4103113 α      in ANC's #8, #11, #14, ...

........................................................................
.............................. CYCLE   31 ..............................
........................................................................
   1   -276.5923656 -0.276592E+03  0.998E-03    1.24       0.0  T
   2   -276.5923761 -0.104379E-04  0.497E-03    1.24       1.7  T
   3   -276.5923771 -0.101597E-05  0.350E-03    1.24       2.5  T
   4   -276.5923785 -0.134910E-05  0.244E-03    1.24       3.5  T
   5   -276.5923800 -0.156323E-05  0.494E-04    1.24      17.5  T
   6   -276.5923800 -0.225584E-07  0.361E-04    1.24      24.0  T
   7   -276.5923801 -0.566387E-07  0.900E-05    1.24      96.0  T
   8   -276.5923801 -0.189902E-08  0.315E-05    1.24     274.1  T
     SCC iter.                  ...        0 min,  0.454 sec
     gradient                   ...        0 min,  0.300 sec
 * total energy  :  -272.9468861 Eh     change       -0.1468696E-03 Eh
   gradient norm :     0.0141167 Eh/α   predicted    -0.2166830E-03 (  47.53%)
   displ. norm   :     0.1506546 α      lambda       -0.2621805E-03
   maximum displ.:     0.0963637 α      in ANC's #8, #20, #11, ...

........................................................................
.............................. CYCLE   32 ..............................
........................................................................
   1   -276.5944574 -0.276594E+03  0.531E-03    1.24       0.0  T
   2   -276.5944600 -0.254339E-05  0.218E-03    1.24       4.0  T
   3   -276.5944600 -0.695235E-08  0.130E-03    1.24       6.6  T
   4   -276.5944598  0.175146E-06  0.967E-04    1.24       8.9  T
   5   -276.5944601 -0.342290E-06  0.270E-04    1.24      32.0  T
   6   -276.5944601 -0.205704E-07  0.814E-05    1.24     106.1  T
   7   -276.5944601 -0.147713E-08  0.396E-05    1.24     218.2  T
     SCC iter.                  ...        0 min,  0.399 sec
     gradient                   ...        0 min,  0.295 sec
 * total energy  :  -272.9470618 Eh     change       -0.1757856E-03 Eh
   gradient norm :     0.0062835 Eh/α   predicted    -0.1340677E-03 ( -23.73%)
   displ. norm   :     0.3451055 α      lambda       -0.2062329E-03
   maximum displ.:     0.2624883 α      in ANC's #8, #11, #20, ...

........................................................................
.............................. CYCLE   33 ..............................
........................................................................
   1   -276.5939207 -0.276594E+03  0.590E-03    1.24       0.0  T
   2   -276.5939264 -0.569843E-05  0.206E-03    1.24       4.2  T
   3   -276.5939269 -0.428816E-06  0.141E-03    1.24       6.1  T
   4   -276.5939272 -0.314860E-06  0.773E-04    1.24      11.2  T
   5   -276.5939273 -0.144216E-06  0.287E-04    1.24      30.1  T
   6   -276.5939273 -0.601187E-08  0.141E-04    1.24      61.3  T
   7   -276.5939273 -0.680683E-08  0.508E-05    1.24     170.0  T
     SCC iter.                  ...        0 min,  0.396 sec
     gradient                   ...        0 min,  0.300 sec
 * total energy  :  -272.9472152 Eh     change       -0.1533547E-03 Eh
   gradient norm :     0.0054675 Eh/α   predicted    -0.1154005E-03 ( -24.75%)
   displ. norm   :     0.4497680 α      lambda       -0.1682868E-03
   maximum displ.:     0.3493759 α      in ANC's #8, #11, #5, ...

........................................................................
.............................. CYCLE   34 ..............................
........................................................................
   1   -276.5912517 -0.276591E+03  0.547E-03    1.24       0.0  T
   2   -276.5912574 -0.572810E-05  0.226E-03    1.24       3.8  T
   3   -276.5912583 -0.901457E-06  0.127E-03    1.24       6.8  T
   4   -276.5912589 -0.542896E-06  0.497E-04    1.24      17.4  T
   5   -276.5912589 -0.219964E-07  0.217E-04    1.24      39.8  T
   6   -276.5912589  0.405976E-09  0.121E-04    1.24      71.2  T
   7   -276.5912589 -0.609577E-08  0.376E-05    1.24     229.7  T
     SCC iter.                  ...        0 min,  0.397 sec
     gradient                   ...        0 min,  0.300 sec
 * total energy  :  -272.9473385 Eh     change       -0.1232700E-03 Eh
   gradient norm :     0.0066834 Eh/α   predicted    -0.1011659E-03 ( -17.93%)
   displ. norm   :     0.3314210 α      lambda       -0.1515469E-03
   maximum displ.:     0.2630954 α      in ANC's #8, #11, #5, ...

........................................................................
.............................. CYCLE   35 ..............................
........................................................................
   1   -276.5914934 -0.276591E+03  0.577E-03    1.24       0.0  T
   2   -276.5914980 -0.453869E-05  0.236E-03    1.24       3.7  T
   3   -276.5914982 -0.208388E-06  0.162E-03    1.24       5.3  T
   4   -276.5914983 -0.156301E-06  0.114E-03    1.24       7.5  T
   5   -276.5914987 -0.322286E-06  0.326E-04    1.24      26.5  T
   6   -276.5914987 -0.284150E-07  0.714E-05    1.24     121.0  T
   7   -276.5914987 -0.124214E-08  0.279E-05    1.24     310.1  T
     SCC iter.                  ...        0 min,  0.399 sec
     gradient                   ...        0 min,  0.301 sec
 * total energy  :  -272.9474333 Eh     change       -0.9484633E-04 Eh
   gradient norm :     0.0038591 Eh/α   predicted    -0.8409708E-04 ( -11.33%)
   displ. norm   :     0.3443154 α      lambda       -0.8738548E-04
   maximum displ.:     0.2818407 α      in ANC's #8, #11, #5, ...

........................................................................
.............................. CYCLE   36 ..............................
........................................................................
   1   -276.5898091 -0.276590E+03  0.360E-03    1.24       0.0  T
   2   -276.5898113 -0.218899E-05  0.179E-03    1.24       4.8  T
   3   -276.5898118 -0.468775E-06  0.948E-04    1.24       9.1  T
   4   -276.5898120 -0.237931E-06  0.597E-04    1.24      14.5  T
   5   -276.5898121 -0.604457E-07  0.154E-04    1.24      56.0  T
   6   -276.5898121 -0.318187E-08  0.637E-05    1.24     135.7  T
     SCC iter.                  ...        0 min,  0.342 sec
     gradient                   ...        0 min,  0.300 sec
 * total energy  :  -272.9474912 Eh     change       -0.5787874E-04 Eh
   gradient norm :     0.0063539 Eh/α   predicted    -0.4887531E-04 ( -15.56%)
   displ. norm   :     0.2179866 α      lambda       -0.9162250E-04
   maximum displ.:     0.1832764 α      in ANC's #8, #5, #11, ...

........................................................................
.............................. CYCLE   37 ..............................
........................................................................
   1   -276.5907535 -0.276591E+03  0.320E-03    1.24       0.0  T
   2   -276.5907550 -0.152527E-05  0.124E-03    1.24       7.0  T
   3   -276.5907550 -0.153473E-07  0.924E-04    1.24       9.3  T
   4   -276.5907552 -0.165739E-06  0.548E-04    1.24      15.8  T
   5   -276.5907553 -0.560956E-07  0.163E-04    1.24      52.8  T
   6   -276.5907553 -0.460346E-08  0.535E-05    1.24     161.5  T
     SCC iter.                  ...        0 min,  0.342 sec
     gradient                   ...        0 min,  0.301 sec
 * total energy  :  -272.9475578 Eh     change       -0.6659878E-04 Eh
   gradient norm :     0.0042193 Eh/α   predicted    -0.4798928E-04 ( -27.94%)
   displ. norm   :     0.2899346 α      lambda       -0.8532027E-04
   maximum displ.:     0.2459967 α      in ANC's #8, #5, #11, ...

........................................................................
.............................. CYCLE   38 ..............................
........................................................................
   1   -276.5906023 -0.276591E+03  0.340E-03    1.24       0.0  T
   2   -276.5906043 -0.199035E-05  0.134E-03    1.24       6.5  T
   3   -276.5906044 -0.132286E-06  0.930E-04    1.24       9.3  T
   4   -276.5906046 -0.226613E-06  0.470E-04    1.24      18.4  T
   5   -276.5906047 -0.323794E-07  0.165E-04    1.24      52.4  T
   6   -276.5906047 -0.364139E-09  0.892E-05    1.24      96.8  T
     SCC iter.                  ...        0 min,  0.342 sec
     gradient                   ...        0 min,  0.300 sec
 * total energy  :  -272.9476187 Eh     change       -0.6091756E-04 Eh
   gradient norm :     0.0042783 Eh/α   predicted    -0.4624769E-04 ( -24.08%)
   displ. norm   :     0.3100685 α      lambda       -0.8652173E-04
   maximum displ.:     0.2628934 α      in ANC's #8, #5, #11, ...

........................................................................
.............................. CYCLE   39 ..............................
........................................................................
   1   -276.5903788 -0.276590E+03  0.400E-03    1.24       0.0  T
   2   -276.5903808 -0.194906E-05  0.176E-03    1.24       4.9  T
   3   -276.5903808 -0.443362E-07  0.124E-03    1.24       6.9  T
   4   -276.5903809 -0.687272E-07  0.901E-04    1.24       9.6  T
   5   -276.5903812 -0.247831E-06  0.175E-04    1.24      49.3  T
   6   -276.5903812  0.150976E-09  0.117E-04    1.24      73.7  T
     SCC iter.                  ...        0 min,  0.342 sec
     gradient                   ...        0 min,  0.298 sec
 * total energy  :  -272.9476614 Eh     change       -0.4269201E-04 Eh
   gradient norm :     0.0062422 Eh/α   predicted    -0.4742325E-04 (  11.08%)
   displ. norm   :     0.2319848 α      lambda       -0.8517894E-04
   maximum displ.:     0.1935106 α      in ANC's #8, #5, #20, ...

........................................................................
.............................. CYCLE   40 ..............................
........................................................................
   1   -276.5909634 -0.276591E+03  0.313E-03    1.24       0.0  T
   2   -276.5909642 -0.830856E-06  0.143E-03    1.24       6.0  T
   3   -276.5909642  0.355467E-07  0.100E-03    1.24       8.6  T
   4   -276.5909642 -0.799292E-08  0.727E-04    1.24      11.9  T
   5   -276.5909644 -0.186928E-06  0.131E-04    1.24      65.8  T
   6   -276.5909644  0.902673E-10  0.833E-05    1.24     103.7  T
     SCC iter.                  ...        0 min,  0.343 sec
     gradient                   ...        0 min,  0.303 sec
 * total energy  :  -272.9477141 Eh     change       -0.5265398E-04 Eh
   gradient norm :     0.0040482 Eh/α   predicted    -0.4488242E-04 ( -14.76%)
   displ. norm   :     0.2601828 α      lambda       -0.5406607E-04
   maximum displ.:     0.2261241 α      in ANC's #8, #5, #11, ...

........................................................................
.............................. CYCLE   41 ..............................
........................................................................
   1   -276.5905425 -0.276591E+03  0.268E-03    1.24       0.0  T
   2   -276.5905437 -0.125554E-05  0.113E-03    1.24       7.7  T
   3   -276.5905439 -0.130430E-06  0.632E-04    1.24      13.7  T
   4   -276.5905439  0.250884E-08  0.525E-04    1.24      16.4  T
   5   -276.5905439 -0.757481E-07  0.110E-04    1.24      78.4  T
   6   -276.5905439 -0.559282E-09  0.522E-05    1.24     165.6  T
     SCC iter.                  ...        0 min,  0.343 sec
     gradient                   ...        0 min,  0.303 sec
 * total energy  :  -272.9477527 Eh     change       -0.3864271E-04 Eh
   gradient norm :     0.0042961 Eh/α   predicted    -0.2886622E-04 ( -25.30%)
   displ. norm   :     0.2386905 α      lambda       -0.7797374E-04
   maximum displ.:     0.1888689 α      in ANC's #8, #5, #20, ...

........................................................................
.............................. CYCLE   42 ..............................
........................................................................
   1   -276.5932661 -0.276593E+03  0.428E-03    1.24       0.0  T
   2   -276.5932691 -0.300340E-05  0.166E-03    1.24       5.2  T
   3   -276.5932691 -0.505386E-07  0.106E-03    1.24       8.1  T
   4   -276.5932692 -0.646451E-07  0.851E-04    1.24      10.1  T
   5   -276.5932694 -0.177367E-06  0.215E-04    1.24      40.1  T
   6   -276.5932694 -0.899672E-08  0.681E-05    1.24     126.9  T
   7   -276.5932694 -0.139920E-08  0.369E-05    1.24     233.8  T
     SCC iter.                  ...        0 min,  0.399 sec
     gradient                   ...        0 min,  0.303 sec
 * total energy  :  -272.9477890 Eh     change       -0.3632542E-04 Eh
   gradient norm :     0.0029244 Eh/α   predicted    -0.4120973E-04 (  13.45%)
   displ. norm   :     0.1875793 α      lambda       -0.2509776E-04
   maximum displ.:     0.1642916 α      in ANC's #8, #5, #11, ...
 * RMSD in coord.:     0.5101122 α      energy gain  -0.3173427E-02 Eh

generating ANC from model Hessian ...
Using Lindh-Hessian (1995)
 Shifting diagonal of input Hessian by    1.0024316280939641E-002
 Lowest  eigenvalues of input Hessian
    0.010000    0.010009    0.010016    0.000000    0.000000    0.000000
    0.000000    0.000000    0.000000    0.010032    0.010052    0.010094
    0.010110    0.010175    0.010232    0.010380    0.010382    0.010391
 Highest eigenvalues
    2.840402    2.986938    3.583056    3.583150    3.603343    3.604312


........................................................................
.............................. CYCLE   43 ..............................
........................................................................
   1   -276.5924027 -0.276592E+03  0.216E-03    1.24       0.0  T
   2   -276.5924034 -0.735627E-06  0.965E-04    1.24       9.0  T
   3   -276.5924035 -0.863011E-07  0.504E-04    1.24      17.1  T
   4   -276.5924035  0.442237E-07  0.488E-04    1.24      17.7  T
   5   -276.5924036 -0.768393E-07  0.751E-05    1.24     115.0  T
   6   -276.5924036 -0.111226E-08  0.320E-05    1.24     269.8  T
     SCC iter.                  ...        0 min,  0.344 sec
     gradient                   ...        0 min,  0.303 sec
 * total energy  :  -272.9478055 Eh     change       -0.1651029E-04 Eh
   gradient norm :     0.0027228 Eh/α   predicted     0.0000000E+00 (-100.00%)
   displ. norm   :     0.0238806 α      lambda       -0.1446095E-04
   maximum displ.:     0.0104547 α      in ANC's #10, #29, #17, ...

........................................................................
.............................. CYCLE   44 ..............................
........................................................................
   1   -276.5925990 -0.276593E+03  0.686E-04    1.24       0.0  T
   2   -276.5925991 -0.481220E-07  0.345E-04    1.24      25.1  T
   3   -276.5925991 -0.106621E-08  0.212E-04    1.24      40.8  T
   4   -276.5925991  0.147793E-11  0.175E-04    1.24      49.3  T
   5   -276.5925991 -0.899212E-08  0.452E-05    1.24     191.1  T
     SCC iter.                  ...        0 min,  0.287 sec
     gradient                   ...        0 min,  0.303 sec
 * total energy  :  -272.9478166 Eh     change       -0.1105991E-04 Eh
   gradient norm :     0.0013830 Eh/α   predicted    -0.8103570E-05 ( -26.73%)
   displ. norm   :     0.0898479 α      lambda       -0.2955606E-04
   maximum displ.:     0.0466554 α      in ANC's #10, #29, #31, ...

........................................................................
.............................. CYCLE   45 ..............................
........................................................................
   1   -276.5929794 -0.276593E+03  0.246E-03    1.24       0.0  T
   2   -276.5929802 -0.750599E-06  0.118E-03    1.24       7.3  T
   3   -276.5929802 -0.398475E-07  0.713E-04    1.24      12.1  T
   4   -276.5929802  0.112635E-08  0.603E-04    1.24      14.3  T
   5   -276.5929803 -0.106977E-06  0.152E-04    1.24      56.8  T
   6   -276.5929803 -0.465974E-08  0.569E-05    1.24     151.8  T
     SCC iter.                  ...        0 min,  0.342 sec
     gradient                   ...        0 min,  0.301 sec
 * total energy  :  -272.9478177 Eh     change       -0.1080129E-05 Eh
   gradient norm :     0.0045758 Eh/α   predicted    -0.1483119E-04 (1273.09%)
   displ. norm   :     0.0166841 α      lambda       -0.2414628E-04
   maximum displ.:     0.0089315 α      in ANC's #17, #76, #24, ...

........................................................................
.............................. CYCLE   46 ..............................
........................................................................
   1   -276.5926836 -0.276593E+03  0.624E-04    1.24       0.0  T
   2   -276.5926836 -0.117365E-07  0.362E-04    1.24      23.9  T
   3   -276.5926836  0.522226E-08  0.253E-04    1.24      34.1  T
   4   -276.5926836 -0.155931E-07  0.143E-04    1.24      60.4  T
   5   -276.5926836 -0.567303E-08  0.418E-05    1.24     206.8  T
     SCC iter.                  ...        0 min,  0.287 sec
     gradient                   ...        0 min,  0.303 sec
 * total energy  :  -272.9478349 Eh     change       -0.1723100E-04 Eh
   gradient norm :     0.0026181 Eh/α   predicted    -0.1207672E-04 ( -29.91%)
   displ. norm   :     0.0273855 α      lambda       -0.1701987E-04
   maximum displ.:     0.0152887 α      in ANC's #10, #19, #17, ...

........................................................................
.............................. CYCLE   47 ..............................
........................................................................
   1   -276.5922946 -0.276592E+03  0.886E-04    1.24       0.0  T
   2   -276.5922946 -0.319305E-07  0.515E-04    1.24      16.8  T
   3   -276.5922946  0.217580E-08  0.356E-04    1.24      24.3  T
   4   -276.5922946 -0.267131E-07  0.217E-04    1.24      39.8  T
   5   -276.5922946 -0.124326E-07  0.582E-05    1.24     148.5  T
   6   -276.5922946 -0.749310E-09  0.206E-05    1.24     420.0  T
     SCC iter.                  ...        0 min,  0.343 sec
     gradient                   ...        0 min,  0.302 sec
 * total energy  :  -272.9478439 Eh     change       -0.8945562E-05 Eh
   gradient norm :     0.0008456 Eh/α   predicted    -0.8519180E-05 (  -4.77%)
   displ. norm   :     0.0586283 α      lambda       -0.1058705E-04
   maximum displ.:     0.0347874 α      in ANC's #10, #1, #19, ...

........................................................................
.............................. CYCLE   48 ..............................
........................................................................
   1   -276.5919439 -0.276592E+03  0.849E-04    1.24       0.0  T
   2   -276.5919439 -0.816144E-07  0.426E-04    1.24      20.3  T
   3   -276.5919440 -0.180922E-07  0.267E-04    1.24      32.3  T
   4   -276.5919440 -0.143343E-07  0.174E-04    1.24      49.6  T
   5   -276.5919440 -0.686384E-08  0.420E-05    1.24     205.8  T
     SCC iter.                  ...        0 min,  0.288 sec
     gradient                   ...        0 min,  0.302 sec
 * total energy  :  -272.9478476 Eh     change       -0.3703462E-05 Eh
   gradient norm :     0.0021442 Eh/α   predicted    -0.5304769E-05 (  43.24%)
   displ. norm   :     0.0338487 α      lambda       -0.1124846E-04
   maximum displ.:     0.0213385 α      in ANC's #10, #19, #1, ...

........................................................................
.............................. CYCLE   49 ..............................
........................................................................
   1   -276.5920425 -0.276592E+03  0.441E-04    1.24       0.0  T
   2   -276.5920426 -0.368175E-07  0.171E-04    1.24      50.5  T
   3   -276.5920426 -0.436387E-08  0.769E-05    1.24     112.4  T
     SCC iter.                  ...        0 min,  0.174 sec
     gradient                   ...        0 min,  0.303 sec
 * total energy  :  -272.9478569 Eh     change       -0.9313015E-05 Eh
   gradient norm :     0.0016401 Eh/α   predicted    -0.5634070E-05 ( -39.50%)
   displ. norm   :     0.1529200 α      lambda       -0.2408377E-04
   maximum displ.:     0.0973675 α      in ANC's #10, #19, #1, ...

........................................................................
.............................. CYCLE   50 ..............................
........................................................................
   1   -276.5922972 -0.276592E+03  0.205E-03    1.24       0.0  T
   2   -276.5922980 -0.795075E-06  0.813E-04    1.24      10.6  T
   3   -276.5922981 -0.103412E-06  0.351E-04    1.24      24.6  T
   4   -276.5922981  0.169179E-07  0.299E-04    1.24      28.9  T
   5   -276.5922981 -0.340194E-07  0.770E-05    1.24     112.2  T
   6   -276.5922981 -0.371472E-09  0.454E-05    1.24     190.3  T
     SCC iter.                  ...        0 min,  0.343 sec
     gradient                   ...        0 min,  0.300 sec
 * total energy  :  -272.9478729 Eh     change       -0.1605897E-04 Eh
   gradient norm :     0.0011593 Eh/α   predicted    -0.1216746E-04 ( -24.23%)
   displ. norm   :     0.0775258 α      lambda       -0.9891710E-05
   maximum displ.:     0.0494998 α      in ANC's #10, #19, #1, ...

........................................................................
.............................. CYCLE   51 ..............................
........................................................................
   1   -276.5923210 -0.276592E+03  0.100E-03    1.24       0.0  T
   2   -276.5923212 -0.201915E-06  0.412E-04    1.24      21.0  T
   3   -276.5923212 -0.331138E-07  0.185E-04    1.24      46.6  T
   4   -276.5923212 -0.926326E-08  0.951E-05    1.24      90.8  T
     SCC iter.                  ...        0 min,  0.232 sec
     gradient                   ...        0 min,  0.302 sec
 * total energy  :  -272.9478840 Eh     change       -0.1102624E-04 Eh
   gradient norm :     0.0009769 Eh/α   predicted    -0.4960586E-05 ( -55.01%)
   displ. norm   :     0.1692118 α      lambda       -0.1873327E-04
   maximum displ.:     0.1070552 α      in ANC's #10, #1, #19, ...

........................................................................
.............................. CYCLE   52 ..............................
........................................................................
   1   -276.5923492 -0.276592E+03  0.228E-03    1.24       0.0  T
   2   -276.5923502 -0.104621E-05  0.981E-04    1.24       8.8  T
   3   -276.5923504 -0.193992E-06  0.439E-04    1.24      19.7  T
   4   -276.5923505 -0.531595E-07  0.239E-04    1.24      36.2  T
   5   -276.5923505 -0.924007E-08  0.858E-05    1.24     100.7  T
   6   -276.5923505  0.175874E-09  0.628E-05    1.24     137.6  T
     SCC iter.                  ...        0 min,  0.339 sec
     gradient                   ...        0 min,  0.299 sec
 * total energy  :  -272.9479023 Eh     change       -0.1834538E-04 Eh
   gradient norm :     0.0013238 Eh/α   predicted    -0.9486254E-05 ( -48.29%)
   displ. norm   :     0.1348166 α      lambda       -0.1012220E-04
   maximum displ.:     0.0840023 α      in ANC's #10, #1, #19, ...

........................................................................
.............................. CYCLE   53 ..............................
........................................................................
   1   -276.5924375 -0.276592E+03  0.194E-03    1.24       0.0  T
   2   -276.5924383 -0.773163E-06  0.823E-04    1.24      10.5  T
   3   -276.5924384 -0.154514E-06  0.336E-04    1.24      25.7  T
   4   -276.5924385 -0.407118E-07  0.168E-04    1.24      51.4  T
   5   -276.5924385 -0.498483E-08  0.686E-05    1.24     125.9  T
     SCC iter.                  ...        0 min,  0.287 sec
     gradient                   ...        0 min,  0.302 sec
 * total energy  :  -272.9479136 Eh     change       -0.1130553E-04 Eh
   gradient norm :     0.0012507 Eh/α   predicted    -0.5102224E-05 ( -54.87%)
   displ. norm   :     0.1333290 α      lambda       -0.1012580E-04
   maximum displ.:     0.0798072 α      in ANC's #10, #1, #19, ...

........................................................................
.............................. CYCLE   54 ..............................
........................................................................
   1   -276.5926194 -0.276593E+03  0.222E-03    1.24       0.0  T
   2   -276.5926204 -0.100287E-05  0.885E-04    1.24       9.8  T
   3   -276.5926206 -0.183131E-06  0.360E-04    1.24      24.0  T
   4   -276.5926207 -0.499668E-07  0.165E-04    1.24      52.4  T
   5   -276.5926207 -0.537642E-08  0.783E-05    1.24     110.4  T
     SCC iter.                  ...        0 min,  0.286 sec
     gradient                   ...        0 min,  0.302 sec
 * total energy  :  -272.9479237 Eh     change       -0.1004928E-04 Eh
   gradient norm :     0.0007768 Eh/α   predicted    -0.5104814E-05 ( -49.20%)
   displ. norm   :     0.0641554 α      lambda       -0.4268458E-05
   maximum displ.:     0.0344424 α      in ANC's #10, #1, #6, ...

........................................................................
.............................. CYCLE   55 ..............................
........................................................................
   1   -276.5926748 -0.276593E+03  0.138E-03    1.24       0.0  T
   2   -276.5926752 -0.374708E-06  0.509E-04    1.24      17.0  T
   3   -276.5926753 -0.560258E-07  0.227E-04    1.24      38.0  T
   4   -276.5926753 -0.178931E-07  0.113E-04    1.24      76.7  T
   5   -276.5926753 -0.253175E-08  0.481E-05    1.24     179.5  T
     SCC iter.                  ...        0 min,  0.288 sec
     gradient                   ...        0 min,  0.304 sec
 * total energy  :  -272.9479282 Eh     change       -0.4527803E-05 Eh
   gradient norm :     0.0005844 Eh/α   predicted    -0.2142971E-05 ( -52.67%)
   displ. norm   :     0.0634165 α      lambda       -0.3671852E-05
   maximum displ.:     0.0308126 α      in ANC's #1, #10, #6, ...

   *** GEOMETRY OPTIMIZATION CONVERGED AFTER 55 ITERATIONS ***

------------------------------------------------------------------------
 total energy gain   :        -1.1178351 Eh     -701.4521 kcal/mol
 total RMSD          :         0.8667119 a0        0.4586 Å
 total power (kW/mol):       -53.3613771 (step)  -63.1726 (real)
------------------------------------------------------------------------

 ANCopt (total)                0 d,  0 h,  0 min, 46.458 sec
 optimizer setup                ...        0 min,  0.000 sec (  0.001%)
 model hessian                  ...        0 min,  0.140 sec (  0.302%)
 ANC generation                 ...        0 min,  0.078 sec (  0.167%)
 coordinate transformation      ...        0 min,  0.007 sec (  0.015%)
 single point calculation       ...        0 min, 46.168 sec ( 99.375%)
 optimization log               ...        0 min,  0.027 sec (  0.058%)
 hessian update                 ...        0 min,  0.007 sec (  0.016%)
 rational function              ...        0 min,  0.025 sec (  0.055%)

================
 final structure:
================
134
 xtb: 6.5.1 (b24c23e)
Ni          15.73993512986189        0.01839327759060        0.04722321852138
C           12.34999925824879        0.11772287815110        0.08443899512315
C           12.99797340546058       -0.32602316271248        1.21830113517541
C           12.31875760710746       -0.77417632634226        2.39575630355111
C           13.27242658342192       -1.02160424796595        3.32362704901499
C           14.53354807932964       -0.71297682847943        2.71463611991636
N           14.35710196918418       -0.32591196438801        1.41025383451017
C           15.75043437917154       -0.75385812422093        3.38296670945901
C           15.75776576481906       -1.08796307731902        4.82682536034183
C           15.10123229695120       -0.26372427439052        5.74391421346879
C           15.11076803605484       -0.56840022441729        7.09515706718157
C           15.77719403108805       -1.70809054591632        7.51500079415244
S           15.79994303188879       -2.09564427112713        9.22463920694422
O           15.56474542989038       -0.92262267833078       10.01340313765943
O           14.46591518651944       -3.02104781873798        9.27310433001961
O           16.92526422292840       -2.92301202308644        9.54742505135211
C           16.43741438197166       -2.54464435144075        6.62968436063164
C           16.42636445342350       -2.22728588113089        5.28148962694062
C           16.96193929538372       -0.49287764985338        2.75617567365203
C           18.22254188054648       -0.46854658893229        3.43454523295510
C           19.17209064405741       -0.27735971836847        2.48754963721143
N           17.13560519747926       -0.27227960702652        1.40902622877993
C           18.48940855438419       -0.17693211497872        1.23702272489441
C           19.15008647655157       -0.08108857558049        0.00931698534631
C           18.46861556116584        0.05022993969742       -1.20387219066701
C           19.12765043158783        0.10750851262293       -2.46958384581440
C           18.17014457880663        0.35476168929856       -3.39553880100088
C           16.92924920062568        0.45767389586951       -2.68890868313254
N           17.11949110629210        0.22571826195733       -1.34591049521653
C           15.72292765119601        0.79903990508865       -3.28687532900017
C           15.71780798051492        1.14380037117387       -4.72789004906639
C           14.96712555678093        0.38800227478191       -5.63177199855282
C           14.95455417216229        0.71120818291880       -6.97869800752072
C           15.69862683413039        1.79768305013838       -7.40883569446898
S           15.67357709218639        2.22318418808344       -9.11036208851335
O           16.00417394498938        3.60579024764682       -9.30094902911405
O           16.95044793520868        1.35079733737569       -9.60661938248249
O           14.49222807700643        1.70541587244714       -9.73165700609883
C           16.45106250385945        2.56736701818689       -6.53647993892621
C           16.45891474119789        2.23345593862344       -5.19230519912132
C           14.52158103084996        0.83248230246697       -2.59002360029742
C           13.26828605598138        1.22270364494609       -3.16783727207494
C           12.32180500395566        1.02343293065946       -2.22131404250275
C           12.99846638221035        0.52650033434137       -1.06223257925743
N           14.35078602499547        0.44734773069801       -1.28417090152617
H           11.26687245045464        0.14919942793407        0.09596484986783
H           11.24897935523957       -0.87828985885688        2.48165748354363
H           13.14716871658566       -1.38325895296075        4.33127152316974
H           14.59571358854866        0.62928186040432        5.39539958017724
H           14.61564576320393        0.06944952780970        7.81649731500047
H           14.35210050240852       -3.39798334365423       10.15403934826854
H           16.95300446121164       -3.42452366952058        6.99347475553083
H           16.92916863215050       -2.87257494506818        4.57066195072404
[...]
    30   6 C    3.938 --    28 C    1.326    41 C    1.322    31 C    1.029
    31   6 C    3.986 --    32 C    1.391    40 C    1.390    30 C    1.029
    32   6 C    3.987 --    33 C    1.449    31 C    1.391    58 H    0.971
                            39 C    0.106
    33   6 C    3.989 --    32 C    1.449    34 C    1.408    59 H    0.966
                            40 C    0.106
    34   6 C    3.931 --    33 C    1.408    39 C    1.407    35 S    0.753
    35  16 S    5.269 --    38 O    1.731    36 O    1.712    37 O    1.016
                            34 C    0.753
    36   8 O    2.071 --    35 S    1.712    38 O    0.138
    37   8 O    2.090 --    35 S    1.016    60 H    0.828
    38   8 O    2.088 --    35 S    1.731    36 O    0.138
    39   6 C    3.989 --    40 C    1.450    34 C    1.407    61 H    0.967
                            32 C    0.106
    40   6 C    3.987 --    39 C    1.450    31 C    1.390    62 H    0.971
                            33 C    0.106
    41   6 C    3.921 --    30 C    1.322    45 N    1.222    42 C    1.175
    42   6 C    3.963 --    43 C    1.651    41 C    1.175    63 H    0.972
    43   6 C    3.960 --    42 C    1.651    44 C    1.174    64 H    0.974
    44   6 C    3.921 --     2 C    1.364    45 N    1.212    43 C    1.174
    45   7 N    3.402 --    41 C    1.222    44 C    1.212     1 Ni   0.664
    46   1 H    1.000 --     2 C    0.970
    47   1 H    0.997 --     4 C    0.975
    48   1 H    1.003 --     5 C    0.973
    49   1 H    1.003 --    10 C    0.971
    50   1 H    0.999 --    11 C    0.967
    51   1 H    0.854 --    15 O    0.828
    52   1 H    0.999 --    17 C    0.967
    53   1 H    1.003 --    18 C    0.971
    54   1 H    1.003 --    20 C    0.973
    55   1 H    1.001 --    21 C    0.973
    56   1 H    1.001 --    26 C    0.973
    57   1 H    1.003 --    27 C    0.973
    58   1 H    1.003 --    32 C    0.971
    59   1 H    0.999 --    33 C    0.966
    60   1 H    0.855 --    37 O    0.828
    61   1 H    1.000 --    39 C    0.967
    62   1 H    1.003 --    40 C    0.971
    63   1 H    1.003 --    42 C    0.972
    64   1 H    0.997 --    43 C    0.974
    65  28 Ni   3.013 --   109 N    0.664    71 N    0.664    86 N    0.660
                            93 N    0.660
    66   6 C    3.936 --   108 C    1.364    67 C    1.364   110 H    0.970
    67   6 C    3.921 --    66 C    1.364    71 N    1.212    68 C    1.174
    68   6 C    3.960 --    69 C    1.651    67 C    1.174   111 H    0.975
    69   6 C    3.963 --    68 C    1.651    70 C    1.175   112 H    0.973
    70   6 C    3.921 --    72 C    1.322    71 N    1.222    69 C    1.175
    71   7 N    3.401 --    70 C    1.222    67 C    1.212    65 Ni   0.664
    72   6 C    3.938 --    83 C    1.326    70 C    1.322    73 C    1.028
    73   6 C    3.986 --    74 C    1.391    82 C    1.391    72 C    1.028
    74   6 C    3.987 --    75 C    1.449    73 C    1.391   113 H    0.971
                            81 C    0.106
    75   6 C    3.989 --    74 C    1.449    76 C    1.408   114 H    0.967
                            82 C    0.106
    76   6 C    3.931 --    75 C    1.408    81 C    1.407    77 S    0.754
    77  16 S    5.265 --    78 O    1.722    80 O    1.717    79 O    1.013
                            76 C    0.754
    78   8 O    2.080 --    77 S    1.722    80 O    0.139
    79   8 O    2.087 --    77 S    1.013   115 H    0.828
    80   8 O    2.076 --    77 S    1.717    78 O    0.139
    81   6 C    3.989 --    82 C    1.450    76 C    1.407   116 H    0.967
                            74 C    0.106
    82   6 C    3.987 --    81 C    1.450    73 C    1.391   117 H    0.971
                            75 C    0.106
    83   6 C    3.915 --    72 C    1.326    86 N    1.208    84 C    1.183
    84   6 C    3.958 --    85 C    1.637    83 C    1.183   118 H    0.973
    85   6 C    3.961 --    84 C    1.637    87 C    1.191   119 H    0.973
    86   7 N    3.406 --    87 C    1.237    83 C    1.208    65 Ni   0.660
    87   6 C    3.902 --    88 C    1.264    86 N    1.237    85 C    1.191
    88   6 C    3.945 --    87 C    1.264    89 C    1.263   134 C    1.184
    89   6 C    3.902 --    88 C    1.263    93 N    1.237    90 C    1.191
    90   6 C    3.961 --    91 C    1.636    89 C    1.191   120 H    0.973
    91   6 C    3.958 --    90 C    1.636    92 C    1.183   121 H    0.973
    92   6 C    3.915 --    94 C    1.326    93 N    1.208    91 C    1.183
    93   7 N    3.406 --    89 C    1.237    92 C    1.208    65 Ni   0.660
    94   6 C    3.938 --    92 C    1.326   105 C    1.322    95 C    1.029
    95   6 C    3.986 --    96 C    1.391   104 C    1.390    94 C    1.029
    96   6 C    3.987 --    97 C    1.449    95 C    1.391   122 H    0.971
                           103 C    0.106
    97   6 C    3.989 --    96 C    1.449    98 C    1.408   123 H    0.966
                           104 C    0.106
    98   6 C    3.931 --    97 C    1.408   103 C    1.407    99 S    0.753
    99  16 S    5.269 --   102 O    1.730   100 O    1.712   101 O    1.015
                            98 C    0.753
   100   8 O    2.071 --    99 S    1.712   102 O    0.138
   101   8 O    2.090 --    99 S    1.015   124 H    0.828
   102   8 O    2.088 --    99 S    1.730   100 O    0.138
   103   6 C    3.989 --   104 C    1.450    98 C    1.407   125 H    0.967
                            96 C    0.106
   104   6 C    3.987 --   103 C    1.450    95 C    1.390   126 H    0.971
                            97 C    0.106
   105   6 C    3.921 --    94 C    1.322   109 N    1.222   106 C    1.175
   106   6 C    3.963 --   107 C    1.651   105 C    1.175   127 H    0.972
   107   6 C    3.960 --   106 C    1.651   108 C    1.174   128 H    0.974
   108   6 C    3.921 --    66 C    1.364   109 N    1.212   107 C    1.174
   109   7 N    3.402 --   105 C    1.222   108 C    1.212    65 Ni   0.664
   110   1 H    1.000 --    66 C    0.970
   111   1 H    0.997 --    68 C    0.975
   112   1 H    1.003 --    69 C    0.973
   113   1 H    1.003 --    74 C    0.971
   114   1 H    0.999 --    75 C    0.967
   115   1 H    0.854 --    79 O    0.828
   116   1 H    0.999 --    81 C    0.967
   117   1 H    1.003 --    82 C    0.971
   118   1 H    1.003 --    84 C    0.973
   119   1 H    1.001 --    85 C    0.973
   120   1 H    1.001 --    90 C    0.973
   121   1 H    1.003 --    91 C    0.973
   122   1 H    1.003 --    96 C    0.971
   123   1 H    0.999 --    97 C    0.966
   124   1 H    0.855 --   101 O    0.828
   125   1 H    1.000 --   103 C    0.967
   126   1 H    1.003 --   104 C    0.971
   127   1 H    1.003 --   106 C    0.972
   128   1 H    0.997 --   107 C    0.974
   129   6 C    3.928 --   130 C    2.376   133 C    1.330   132 C    0.191
   130   6 C    3.928 --   129 C    2.376   131 C    1.330   134 C    0.191
   131   6 C    3.938 --   132 C    2.458   130 C    1.330
   132   6 C    3.892 --   131 C    2.458    24 C    1.184   129 C    0.191
   133   6 C    3.938 --   134 C    2.458   129 C    1.330
   134   6 C    3.892 --   133 C    2.458    88 C    1.184   130 C    0.191
 ---------------------------------------------------------------------------

Topologies differ in total number of bonds
Writing topology from bond orders to xtbtopo.mol

 dipole moment from electron density (au)
     X       Y       Z   
   0.0032  -1.5432  -0.2915  total (Debye):    3.992

           -------------------------------------------------
          |                Geometry Summary                 |
           -------------------------------------------------

      molecular mass/u    :     1428.7455901
   center of mass at/Å    :       23.7366345       0.0182984       0.0035960
  moments of inertia/u·Å² :        0.4683514E+05   0.9176975E+05   0.1375011E+06
rotational constants/cm⁻¹ :        0.3599356E-03   0.1836949E-03   0.1225999E-03

 * 137 selected distances

     #   Z          #   Z                                           value/Å
     2   6 C        3   6 C                                       1.3792841
     3   6 C        4   6 C                                       1.4312849
     4   6 C        5   6 C                                       1.3533845
     5   6 C        6   6 C                                       1.4340672
     3   6 C        7   7 N                                       1.3726167
     6   6 C        7   7 N                                       1.3719934
     6   6 C        8   6 C                                       1.3889383
     9   6 C       10   6 C                                       1.3969460
    10   6 C       11   6 C                                       1.3851989
    11   6 C       12   6 C                                       1.3853832
    12   6 C       13  16 S                                       1.7531627
    13  16 S       14   8 O                                       1.4329852
    13  16 S       15   8 O                                       1.6243003
    13  16 S       16   8 O                                       1.4335537
    12   6 C       17   6 C                                       1.3854598
     9   6 C       18   6 C                                       1.3970686
    17   6 C       18   6 C                                       1.3850877
     8   6 C       19   6 C                                       1.3887845
    19   6 C       20   6 C                                       1.4317460
    20   6 C       21   6 C                                       1.3546203
    19   6 C       22   7 N                                       1.3760942
    21   6 C       23   6 C                                       1.4282711
    22   7 N       23   6 C                                       1.3680132
    23   6 C       24   6 C                                       1.3974774
    24   6 C       25   6 C                                       1.3976679
    25   6 C       26   6 C                                       1.4281576
    26   6 C       27   6 C                                       1.3547489
    27   6 C       28   6 C                                       1.4316909
    25   6 C       29   7 N                                       1.3678846
    28   6 C       29   7 N                                       1.3760959
    28   6 C       30   6 C                                       1.3889949
    31   6 C       32   6 C                                       1.3970533
    32   6 C       33   6 C                                       1.3852184
    33   6 C       34   6 C                                       1.3853124
    34   6 C       35  16 S                                       1.7541013 (max)
    35  16 S       36   8 O                                       1.4343004
    35  16 S       37   8 O                                       1.6241089
    35  16 S       38   8 O                                       1.4316694
    34   6 C       39   6 C                                       1.3854883
    31   6 C       40   6 C                                       1.3972367
    39   6 C       40   6 C                                       1.3850503
    30   6 C       41   6 C                                       1.3892281
    41   6 C       42   6 C                                       1.4341862
    42   6 C       43   6 C                                       1.3533077
     2   6 C       44   6 C                                       1.3792986
    43   6 C       44   6 C                                       1.4311823
    41   6 C       45   7 N                                       1.3721338
    44   6 C       45   7 N                                       1.3726946
     2   6 C       46   1 H                                       1.0836455
     4   6 C       47   1 H                                       1.0782599
     5   6 C       48   1 H                                       1.0778828
    10   6 C       49   1 H                                       1.0837305
    11   6 C       50   1 H                                       1.0827420
    15   8 O       51   1 H                                       0.9649253 (min)
    17   6 C       52   1 H                                       1.0827578
    18   6 C       53   1 H                                       1.0837372
    20   6 C       54   1 H                                       1.0776931
    21   6 C       55   1 H                                       1.0779472
    26   6 C       56   1 H                                       1.0779605
    27   6 C       57   1 H                                       1.0777046
    32   6 C       58   1 H                                       1.0837344
    33   6 C       59   1 H                                       1.0827273
    37   8 O       60   1 H                                       0.9650581
    39   6 C       61   1 H                                       1.0828018
    40   6 C       62   1 H                                       1.0837341
    42   6 C       63   1 H                                       1.0778103
    43   6 C       64   1 H                                       1.0782334
    66   6 C       67   6 C                                       1.3792719
    67   6 C       68   6 C                                       1.4312737
    68   6 C       69   6 C                                       1.3533882
    69   6 C       70   6 C                                       1.4340634
    67   6 C       71   7 N                                       1.3726286
    70   6 C       71   7 N                                       1.3719751
    70   6 C       72   6 C                                       1.3889424
    73   6 C       74   6 C                                       1.3969557
    74   6 C       75   6 C                                       1.3851972
    75   6 C       76   6 C                                       1.3853919
    76   6 C       77  16 S                                       1.7531589
    77  16 S       78   8 O                                       1.4329733
    77  16 S       79   8 O                                       1.6243076
    77  16 S       80   8 O                                       1.4335538
    76   6 C       81   6 C                                       1.3854616
    73   6 C       82   6 C                                       1.3970777
    81   6 C       82   6 C                                       1.3850836
    72   6 C       83   6 C                                       1.3888097
    83   6 C       84   6 C                                       1.4317383
    84   6 C       85   6 C                                       1.3546234
    83   6 C       86   7 N                                       1.3761242
    85   6 C       87   6 C                                       1.4282315
    86   7 N       87   6 C                                       1.3680441
    87   6 C       88   6 C                                       1.3975043
    88   6 C       89   6 C                                       1.3976363
    89   6 C       90   6 C                                       1.4281663
    90   6 C       91   6 C                                       1.3547528
    91   6 C       92   6 C                                       1.4316656
    89   6 C       93   7 N                                       1.3678652
    92   6 C       93   7 N                                       1.3761002
    92   6 C       94   6 C                                       1.3889696
    95   6 C       96   6 C                                       1.3970379
    96   6 C       97   6 C                                       1.3852081
    97   6 C       98   6 C                                       1.3853106
    98   6 C       99  16 S                                       1.7540734
    99  16 S      100   8 O                                       1.4342612
    99  16 S      101   8 O                                       1.6240931
    99  16 S      102   8 O                                       1.4317297
    98   6 C      103   6 C                                       1.3854841
    95   6 C      104   6 C                                       1.3972222
   103   6 C      104   6 C                                       1.3850662
    94   6 C      105   6 C                                       1.3892138
   105   6 C      106   6 C                                       1.4341956
   106   6 C      107   6 C                                       1.3533022
    66   6 C      108   6 C                                       1.3793047
   107   6 C      108   6 C                                       1.4311991
   105   6 C      109   7 N                                       1.3721344
   108   6 C      109   7 N                                       1.3726810
    66   6 C      110   1 H                                       1.0836427
    68   6 C      111   1 H                                       1.0782620
    69   6 C      112   1 H                                       1.0778817
    74   6 C      113   1 H                                       1.0837321
    75   6 C      114   1 H                                       1.0827436
    79   8 O      115   1 H                                       0.9649263
    81   6 C      116   1 H                                       1.0827592
    82   6 C      117   1 H                                       1.0837369
    84   6 C      118   1 H                                       1.0776859
    85   6 C      119   1 H                                       1.0779430
    90   6 C      120   1 H                                       1.0779611
    91   6 C      121   1 H                                       1.0777020
    96   6 C      122   1 H                                       1.0837310
    97   6 C      123   1 H                                       1.0827208
   101   8 O      124   1 H                                       0.9650060
   103   6 C      125   1 H                                       1.0827997
   104   6 C      126   1 H                                       1.0837367
   106   6 C      127   1 H                                       1.0778117
   107   6 C      128   1 H                                       1.0782311
   129   6 C      130   6 C                                       1.2278081
   131   6 C      132   6 C                                       1.2231608
   133   6 C      134   6 C                                       1.2231673

 * 6 distinct bonds (by element types)

   Z      Z             #   av. dist./Å        max./Å        min./Å
   1 H    6 C          34     1.0807701     1.0837372     1.0776859
   6 C    6 C          67     1.3875778     1.4341956     1.2231608
   6 C    7 N          16     1.3721925     1.3761242     1.3678652
   1 H    8 O           4     0.9649789     0.9650581     0.9649253
   6 C   16 S           4     1.7536241     1.7541013     1.7531589
   8 O   16 S          12     1.4968197     1.6243076     1.4316694


optimized geometry written to: xtbopt.xyz


           -------------------------------------------------
          | TOTAL ENERGY             -272.947928187106 Eh   |
          | GRADIENT NORM               0.000584698519 Eh/α |
          | HOMO-LUMO GAP               1.237121815451 eV   |
           -------------------------------------------------

------------------------------------------------------------------------
 * finished run on 2022/07/30 at 11:05:38.733     
------------------------------------------------------------------------
 total:
 * wall-time:     0 d,  0 h,  0 min, 49.411 sec
 *  cpu-time:     0 d,  0 h,  0 min, 49.188 sec
 * ratio c/w:     0.995 speedup
 SCF:
 * wall-time:     0 d,  0 h,  0 min,  2.191 sec
 *  cpu-time:     0 d,  0 h,  0 min,  2.180 sec
 * ratio c/w:     0.995 speedup
 ANC optimizer:
 * wall-time:     0 d,  0 h,  0 min, 47.086 sec
 *  cpu-time:     0 d,  0 h,  0 min, 46.877 sec
 * ratio c/w:     0.996 speedup

