304
 energy: -543.574707736614 gnorm: 0.000598253600 xtb: 6.5.1 (b24c23e)
Cu          42.85595247790506        0.08247353081488       -0.04427645518659
C           39.44854300965811        0.19186121070273       -0.10982080776897
C           40.08407255386665        1.03866914820167        0.78614117417818
C           39.41080124798928        1.92973320030918        1.68807581270541
C           40.37096311975729        2.57096069390066        2.39932079898903
C           41.63966861249865        2.08177784911105        1.93389928449167
N           41.43423348608768        1.15245297906992        0.95541748780156
C           42.88215259415976        2.48205480686950        2.42643386285008
C           44.11341453514396        1.99050155206796        1.99575646225005
C           45.38881256314890        2.43445561572922        2.48171092290959
C           46.33735571938083        1.74222992821871        1.80179228189857
N           44.30539831153939        1.03776090839444        1.03001383278053
C           45.64895676400376        0.87262915258232        0.89446851265413
C           46.28679301650000       -0.00591035530279        0.00099535393170
C           45.62791513038052       -0.85978202672861       -0.90102313745227
C           46.29407141441028       -1.77648323961666       -1.77797974406223
C           45.32914104428085       -2.43119787368433       -2.47179022648135
C           44.06600837301878       -1.91307593228372       -2.02897028942154
C           42.82254939764971       -2.33838743576752       -2.49442949517511
C           42.80677077768526       -3.39732282839035       -3.54397948236145
C           43.24222837755622       -3.11625462258207       -4.84554506802065
O           43.65229649137734       -1.83993819246214       -5.07189218515768
C           44.13849173267921       -1.45938087379020       -6.34302397159383
C           43.22806933656559       -4.10987141320396       -5.82401243316942
C           42.78232994889380       -5.38125626231660       -5.49579016681004
C           42.34704577386491       -5.68305693979292       -4.21423272095597
C           42.35687250793325       -4.68828258037637       -3.23708021908799
O           41.95724118370808       -4.88776853733630       -1.95282866225782
C           41.48037595710854       -6.15214152865363       -1.53970059857288
C           41.59048971166587       -1.85335035626201       -2.05403008006102
C           40.31173858510925       -2.26220830520291       -2.56714039398357
C           39.36852047137717       -1.55093384888514       -1.90132024886982
C           40.06256926801845       -0.69850989386141       -0.97808777971147
N           41.40801279945619       -0.90236376722693       -1.09198567791596
N           44.28158020165498       -0.95823058818584       -1.07021392258725
C           42.89328144750176        3.52105211639100        3.49609605548668
C           43.24227635410700        3.18237843355752        4.80984370828302
O           43.54875149802884        1.87532666506057        5.02419089147297
C           43.92089490551360        1.42981537548707        6.31259906221216
C           43.25103014758029        4.15425688029198        5.80994982294390
C           42.91469055586573        5.46113978492749        5.49086242199265
C           42.56734716693839        5.82004150878593        4.19723628393744
C           42.55443319650856        4.84726680733691        3.19811047504309
O           42.23426456119765        5.10094300297060        1.90122611735029
C           41.88916083070226        6.40882486604575        1.49236390289205
H           38.36403610564193        0.22769287853418       -0.13190159098297
H           38.33955549164111        2.03604974220011        1.76046717490647
H           40.24166096377389        3.30984626030544        3.17395814898584
H           45.53268605781882        3.18377237629125        3.24339872457698
H           47.40963812894602        1.80873239851054        1.89580199738090
H           47.36357136657717       -1.89962843228356       -1.84177064463394
H           45.45460762413463       -3.19947756293214       -3.21759783608658
H           43.36970789979189       -1.56953876476524       -7.11754916216838
H           44.41468778742612       -0.40657612108498       -6.25991169897507
H           45.02344618914035       -2.04257277411237       -6.62530468660689
H           43.55900687624238       -3.90215139762198       -6.83277402110499
H           42.77370846626550       -6.15452622544818       -6.25612862814453
H           42.00628438206015       -6.68407769120222       -3.98592571145318
H           41.21919872314886       -6.04841024124728       -0.48485195921120
H           40.58774789815124       -6.44900468152857       -2.10376251302906
H           42.24999510979099       -6.92641583432232       -1.64542712137822
H           40.16470424218949       -2.99827032926373       -3.34128778123779
H           38.29639440974152       -1.58644483682785       -2.01707978391786
H           44.11932193550087        0.36051917178132        6.21876383578147
H           43.11426794168908        1.58366236867465        7.03973320902549
H           44.82826134818598        1.93467004800164        6.66576506541854
H           43.51577476874467        3.90263873801920        6.82821460352260
H           42.92322222336403        6.21729374709068        6.26822939007037
H           42.31074736764575        6.84761517858926        3.97695413513023
H           42.71340334156657        7.11278697078119        1.65970313102945
H           41.68175342670511        6.34789132350826        0.42236557816516
H           40.99335469939445        6.76953142521807        2.01243772094651
Cu          91.00956774189601        0.01104073016367       -0.09688667860657
C           94.41593922971062        0.12553443449828       -0.20092069598367
C           93.78563175195367       -0.63353851139382       -1.17575911947927
C           94.46407120528734       -1.37970567633461       -2.19739382051038
C           93.50808435065528       -1.98770369958392       -2.94264812254821
C           92.23674596694590       -1.61272479883317       -2.38716881106591
N           92.43654088532973       -0.79244121357171       -1.31448304622790
C           90.99693403734267       -2.03863213622327       -2.86452483898971
C           89.76284966250414       -1.69371941206049       -2.31568307552757
C           88.49016370093574       -2.10149715991010       -2.83891423686791
C           87.53760078698282       -1.54648000394615       -2.04772463377429
N           89.56530008400017       -0.89806131008716       -1.21793546070863
C           88.22092150122010       -0.79571155175160       -1.03651611599898
C           87.57868328012673       -0.07446546568160       -0.01448889641622
C           88.23383750743953        0.66644299439168        0.98514605866031
C           87.56393105144103        1.36591118731803        2.04104986371840
C           88.52508977999331        1.95310389499662        2.79770063548932
C           89.78951817805171        1.62277021585893        2.20439272122657
C           91.02965828196768        2.03532775744609        2.68997164964780
C           91.03805305544888        2.90747104960263        3.89915522042926
C           90.57191855310508        4.22676846999202        3.82582426269482
O           90.14099984509835        4.63694365343942        2.60341418526708
C           89.61750925968630        5.93779155861382        2.42809578161793
C           90.57852264815160        5.04127929436540        4.95771915299738
C           91.04749221521341        4.53194501975874        6.15917542828391
C           91.51300039575264        3.22933066261978        6.25617554642442
C           91.51063853847647        2.41627169348299        5.12323664335798
O           91.93894862006522        1.12573171858303        5.11966860754236
C           92.44017162505183        0.53480620351276        6.30131963712269
C           92.26374213858936        1.69847911765879        2.13246819906152
C           93.53863295953289        2.15936344473719        2.60982576790027
C           94.48527687571574        1.62588820068556        1.79854451351559
C           93.79710091555432        0.83811788773983        0.81542828420204
N           92.45171548753864        0.90114409950444        1.04059968470013
N           89.57875883686494        0.83355910807875        1.10429728461853
C           90.99126163272705       -2.93065020975956       -4.05959701350665
C           90.64733810982290       -4.28270130202499       -3.93243810857831
O           90.34222849787103       -4.70170956440203       -2.67567416269901
C           89.97459320849279       -6.04558962832351       -2.43922812164208
C           90.64195687026914       -5.11695155792540       -5.04995720819391
C           90.97678932988731       -4.59442010930232       -6.28999472989856
C           91.31969137924010       -3.25918830895648       -6.44013737646554
C           91.32912130700262       -2.42600329809169       -5.32191453591166
O           91.64499335483144       -1.10425173739434       -5.36749406451083
C           91.98345182123960       -0.49185131935244       -6.59516138080748
H           95.50003768817604        0.16382830051017       -0.23552115708503
H           95.53568571986494       -1.42720202553259       -2.31360948937873
H           93.64180373327228       -2.63531838998338       -3.79438025611205
H           88.35073820177229       -2.72930797637448       -3.70424521414919
H           86.46577029400129       -1.63036307621658       -2.13262784061410
H           86.49473816946367        1.39324158104372        2.17929622597709
H           88.39617790714871        2.55665058295980        3.68162444678007
H           90.36793428931139        6.70684616026685        2.64820253601189
H           89.32847260698176        6.00979378118770        1.37791423067844
H           88.73411615405011        6.10289201130414        3.05680577104754
H           90.22406294058320        6.06225625051634        4.91053425801682
H           91.05049909585618        5.16461914456154        7.03999371917954
H           91.87123064948094        2.85788223178598        7.20695341961392
H           92.72267844041818       -0.48535926349012        6.03461524518654
H           93.32404093351582        1.06718947085408        6.67335281883090
H           91.67805205967359        0.50279516916267        7.08945442533765
H           93.68108476742653        2.81057613904087        3.45736084107426
H           95.55606719775972        1.74927999160242        1.84656748383383
H           89.77692829175753       -6.12261212535783       -1.36845071402720
H           90.78335584613747       -6.73664416395234       -2.70642977409828
H           89.06786651250182       -6.31743695145473       -2.99315545157155
H           90.38081768695876       -6.16308084732303       -4.96228086705454
H           90.97067246395525       -5.24272283151201       -7.15936401587166
H           91.57553179709025       -2.87870940465880       -7.41995866807936
H           91.15753197977797       -0.55041359421160       -7.31444540214584
H           92.18566431073361        0.55619032944468       -6.36637295292982
H           92.88058045927674       -0.94333363279762       -7.03604716322834
C           51.49079727697056       -0.05936945677611        0.01071365643968
C           50.26268208358142       -0.05522775104724        0.01408995901407
C           48.91699793046468       -0.04609634638011        0.01254463409195
C           47.69345587207222       -0.03124356201543        0.00973453322829
C           52.83636140731924       -0.05923244425162        0.00663893210407
C           54.06015444674826       -0.05444057368801        0.00048399314614
C           67.54741503765324        0.01169098483823       -0.03741878240909
C           66.31871309804821        0.01021612727729       -0.04333676667432
C           64.97412369902501        0.01024635841868       -0.04527512979877
C           63.74988573175561        0.00696513093769       -0.04486282098387
C           68.89198176707617        0.00937697243244       -0.02945648395793
C           70.11620875007924        0.00444573891234       -0.01963443998255
C           83.60330431526243       -0.10675375790642        0.03966939091424
C           82.37510548161043       -0.10217526863534        0.05180417391520
C           81.02972990623664       -0.09870374066516        0.05429737963130
C           79.80573566144949       -0.09061231943664        0.05276301807302
C           84.94876158724500       -0.10020335277755        0.02765726107669
C           86.17239189235845       -0.09436236972157        0.00971221328955
Cu          58.90526899034167       -0.01911363104850       -0.02270530037969
C           55.46636187342752       -0.04535212473112       -0.00615559561749
C           56.12176199661788       -0.03979698028471        1.23820604863613
C           55.45152603490960       -0.07269930537521        2.50390871903223
C           56.41430389660069       -0.06055640214274        3.46045693743187
C           57.67899455388650       -0.01532484240983        2.78434812313837
N           57.46774242822641       -0.00618198894945        1.43126880326230
C           58.92174184305755       -0.00380431776269        3.41733442772872
C           60.15835299163571        0.00096570029228        2.77267433615077
C           61.42953565203317        0.04843902464016        3.43621758028817
C           62.38310791132675        0.04987498435474        2.47037209088922
N           60.35677735708505       -0.01983682353453        1.41756806323412
C           61.70065780146241        0.00865184676372        1.21152759611233
C           62.34475391661489        0.00057346323423       -0.03932527085690
C           61.68904885932408       -0.01256783677332       -1.28395270558636
C           62.35967032828720       -0.04266997328358       -2.54944087389023
C           61.39676873604390       -0.04825354079458       -3.50602200285439
C           60.13166106048735       -0.01738782384148       -2.82996618602353
C           58.88887514956100       -0.02687465206144       -3.46251121930270
C           58.88163185897601       -0.02851157135389       -4.95369060572096
C           58.47502528578377       -1.16893550165559       -5.65859172336857
O           58.11143897650216       -2.23683304122616       -4.90004402840431
C           57.66022189291576       -3.42862271303433       -5.51071584193308
C           58.47072260816397       -1.17166464194425       -7.05310070049810
C           58.86863358419106       -0.03242102667286       -7.73630671552554
C           59.27251490714914        1.10881781407355       -7.06002212006287
C           59.28131078763436        1.11009144179363       -5.66549682813298
O           59.65173139351097        2.18023116659284       -4.91357302241535
C           60.08853784875667        3.37336240755231       -5.53218748497594
C           57.65225059910550       -0.03596942235051       -2.81775905174763
C           56.38060218538666       -0.00962886776986       -3.48172455542139
C           55.42694441795922       -0.01585497949652       -2.51602547929535
C           56.10971105969565       -0.04026123104043       -1.25681472747856
N           57.45412207543127       -0.05197721686524       -1.46277198462970
N           60.34298417652556        0.00177529619268       -1.47684878203186
C           58.92847741211088        0.00233886776563        4.90849061807405
C           59.35468611837419       -1.12711268972490        5.61965304451117
O           59.73857412085886       -2.19225889212571        4.86734245162446
C           60.19480165719029       -3.37820498440596        5.48575798294628
C           59.35787301022670       -1.12271294982566        7.01417020160142
C           58.93947510631470        0.01265769360088        7.69146349539401
C           58.51587784268923        1.14302099128361        7.00905780189436
C           58.50814448938260        1.13713017010652        5.61454312371573
O           58.11872448888638        2.19698923636825        4.85750208036165
C           57.66023671116572        3.38462263446357        5.47094735489089
H           54.38132801849709       -0.10597001776447        2.63283158018169
H           56.28578979759741       -0.08365177217489        4.53059830133625
H           61.56844874997248        0.07963907823838        4.50483875804736
H           63.45458499732866        0.08028440401807        2.58883692787506
H           63.43024394705797       -0.06113143532298       -2.67824480833063
H           61.52545333937109       -0.07446412145121       -4.57608167931507
H           56.75940172388044       -3.25537002352260       -6.11199490400172
H           57.42096028396278       -4.11520651846408       -4.69648355210842
H           58.43706672525483       -3.87643267954045       -6.14237823892959
H           58.16272024462864       -2.04846680131962       -7.60684486620128
H           58.86383662580836       -0.03401167578131       -8.82080264875075
H           59.57524569757599        1.98405591568001       -7.61912105278910
H           60.33835893099977        4.06140816661954       -4.72238466118379
H           59.29961859999211        3.81755222370264       -6.15131756217108
H           60.98005330155910        3.20341947890112       -6.14801527099695
H           56.24158668667761        0.01401086657526       -4.55055153705685
H           54.35516315384342       -0.00002955402087       -2.63472443292467
H           59.41523767401342       -3.83145173056669        6.11013024287807
H           60.44925542069063       -4.06448129875386        4.67591598223918
H           61.08740544385613       -3.19529840273474        6.09629144067603
H           59.68115135218470       -1.99101367388433        7.57255097489870
H           58.94360484481346        0.01665250223136        8.77594691889561
H           58.19704224811544        2.01546463677473        7.56353661593620
H           58.44023140084097        3.84471164605805        6.08976390400672
H           56.77076623292746        3.20143333895459        6.08597017750723
H           57.39984096747052        4.06530858590543        4.65827521107689
Cu          74.96057516610595       -0.03900142026196        0.01767244784334
C           71.52126096138258       -0.00535441431889       -0.00891870424387
C           72.16172353899128       -0.02198571892324        1.24364518815672
C           71.47555475656728       -0.05188143834525        2.50073510610977
C           72.42651252601792       -0.05339060788142        3.46919487525936
C           73.69985394433361       -0.01995039945879        2.80893489797628
N           73.50532173976534       -0.00580418607262        1.45322499497140
C           74.93461080197952       -0.01758504113736        3.45731642866816
C           76.17931365953372       -0.02452002425670        2.82818771510583
C           77.44253452633168        0.01631949940902        3.50727028609203
C           78.40811148088002        0.00147142797796        2.55349259756938
N           76.39429153407602       -0.05622889175615        1.47598487575520
C           77.74110841578954       -0.04363633627212        1.28649475261120
C           78.39984416072795       -0.07822193585450        0.04423123319333
C           77.75912415829434       -0.09857497325156       -1.20786977945163
C           78.44410275259020       -0.15778762037549       -2.46464666541123
C           77.49316997318593       -0.14688043350968       -3.43301821576287
C           76.22114961523984       -0.07621627898932       -2.77316269226777
C           74.98683825925197       -0.04824794593518       -3.42196493091135
C           75.00011688934582       -0.04418866050374       -4.91298597566013
C           74.56351328041751       -1.16566762126270       -5.63023783879879
O           74.15059622733635       -2.22400628536693       -4.88369674880774
C           73.67109927972827       -3.39729532622577       -5.50861037640515
C           74.58041019307277       -1.16107512612484       -7.02469481253183
C           75.02929722402332       -0.03358661272750       -7.69562581309388
C           75.46372750418354        1.08894857339093       -7.00706083325301
C           75.45114875136912        1.08285599812305       -5.61265137412443
O           75.84753298312265        2.13554087206595       -4.84934734924576
C           76.35186315781969        3.30901809583998       -5.45395926890782
C           73.74240178370448       -0.02162752523288       -2.79320443802616
C           72.48038583619268        0.04214938556343       -3.47262718376463
C           71.51478107537622        0.05337197341294       -2.51881843702435
C           72.18084877423075        0.00274396228217       -1.25161011588905
N           73.52684144932037       -0.03936811979549       -1.44068199682046
N           76.41603833505522       -0.05368192728237       -1.41777724063653
C           74.92195299925697       -0.00517487560708        4.94837761469127
C           75.32907007657673       -1.13439723025905        5.67087068148945
O           75.71431206822945       -2.20662756667505        4.92934845432073
C           76.15878971079120       -3.39053002703184        5.56011754315403
C           75.31275020711658       -1.12292100411754        7.06529691334538
C           74.89385511497271        0.01904540823172        7.73108056559618
C           74.48894167949307        1.14936787541966        7.03731918142771
C           74.50072825634777        1.13645831479512        5.64292576962969
O           74.13023792946923        2.19522706693878        4.87503869408259
C           73.67755666093855        3.39164687877819        5.47558047958420
H           70.40352851191064       -0.07256528656817        2.61636944626771
H           72.28444626537311       -0.07803929424751        4.53758671987801
H           77.56822438205155        0.05397992590430        4.57734205271849
H           79.47832117324839        0.02245154492803        2.68499822630684
H           79.51528236684327       -0.20506958548407       -2.58024174656422
H           77.63428586495890       -0.18615721218080       -4.50110630353925
H           72.78930497728163       -3.19103532251967       -6.12734832788236
H           73.39176824284412       -4.07826737575151       -4.70248123023792
H           74.44498954086814       -3.86907721350876       -6.12629615385318
H           74.24968928212417       -2.02343547575786       -7.58791843363828
H           75.04082191031216       -0.02962547344692       -8.78005897169776
H           75.80620602033727        1.95555817981059       -7.55657253328073
H           76.61182033498423        3.98404912933931       -4.63642182031688
H           75.59931142843089        3.78906892962664       -6.09132777807985
H           77.24999913672349        3.10014638835366       -6.04785680892946
H           72.35536529561736        0.07625719586580       -4.54288179911902
H           70.44529228221330        0.09664478837833       -2.65061646421959
H           75.37103699615018       -3.83629034035935        6.17959744483705
H           76.41830164468334       -4.08331987661162        4.75744309584992
H           77.04598554068845       -3.20739364208901        6.17841819057043
H           75.62098727516177       -1.99099957286556        7.63247245203130
H           74.88260009333824        0.02832412308447        8.81548225613896
H           74.16907233025567        2.02700478089047        7.58293279529842
H           74.45550645161775        3.84731203296551        6.10022167014239
H           72.77922191093940        3.22217503348444        6.08157042570361
H           73.43378237588927        4.06967295343172        4.65555880630186
