181
 energy: -326.325077700771 gnorm: 0.967191907325 xtb: 6.5.1 (b24c23e)
Co          32.89689800000000       -0.01711200000000       -0.00630600000000
C           29.55890200000000        0.10604300000000        0.06577200000000
C           30.22087600000000        1.25548700000000        0.22669400000000
C           29.57000600000000        2.55279400000000        0.36386900000000
C           30.50997500000000        3.46345200000000        0.53655600000000
C           31.81505200000000        2.78803600000000        0.53056000000000
N           31.63826600000000        1.38601800000000        0.32347500000000
C           33.00698600000000        3.39389000000000        0.71221300000000
C           33.05619600000000        4.85235500000000        0.96448400000000
C           32.57351700000000        5.38149700000000        2.17219100000000
C           32.63647100000000        6.75734400000000        2.41267600000000
C           33.18730600000000        7.61388800000000        1.45101500000000
C           33.25331800000000        9.03011100000000        1.69972800000000
N           33.30637700000000       10.16868600000000        1.89977500000000
C           33.67641400000000        7.08888500000000        0.24808100000000
C           33.61309700000000        5.71322900000000        0.00628800000000
C           34.29841900000000        2.65816500000000        0.68069700000000
C           35.58176100000000        3.24324500000000        1.08799100000000
C           36.51656199999999        2.33335100000000        0.90318100000000
N           34.44144800000000        1.43632000000000        0.26710600000000
C           35.83677800000000        1.15561600000000        0.37799700000000
C           36.43133800000000        0.01358200000000       -0.00377500000000
C           35.66812500000000       -1.14651000000000       -0.51520200000000
C           36.19904300000000       -2.13902900000000       -1.21805900000000
C           35.15642700000000       -3.12482600000000       -1.42755300000000
C           34.05851900000000       -2.67093200000000       -0.83403800000000
N           34.29191500000000       -1.39760800000000       -0.23013300000000
C           32.78002600000000       -3.42226900000000       -0.74791700000000
C           32.80328400000000       -4.88780800000000       -0.97545900000000
C           32.11911400000000       -5.45185100000000       -2.06490400000000
C           32.16099600000000       -6.83184800000000       -2.28526800000000
C           32.89265000000000       -7.65872300000000       -1.42366200000000
C           32.93666600000000       -9.07928700000000       -1.65169800000000
N           32.97208900000000      -10.22136900000000       -1.83495400000000
C           33.58438100000000       -7.09977400000000       -0.34174500000000
C           33.54246400000000       -5.71994700000000       -0.12002700000000
C           31.61770400000000       -2.80313500000000       -0.46523300000000
C           30.31041600000000       -3.44090200000000       -0.31825500000000
C           29.44843500000000       -2.46595000000000       -0.10285900000000
C           30.19664500000000       -1.20997100000000       -0.09794900000000
N           31.46167000000000       -1.39429200000000       -0.30820200000000
H           28.47554100000000        0.13386900000000        0.05641500000000
H           28.50665500000000        2.75193500000000        0.32666200000000
H           30.32194000000000        4.52220700000000        0.65781600000000
H           32.15121200000000        4.72771900000000        2.92546300000000
H           32.25838700000000        7.15239900000000        3.34797700000000
H           34.10724400000000        7.74203100000000       -0.50126000000000
H           33.99614400000000        5.31799900000000       -0.92659200000000
H           35.75242800000000        4.23934700000000        1.47477400000000
H           37.57034000000000        2.46534800000000        1.10940400000000
H           37.22481200000000       -2.21942800000000       -1.55209200000000
H           35.26554100000000       -4.06728300000000       -1.94842400000000
H           31.55776000000000       -4.82180100000000       -2.74393600000000
H           31.62627100000000       -7.25308200000000       -3.12812500000000
H           34.15630200000000       -7.72977000000000        0.32892800000000
H           34.08283300000000       -5.29938000000000        0.71928700000000
H           30.06882000000000       -4.49436900000000       -0.36938500000000
H           28.38381700000000       -2.58882700000000        0.04699100000000
Co          61.55341000000000        0.04409500000000       -0.00796400000000
C           64.89140700000000       -0.07497800000000        0.07067600000000
C           64.22943300000000       -1.21402500000000        0.29358800000000
C           64.88030300000000       -2.50200300000000        0.50079300000000
C           63.94033400000000       -3.40197700000000        0.72252700000000
C           62.63525700000000       -2.72787600000000        0.67997500000000
N           62.81204300000000       -1.33912400000000        0.39729400000000
C           61.44332299999999       -3.32300700000000        0.89416100000000
C           61.39411300000000       -4.76567600000000        1.22501700000000
C           61.87679100000000       -5.22866200000000        2.45960000000000
C           61.81383800000000       -6.58947200000000        2.77421500000000
C           61.26300199999999       -7.49682100000000        1.86033500000000
C           61.19698999999999       -8.89750300000000        2.18535300000000
N           61.14393100000000      -10.02357900000000        2.44674400000000
C           60.77389399999999       -7.03771100000000        0.63074300000000
C           60.83721100000000       -5.67716200000000        0.31483200000000
C           60.15188999999999       -2.59006800000000        0.82286200000000
C           58.86854800000000       -3.15224000000000        1.26123200000000
C           57.93374599999999       -2.25368500000000        1.02743500000000
N           60.00886100000000       -1.39240500000000        0.34373100000000
C           58.61353000000000       -1.10610900000000        0.43926200000000
C           58.01897000000000        0.01358200000000       -0.00377500000000
C           58.78218300000000        1.14428600000000       -0.57725600000000
C           58.25126500000000        2.09729900000000       -1.33281300000000
C           59.29388200000000        3.07030900000000       -1.59536800000000
C           60.39178900000000        2.64921300000000       -0.97815100000000
N           60.15839400000000        1.41044900000000       -0.30619800000000
C           61.67028300000000        3.40411000000000       -0.93283000000000
C           61.64702500000000        4.85518100000000       -1.23937800000000
C           62.33119500000000        5.35941800000000       -2.35776000000000
C           62.28931300000000        6.72546200000000       -2.65250900000000
C           61.55765900000000        7.59776900000000       -1.83693100000000
C           61.51364300000000        9.00390400000000       -2.14153700000000
N           61.47821900000000       10.13439100000000       -2.38635200000000
C           60.86592699999999        7.09821100000000       -0.72634100000000
C           60.90784400000000        5.73241000000000       -0.43024900000000
C           62.83260400000000        2.80118700000000       -0.61704300000000
C           64.13989300000000        3.44597600000000       -0.50480700000000
C           65.00187400000000        2.48411400000000       -0.23694600000000
C           64.25366400000000        1.23024300000000       -0.16405000000000
N           62.98863799999999        1.40291100000000       -0.38397300000000
H           65.97476700000000       -0.10327000000000        0.06283900000000
H           65.94365300000000       -2.70286600000000        0.47442200000000
H           64.12836900000001       -4.45261500000000        0.90092700000000
H           62.29909700000000       -4.53506300000000        3.17637300000000
H           62.19192099999999       -6.93331400000000        3.72953200000000
H           60.34306500000000       -7.73046500000000       -0.08214000000000
H           60.45416500000000       -5.33301400000000       -0.63807700000000
H           58.69788100000000       -4.12594300000000        1.70137300000000
H           56.87996800000000       -2.37432400000000        1.24050100000000
H           57.22549600000000        2.15949700000000       -1.67070800000000
H           59.18476800000000        3.98318700000000       -2.16649600000000
H           62.89254900000000        4.69353200000000       -3.00168800000000
H           62.82403799999999        7.10044900000000       -3.51693500000000
H           60.29400700000000        7.76359000000000       -0.09075700000000
H           60.36747600000000        5.35789700000000        0.43060200000000
H           64.38148900000000        4.49513000000000       -0.61289300000000
H           66.06649200000000        2.61492300000000       -0.09396800000000
C           39.81862600000000        0.02601900000000       -0.00133300000000
C           38.56635500000000        0.00683800000000       -0.00568200000000
C           41.13229400000000        0.02525300000000        0.00059900000000
C           42.63542800000000        0.00683800000000       -0.00568200000000
C           53.15715800000000        0.02601900000000       -0.00133300000000
C           51.90488700000000        0.00683800000000       -0.00568200000000
C           54.47082600000000        0.02525300000000        0.00059900000000
C           55.97395899999999        0.00683800000000       -0.00568200000000
Co          47.20844300000000        0.01811900000000       -0.01508300000000
C           43.77189900000000       -0.02860100000000        0.00848000000000
C           44.42746799999999       -1.13803700000000       -0.37942000000000
C           43.78674500000000       -2.40908400000000       -0.72320600000000
C           44.72324300000000       -3.25624700000000       -1.10123900000000
C           46.02038800000000       -2.57642500000000       -1.02554400000000
N           45.84245300000000       -1.23642300000000       -0.55971700000000
C           47.20481500000000       -3.13225500000000       -1.35883300000000
C           47.24041800000000       -4.51560700000000       -1.88741800000000
C           46.71918400000000       -4.80381600000000       -3.15889000000000
C           46.76795599999999       -6.10797900000000       -3.66033500000000
C           47.34251399999999       -7.13262900000000       -2.89757000000000
C           47.39386700000000       -8.47492700000000       -3.41475900000000
N           47.43528100000000       -9.55407700000000       -3.83056100000000
C           47.86931600000000       -6.84774700000000       -1.63139100000000
C           47.82025200000000       -5.54404200000000       -1.12867900000000
C           48.50176700000000       -2.42297400000000       -1.21540700000000
C           49.77038500000000       -2.91947500000000       -1.76391000000000
C           50.72259800000000       -2.08585600000000       -1.39715700000000
N           48.66954400000000       -1.32605300000000       -0.54456800000000
C           50.06770400000000       -1.04581800000000       -0.61440300000000
C           50.68271500000000       -0.02860100000000        0.00848000000000
C           49.93175600000000        0.99916200000000        0.75931900000000
C           50.46449799999999        1.80348300000000        1.67028900000000
C           49.43222599999999        2.74068000000000        2.07138400000000
C           48.34080000000000        2.44667600000000        1.37401000000000
N           48.56614600000000        1.33143200000000        0.51355700000000
C           47.08761400000000        3.23862900000000        1.40052700000000
C           47.14977600000000        4.64612600000000        1.86555000000000
C           46.44054600000000        5.05215300000000        3.00810900000000
C           46.51731100000000        6.37565800000000        3.45197200000000
C           47.30877300000000        7.30278800000000        2.76263900000000
C           47.38762599999999        8.66527100000000        3.22016900000000
N           47.45099300000000        9.76067100000000        3.58798100000000
C           48.02571699999999        6.90049000000000        1.62886300000000
C           47.94919700000000        5.57729500000000        1.18380100000000
C           45.91613100000000        2.71149100000000        0.99497900000000
C           44.64084700000000        3.41577400000000        0.90944200000000
C           43.75276000000000        2.52040000000000        0.52817700000000
C           44.44989000000000        1.24041700000000        0.36084900000000
N           45.71442300000000        1.34623500000000        0.62867900000000
H           42.73206100000000       -2.64595600000000       -0.68176300000000
H           44.53700600000000       -4.27846700000000       -1.40384900000000
H           46.27782400000000       -4.01807200000000       -3.75971300000000
H           46.36022200000000       -6.31672000000000       -4.64211800000000
H           48.31809100000000       -7.63228200000000       -1.03403900000000
H           48.23195399999999       -5.33493000000000       -0.14885700000000
H           49.91998300000000       -3.80892500000000       -2.36175900000000
H           51.77190000000000       -2.18260800000000       -1.64243700000000
H           51.48635299999999        1.79209600000000        2.02515900000000
H           49.54662700000000        3.55358000000000        2.77677700000000
H           45.83246800000000        4.34240700000000        3.55553600000000
H           45.96243400000000        6.67487000000000        4.33312900000000
H           48.64360000000000        7.60872600000000        1.08999900000000
H           48.50908400000000        5.27832400000000        0.30606300000000
H           44.43725000000000        4.46061900000000        1.10383300000000
H           42.70265899999999        2.72160600000000        0.36477300000000
181
 energy: -326.619295942171 gnorm: 0.457845883852 xtb: 6.5.1 (b24c23e)
Co          32.90665340358588       -0.01038884880673       -0.00240515349445
C           29.55991257534361        0.08962860499527        0.06419399067492
C           30.22843539247944        1.25447057935939        0.22625278590057
C           29.57089198296227        2.54532398539499        0.36256673566351
C           30.52073357458249        3.46368240976698        0.53719754048243
C           31.81594403777892        2.77833327997297        0.52829079632457
N           31.62683665009714        1.39407660522761        0.32110362193457
C           33.02269307865129        3.38883378582250        0.71329102912175
C           33.06162268240115        4.85307116693675        0.96661352927636
C           32.57426399836506        5.38520264421722        2.16853228145585
C           32.63685977568280        6.75490505470718        2.41000717724606
C           33.18736971801513        7.61495857625734        1.45120839250964
C           33.25324762036681        9.02786873648055        1.69935840636118
N           33.30601806953376       10.16113072618538        1.89844870773678
C           33.67517442334272        7.08600286546289        0.24944690874842
C           33.61315753095655        5.71597231782940        0.01084974830216
C           34.29152723621899        2.66921730138591        0.68172298643922
C           35.56885956688630        3.25260301571696        1.08726102904467
C           36.51584726355857        2.32764895880569        0.90122736669790
N           34.45001833379124        1.42246346133448        0.27236904658681
C           35.85074902083533        1.14983172831832        0.37656595550570
C           36.45672665747651        0.00174628994433       -0.01251821257374
C           35.67228578880523       -1.13422846668799       -0.50062607041851
C           36.20202625157125       -2.15853265902499       -1.22573343971186
C           35.17655208837223       -3.12516449721287       -1.42952910516428
C           34.04905847613023       -2.65958710875536       -0.82116779371333
N           34.29210580863658       -1.38843558323701       -0.24063228654161
C           32.79372762318090       -3.41338381721174       -0.74667006968745
C           32.81043851931505       -4.88508910597491       -0.97863403473656
C           32.12095723633144       -5.45416499331460       -2.06079235429086
C           32.16197616413859       -6.82863578662554       -2.28248079246147
C           32.89268612363156       -7.65959142907907       -1.42380288983008
C           32.93667498384652       -9.07695547245756       -1.65140253465657
N           32.97180695493711      -10.21371994875511       -1.83371632743515
C           33.58256436457912       -7.09635825278050       -0.34275269131791
C           33.54197809698716       -5.72183598456165       -0.12442056915335
C           31.61908769889926       -2.79861617387575       -0.46401706570199
C           30.31876763495501       -3.43833594796245       -0.31938018361833
C           29.44070200204791       -2.45367332073291       -0.10195230142268
C           30.18141619948489       -1.19961294857076       -0.09682878731343
N           31.46895206733118       -1.39709763688044       -0.30128874284766
H           28.47627175248725        0.12828877195225        0.05664549049372
H           28.50771520362263        2.74386128471538        0.32565733723483
H           30.33230847425490        4.52196967161480        0.65857520327577
H           32.15250644736962        4.72857705461883        2.92315213650835
H           32.25918626786711        7.15207602555902        3.34634857432767
H           34.10631992389395        7.74137217381994       -0.49989449759597
H           33.99511060427887        5.31828403280133       -0.92419456832064
H           35.74389604218222        4.24354833171794        1.47462476532197
H           37.56926480788427        2.45728764823404        1.10638187309993
H           37.22567041433317       -2.22499618666581       -1.55522293073146
H           35.27043549524588       -4.06617638794523       -1.94991972341483
H           31.55948368113508       -4.82232708093418       -2.74184562041963
H           31.62741904223187       -7.25235989390926       -3.12648953389266
H           34.15505575987365       -7.72886961878323        0.32767995663244
H           34.08157365947817       -5.29959518673943        0.71724128687335
H           30.07833712483016       -4.49243703572474       -0.37057676075887
H           28.38070838286659       -2.58171750807558        0.04796772891493
Co          61.54367246241579        0.03763787306097       -0.00368442846370
C           64.89040130049187       -0.05863748765294        0.06819844499996
C           64.22185633195916       -1.21303670362987        0.29307688321595
C           64.87940863040927       -2.49461441789775        0.49909024786707
C           63.92955701758839       -3.40217581267745        0.72319003226756
C           62.63434724690921       -2.71829099685107        0.67712594878265
N           62.82358008088455       -1.34737512351456        0.39545279521952
C           61.42748384909728       -3.31780630865388        0.89490377282581
C           61.38865253324822       -4.76625105813838        1.22718402648407
C           61.87604030704139       -5.23255324410790        2.45614039830702
C           61.81345196866741       -6.58717941101308        2.77141445425501
C           61.26293829804535       -7.49787890016850        1.86058466358860
C           61.19705783599788       -8.89528333528086        2.18486222339337
N           61.14429284993301      -10.01610694835541        2.44501477653923
C           60.77513338640519       -7.03476039309507        0.63195112969297
C           60.83715199947741       -5.67965160055137        0.31953756873663
C           60.15875675555053       -2.60077299913263        0.82443076069069
C           58.88147230725608       -3.16161209627520        1.26104012983322
C           57.93435216361684       -2.24831776020810        1.02520097948542
N           59.99949431952606       -1.37760618037838        0.34829928513958
C           58.59835176207076       -1.10050634609861        0.43740997435503
C           57.98640816333188        0.02436364059381       -0.01323132253156
C           58.77649567880667        1.13268971105128       -0.56168326227748
C           58.24802258000313        2.11646706716745       -1.34156768424344
C           59.27368653901189        3.07043989924539       -1.59733244841580
C           60.40106709979072        2.63834665742606       -0.96459311988061
N           60.15730615681637        1.40018245538688       -0.31623457502520
C           61.65648991055196        3.39522214816158       -0.93105926438705
C           61.63984555115886        4.85226769257767       -1.24239994212532
C           62.32934788309259        5.36194118092464       -2.35377317147460
C           62.28833306395509        6.72240222515436       -2.64954714110120
C           61.55762186902314        7.59862645494124       -1.83711616312411
C           61.51363130140848        9.00159102618232       -2.14111611087621
N           61.47850541929569       10.12681963864256       -2.38470736579467
C           60.86774448158157        7.09474406548831       -0.72716058291343
C           60.90832978475354        5.73405462362412       -0.43473671546565
C           62.83117096933150        2.79670863668573       -0.61555473312074
C           64.13153100144682        3.44333594297332       -0.50579968323896
C           65.00959331497731        2.47190000114629       -0.23537975899073
C           64.26890134826600        1.21990887698240       -0.16236856735956
N           62.98131691984981        1.40607191025962       -0.37722848401354
H           65.97403867549373       -0.09767281445309        0.06277559577270
H           65.94258930662780       -2.69486015894677        0.47297960273258
H           64.11799344222860       -4.45233939169782        0.90167388831705
H           62.29780141522017       -4.53604368820367        3.17411057635082
H           62.19112113984890       -6.93307851857049        3.72788769597096
H           60.34398817585881       -7.72973333491457       -0.08081185516772
H           60.45519776145377       -5.33316978339050       -0.63566756780565
H           58.70644429685198       -4.13013780614199        1.70144643903986
H           56.88091127752362       -2.36645648675670        1.23702682849715
H           57.22450410620511        2.16499981455371       -1.67423125316256
H           59.17988384231225        3.98194808294723       -2.16789593166871
H           62.89082450306787        4.69416833992938       -2.99962945283717
H           62.82288932722874        7.09981383887087       -3.51526151310419
H           60.29525272419963        7.76262084137643       -0.09195516230675
H           60.36873312614907        5.35800345177012        0.42854799074319
H           64.37196492202081        4.49312818877206       -0.61397742655015
H           66.06959251989514        2.60787763644929       -0.09260873577213
C           39.80090060961438        0.02456257643339       -0.00156563095041
C           38.53340817791047        0.00561483056132       -0.00660182873850
C           41.14813817737415        0.02412004380139        0.00207251918975
C           42.48203497047693        0.01444516383495       -0.00393718509076
C           53.22162971227202        0.02838240988731       -0.00132094306828
C           51.97313304414224        0.01817198072950        0.00066496206521
C           54.56742062152705        0.02462903496552        0.00034178009270
C           55.93769047967550        0.01092251252312       -0.00675739375331
Co          47.20451742775565        0.01819582101799       -0.01567338653532
C           43.78985084864888       -0.01329390500284        0.00872419347894
C           44.45653000768439       -1.15401474204685       -0.38361110695560
C           43.79036183882863       -2.39950530224732       -0.71999509339150
C           44.73646481524263       -3.25891893630877       -1.10343054056129
C           46.02121999124333       -2.57283614527483       -1.02411130996051
N           45.83747039579814       -1.25041407868855       -0.55654801482721
C           47.21896047489555       -3.13068545745567       -1.36078521083355
C           47.24492074892279       -4.51715906613456       -1.89000436267086
C           46.71981107148697       -4.80830299549514       -3.15630414549882
C           46.76858847996634       -6.10616717003390       -3.65739094925938
C           47.34256360681476       -7.13362448057288       -2.89795523188316
C           47.39381010740674       -8.47287627712908       -3.41400167201256
N           47.43500065065264       -9.54688571293017       -3.82779197027417
C           47.86800983096192       -6.84470096268828       -1.63212639883434
C           47.82028029482728       -5.54600611788360       -1.13360856292968
C           48.49218188487524       -2.44109630110096       -1.22250444953594
C           49.75413132529353       -2.93195963892625       -1.76630093551898
C           50.71618673180399       -2.07976272359725       -1.39244301978520
N           48.66748703007791       -1.31831435304920       -0.55185092911814
C           50.04587498849064       -1.05584224964475       -0.62216582267473
C           50.65283133723777       -0.01883656103946        0.01647770580614
C           49.90890157759561        0.99954572043672        0.75183918409855
C           50.46328998663030        1.82072978436470        1.68104987015963
C           49.45002418902099        2.74288613446134        2.07417077402043
C           48.32967135049716        2.44212879963986        1.36068063429742
N           48.55797756205878        1.32315651498417        0.52507916695350
C           47.10034898297762        3.23262005008701        1.39835654579877
C           47.15613693174276        4.64359956328157        1.86839921162168
C           46.44236824032232        5.05515748119742        3.00461343211221
C           46.51835423779410        6.37293308499616        3.44887012508449
C           47.30882715347973        7.30360870214750        2.76291913951823
C           47.38755241785015        8.66310930159426        3.21951404056566
N           47.45054202213820        9.75329572643509        3.58550998987678
C           48.02375455233663        6.89704525715502        1.62921507108598
C           47.94873542983665        5.57856896972279        1.18837704970594
C           45.91778037386560        2.71118114966896        0.99468670584184
C           44.64961138326251        3.41466341478509        0.91118533501756
C           43.74584522259150        2.50867722336069        0.52511198661775
C           44.45122635256949        1.24523886974300        0.36096467455460
N           45.72730225888787        1.35560043479037        0.62257703953430
H           42.73352600519073       -2.63399167108956       -0.67817184259062
H           44.54689150985542       -4.27882703632561       -1.40535032053203
H           46.27914749045770       -4.01932710913606       -3.75769867563418
H           46.36106830436979       -6.31670205445985       -4.64051025840666
H           48.31714560224211       -7.63132841744728       -1.03521686756663
H           48.23085371249904       -5.33470671739573       -0.15122794045748
H           49.91163156624753       -3.81411217182941       -2.36328838526908
H           51.76810203449598       -2.17351276495777       -1.63634599927178
H           51.48516392893191        1.79497071419424        2.02833638040319
H           49.55148972418824        3.55287436647657        2.77879139739722
H           45.83425936176118        4.34314764696359        3.55365852604282
H           45.96363151182945        6.67436705493537        4.33146357445182
H           48.64229584906069        7.60764146449374        1.09102816903187
H           48.50776281701807        5.27819610357272        0.30804025114058
H           44.44599878114778        4.45879853984102        1.10521347298679
H           42.69920212817820        2.71217564934948        0.36234143846256
181
 energy: -326.737705549943 gnorm: 0.246180953856 xtb: 6.5.1 (b24c23e)
Co          32.92503279381036       -0.00303365747364        0.00404921209335
C           29.56385302752141        0.07086630257506        0.06236536264106
C           30.23854927569962        1.25350670043778        0.22404404396183
C           29.57605699927262        2.53540251821908        0.36088003845831
C           30.53577813442686        3.46036661727465        0.53746064096191
C           31.81825094078388        2.76641817333126        0.52433368265059
N           31.61362181178287        1.40433747561126        0.31809184916333
C           33.04327600217174        3.37812469827474        0.71395813713166
C           33.06939155040963        4.84977871295114        0.96930172989188
C           32.57563470810377        5.38700142947405        2.16432594524657
C           32.63689649049070        6.75152233811798        2.40659775351776
C           33.18731029584379        7.61456499159201        1.45111477685666
C           33.25313984570393        9.02229396261667        1.69847711259562
N           33.30566569609883       10.15500469160656        1.89739035867885
C           33.67370615552674        7.08237493819379        0.25085814413228
C           33.61432828054947        5.71691141114141        0.01605942275372
C           34.28591639376178        2.67597431607758        0.68237687483931
C           35.55434077111736        3.25764042699008        1.08246338989240
C           36.51153679068967        2.32184753435532        0.89754803208642