      -----------------------------------------------------------      
     |                   =====================                   |     
     |                           x T B                           |     
     |                   =====================                   |     
     |                         S. Grimme                         |     
     |          Mulliken Center for Theoretical Chemistry        |     
     |                    University of Bonn                     |     
      -----------------------------------------------------------      

   * xtb version 6.5.1 (b24c23e) compiled by 'conda@728c89f4b128' on 2022-07-12

   xtb is free software: you can redistribute it and/or modify it under
   the terms of the GNU Lesser General Public License as published by
   the Free Software Foundation, either version 3 of the License, or
   (at your option) any later version.
   
   xtb is distributed in the hope that it will be useful,
   but WITHOUT ANY WARRANTY; without even the implied warranty of
   MERCHANTABILITY or FITNESS FOR A PARTICULAR PURPOSE.  See the
   GNU Lesser General Public License for more details.
   
   Cite this work as:
   * C. Bannwarth, E. Caldeweyher, S. Ehlert, A. Hansen, P. Pracht,
     J. Seibert, S. Spicher, S. Grimme, WIREs Comput. Mol. Sci., 2020, 11,
     e01493. DOI: 10.1002/wcms.1493
   
   for GFN2-xTB:
   * C. Bannwarth, S. Ehlert and S. Grimme., J. Chem. Theory Comput., 2019,
     15, 1652-1671. DOI: 10.1021/acs.jctc.8b01176
   for GFN1-xTB:
   * S. Grimme, C. Bannwarth, P. Shushkov, J. Chem. Theory Comput., 2017,
     13, 1989-2009. DOI: 10.1021/acs.jctc.7b00118
   for GFN0-xTB:
   * P. Pracht, E. Caldeweyher, S. Ehlert, S. Grimme, ChemRxiv, 2019, preprint.
     DOI: 10.26434/chemrxiv.8326202.v1
   for GFN-FF:
   * S. Spicher and S. Grimme, Angew. Chem. Int. Ed., 2020, 59, 15665-15673.
     DOI: 10.1002/anie.202004239
   
   for ALPB and GBSA implicit solvation:
   * S. Ehlert, M. Stahn, S. Spicher, S. Grimme, J. Chem. Theory Comput.,
     2021, 17, 4250-4261. DOI: 10.1021/acs.jctc.1c00471
   
   for DFT-D4:
   * E. Caldeweyher, C. Bannwarth and S. Grimme, J. Chem. Phys., 2017,
     147, 034112. DOI: 10.1063/1.4993215
   * E. Caldeweyher, S. Ehlert, A. Hansen, H. Neugebauer, S. Spicher,
     C. Bannwarth and S. Grimme, J. Chem. Phys., 2019, 150, 154122.
     DOI: 10.1063/1.5090222
   * E. Caldeweyher, J.-M. Mewes, S. Ehlert and S. Grimme, Phys. Chem. Chem. Phys.
     2020, 22, 8499-8512. DOI: 10.1039/D0CP00502A
   
   for sTDA-xTB:
   * S. Grimme and C. Bannwarth, J. Chem. Phys., 2016, 145, 054103.
     DOI: 10.1063/1.4959605
   
   in the mass-spec context:
   * V. Asgeirsson, C. Bauer and S. Grimme, Chem. Sci., 2017, 8, 4879.
     DOI: 10.1039/c7sc00601b
   * J. Koopman and S. Grimme, ACS Omega 2019, 4, 12, 15120-15133.
     DOI: 10.1021/acsomega.9b02011
   
   for metadynamics refer to:
   * S. Grimme, J. Chem. Theory Comput., 2019, 155, 2847-2862
     DOI: 10.1021/acs.jctc.9b00143
   
   for SPH calculations refer to:
   * S. Spicher and S. Grimme, J. Chem. Theory Comput., 2021, 17, 1701-1714
     DOI: 10.1021/acs.jctc.0c01306
   
   with help from (in alphabetical order)
   P. Atkinson, C. Bannwarth, F. Bohle, G. Brandenburg, E. Caldeweyher
   M. Checinski, S. Dohm, S. Ehlert, S. Ehrlich, I. Gerasimov, C. Hölzer
   A. Katbashev, J. Koopman, C. Lavigne, S. Lehtola, F. März, M. Müller,
   F. Musil, H. Neugebauer, J. Pisarek, C. Plett, P. Pracht, F. Pultar,
   J. Seibert, P. Shushkov, S. Spicher, M. Stahn, M. Steiner, T. Strunk,
   J. Stückrath, T. Rose, and J. Unsleber
   
 * started run on 2022/07/30 at 04:24:08.015     

           -------------------------------------------------
          |                Calculation Setup                |
           -------------------------------------------------

          program call               : xtb Cu_H_C8_3.xyz --gfn 1 --opt -T 48
          hostname                   : cx3-14-19.cx3.hpc.ic.ac.uk
          coordinate file            : Cu_H_C8_3.xyz
          omp threads                :                     1

   ID    Z sym.   atoms
    1   29 Cu     1, 37, 89
    2    6 C      2-6, 8-11, 13-18, 20-24, 38-42, 44-47, 49-54, 56-60, 73-88,
                  90-94, 96-99, 101-106, 108-112
    3    7 N      7, 12, 19, 25, 43, 48, 55, 61, 95, 100, 107, 113
    4    1 H      26-36, 62-72, 114-123

molecular fragmentation (1/2 indicates fragments):
111111111111111111111111111111111111222222222222222222222222222222222222
222222222222222222222222222222222222222222222222222
# atoms in fragment 1/2:    36    87
 fragment masses (1/2) :      370.87      932.91
CMA distance (Bohr)    :  51.649
constraining FC (au)   :  0.0500
########################################################################
[WARNING] Please study the warnings concerning your input carefully
-1- prog_main_parseArguments: Unknown option '-T' provided
########################################################################

           -------------------------------------------------
          |                 G F N 1 - x T B                 |
           -------------------------------------------------

        Reference                      10.1021/acs.jctc.7b00118
      * Hamiltonian:
        H0-scaling (s, p, d)           1.850000    2.250000    2.000000
        zeta-weighting                 0.000000
      * Dispersion:
        s8                             2.400000
        a1                             0.630000
        a2                             5.000000
        s9                             0.000000
      * Repulsion:
        kExp                           1.500000
        rExp                           1.000000
      * Coulomb:
        alpha                          2.000000
        third order                    atomic
        anisotropic                    false
      * Halogen bond correction:
        rad-scale                      1.300000
        damping                        0.440000


          ...................................................
          :                      SETUP                      :
          :.................................................:
          :  # basis functions                 446          :
          :  # atomic orbitals                 443          :
          :  # shells                          249          :
          :  # electrons                       429          :
          :  # halogen bonds                     0          :
          :  max. iterations                   250          :
          :  Hamiltonian                  GFN1-xTB          :
          :  restarted?                      false          :
          :  GBSA solvation                  false          :
          :  PC potential                    false          :
          :  electronic temp.          300.0000000     K    :
          :  accuracy                    1.0000000          :
          :  -> integral cutoff          0.2500000E+02      :
          :  -> integral neglect         0.1000000E-07      :
          :  -> SCF convergence          0.1000000E-05 Eh   :
          :  -> wf. convergence          0.2000000E-04 e    :
          :  Broyden damping             0.4000000          :
          ...................................................

 iter      E             dE          RMSdq      gap      omega  full diag
   1   -231.5659391 -0.231566E+03  0.110E+01    0.23       0.0  T
   2   -217.8477398  0.137182E+02  0.824E+00    0.16       1.0  T
   3     -4.5422580  0.213305E+03  0.149E+01    0.05       1.0  T
   4    306.9838189  0.311526E+03  0.195E+01    0.01       1.0  T
   5   -112.6161158 -0.419600E+03  0.101E+01    0.04       1.0  T
   6   -226.6098729 -0.113994E+03  0.465E+00    0.16       1.0  T
   7   -213.6886610  0.129212E+02  0.517E+00    0.00       1.0  T
   8   -230.0532938 -0.163646E+02  0.300E+00    0.01       1.0  T
   9   -231.4635623 -0.141027E+01  0.231E+00    0.01       1.0  T
  10   -231.3163348  0.147228E+00  0.233E+00    0.09       1.0  T
  11   -231.5954561 -0.279121E+00  0.192E+00    0.05       1.0  T
  12   -231.2378136  0.357642E+00  0.193E+00    0.11       1.0  T
  13   -231.5045261 -0.266713E+00  0.180E+00    0.00       1.0  T
  14   -231.8167501 -0.312224E+00  0.171E+00    0.11       1.0  T
  15   -232.1894881 -0.372738E+00  0.141E+00    0.11       1.0  T
  16   -231.0971624  0.109233E+01  0.194E+00    0.12       1.0  T
  17   -231.7565596 -0.659397E+00  0.164E+00    0.18       1.0  T
  18   -231.6455920  0.110968E+00  0.154E+00    0.11       1.0  T
  19   -231.7346906 -0.890986E-01  0.143E+00    0.18       1.0  T
  20   -231.3618216  0.372869E+00  0.129E+00    0.07       1.0  T
  21   -231.3276362  0.341854E-01  0.129E+00    0.07       1.0  T
  22   -230.8355453  0.492091E+00  0.148E+00    0.12       1.0  T
  23   -231.1681032 -0.332558E+00  0.120E+00    0.06       1.0  T
  24   -232.1638654 -0.995762E+00  0.106E+00    0.30       1.0  T
  25   -232.1832655 -0.194001E-01  0.103E+00    0.30       1.0  T
  26   -232.3768357 -0.193570E+00  0.715E-01    0.09       1.0  T
  27   -232.3511385  0.256972E-01  0.133E+00    0.16       1.0  T
  28   -232.5140968 -0.162958E+00  0.798E-01    0.03       1.0  T
  29   -232.5523101 -0.382133E-01  0.706E-01    0.02       1.0  T
  30   -232.5304619  0.218482E-01  0.792E-01    0.01       1.0  T
  31   -232.5420817 -0.116198E-01  0.708E-01    0.03       1.0  T
  32   -232.5065663  0.355154E-01  0.684E-01    0.05       1.0  T
  33   -231.9033148  0.603252E+00  0.155E+00    0.05       1.0  T
  34   -231.9526777 -0.493630E-01  0.150E+00    0.06       1.0  T
  35   -231.7795913  0.173086E+00  0.152E+00    0.01       1.0  T
  36   -232.1898891 -0.410298E+00  0.131E+00    0.05       1.0  T
  37   -231.8951458  0.294743E+00  0.142E+00    0.05       1.0  T
  38   -231.9417578 -0.466120E-01  0.134E+00    0.05       1.0  T
  39   -232.5788404 -0.637083E+00  0.488E-01    0.01       1.0  T
  40   -232.6224277 -0.435874E-01  0.511E-01    0.02       1.0  T
  41   -232.6434906 -0.210629E-01  0.468E-01    0.01       1.0  T
  42   -232.6571650 -0.136743E-01  0.410E-01    0.00       1.0  T
  43   -232.6674861 -0.103211E-01  0.431E-01    0.00       1.0  T
  44   -232.6613124  0.617367E-02  0.416E-01    0.02       1.0  T
  45   -232.7005132 -0.392007E-01  0.282E-01    0.02       1.0  T
  46   -232.6865004  0.140127E-01  0.316E-01    0.02       1.0  T
  47   -232.6518610  0.346394E-01  0.405E-01    0.01       1.0  T
  48   -232.7038130 -0.519520E-01  0.172E-01    0.01       1.0  T
  49   -232.7188351 -0.150221E-01  0.667E-02    0.01       1.0  T
  50   -232.7185811  0.253972E-03  0.756E-02    0.01       1.0  T
  51   -232.7194078 -0.826687E-03  0.618E-02    0.00       1.0  T
  52   -232.7188456  0.562212E-03  0.693E-02    0.00       1.0  T
  53   -232.7197680 -0.922355E-03  0.452E-02    0.00       1.0  T
  54   -232.7203446 -0.576605E-03  0.255E-02    0.01       1.0  T
  55   -232.7203762 -0.316542E-04  0.209E-02    0.01       1.0  T
  56   -232.7203994 -0.232320E-04  0.212E-02    0.01       1.0  T
  57   -232.7203498  0.495969E-04  0.253E-02    0.01       1.0  T
  58   -232.7204136 -0.637077E-04  0.194E-02    0.01       1.0  T
  59   -232.7204591 -0.455051E-04  0.132E-02    0.01       1.0  T
  60   -232.7204793 -0.202287E-04  0.960E-03    0.01       1.0  T
  61   -232.7204926 -0.132640E-04  0.545E-03    0.01       1.7  T
  62   -232.7204987 -0.611438E-05  0.292E-03    0.01       3.1  T
  63   -232.7205002 -0.156970E-05  0.162E-03    0.01       5.6  T
  64   -232.7205003 -0.612766E-07  0.125E-03    0.01       7.2  T
  65   -232.7205006 -0.343801E-06  0.896E-04    0.01      10.1  T
  66   -232.7205009 -0.258379E-06  0.501E-04    0.01      18.0  T
  67   -232.7205010 -0.902183E-07  0.163E-04    0.01      55.2  T
  68   -232.7205010 -0.399078E-08  0.114E-04    0.01      79.3  T

   *** convergence criteria satisfied after 68 iterations ***

         #    Occupation            Energy/Eh            Energy/eV
      -------------------------------------------------------------
         1        2.0000           -0.7841743             -21.3385
       ...           ...                  ...                  ...
       209        2.0000           -0.3888736             -10.5818
       210        2.0000           -0.3870379             -10.5318
       211        1.9983           -0.3624610              -9.8631
       212        1.9612           -0.3594731              -9.7818
       213        1.2005           -0.3560848              -9.6896
       214        1.1437           -0.3559699              -9.6864
       215        0.8110           -0.3553101              -9.6685 (HOMO)
       216        0.6803           -0.3550359              -9.6610 (LUMO)
       217        0.6046           -0.3548660              -9.6564
       218        0.6000           -0.3548554              -9.6561
       219        0.0004           -0.3474544              -9.4547
       220                         -0.3385649              -9.2128
       ...                                ...                  ...
       443                         16.5667371             450.8039
      -------------------------------------------------------------
                  HL-Gap            0.0002742 Eh            0.0075 eV
             Fermi-level           -0.3556857 Eh           -9.6787 eV

 SCC (total)                   0 d,  0 h,  0 min,  5.207 sec
 SCC setup                      ...        0 min,  0.006 sec (  0.119%)
 Dispersion                     ...        0 min,  0.004 sec (  0.085%)
 classical contributions        ...        0 min,  0.001 sec (  0.025%)
 integral evaluation            ...        0 min,  0.188 sec (  3.614%)
 iterations                     ...        0 min,  4.602 sec ( 88.365%)
 molecular gradient             ...        0 min,  0.382 sec (  7.329%)
 printout                       ...        0 min,  0.024 sec (  0.462%)

         :::::::::::::::::::::::::::::::::::::::::::::::::::::
         ::                     SUMMARY                     ::
         :::::::::::::::::::::::::::::::::::::::::::::::::::::
         :: total energy            -226.381057766368 Eh    ::
         :: gradient norm              7.007636689128 Eh/a0 ::
         :: HOMO-LUMO gap              0.007462149186 eV    ::
         ::.................................................::
         :: SCC energy              -232.720500995454 Eh    ::
         :: -> electrostatic           0.192113981978 Eh    ::
         :: repulsion energy           6.440444789179 Eh    ::
         :: dispersion energy         -0.101001560093 Eh    ::
         :: halogen bond corr.         0.000000000000 Eh    ::
         :: add. restraining           0.000000000000 Eh    ::
         :: total charge              -0.000000000110 e     ::
         :::::::::::::::::::::::::::::::::::::::::::::::::::::

      ----------------------------------------------------------- 
     |                   =====================                   |
     |                        A N C O P T                        |
     |                   =====================                   |
     |               Approximate Normal Coordinate               |
     |                Rational Function Optimizer                |
      ----------------------------------------------------------- 

          ...................................................
          :                      SETUP                      :
          :.................................................:
          :   optimization level            normal          :
          :   max. optcycles                   369          :
          :   ANC micro-cycles                  20          :
          :   degrees of freedom               363          :
          :.................................................:
          :   RF solver                   davidson          :
          :   write xtbopt.log                true          :
          :   linear?                        false          :
          :   energy convergence         0.5000000E-05 Eh   :
          :   grad. convergence          0.1000000E-02 Eh/α :
          :   maximium RF displ.         1.0000000          :
          :   Hlow (freq-cutoff)         0.1000000E-01      :
          :   Hmax (freq-cutoff)         5.0000000          :
          :   S6 in model hess.         20.0000000          :
          ...................................................

generating ANC from model Hessian ...
Using Lindh-Hessian (1995)
 Shifting diagonal of input Hessian by    1.0114878455912362E-002
 Lowest  eigenvalues of input Hessian
    0.010000    0.010008    0.010081    0.010085    0.010088    0.010090
    0.010094    0.010099    0.010100    0.000000    0.000000    0.000000
    0.000000    0.000000    0.000000    0.010118    0.010124    0.010127
 Highest eigenvalues
    3.167973    3.239429    3.920164    4.869666    5.044271    5.277761


........................................................................
.............................. CYCLE    1 ..............................
........................................................................
   1   -232.7205010 -0.232721E+03  0.123E-04    0.01       0.0  T
   2   -232.7204923  0.868379E-05  0.405E-03    0.01       2.2  T
   3   -232.7204978 -0.551013E-05  0.210E-03    0.01       4.3  T
   4   -232.7205004 -0.254280E-05  0.125E-03    0.01       7.2  T
   5   -232.7205006 -0.189283E-06  0.106E-03    0.01       8.5  T
   6   -232.7205010 -0.424335E-06  0.249E-04    0.01      36.2  T
   7   -232.7205010  0.120932E-08  0.232E-04    0.01      38.9  T
   8   -232.7205010  0.224489E-07  0.294E-04    0.01      30.7  T
   9   -232.7205010 -0.281255E-07  0.184E-04    0.01      49.1  T
  10   -232.7205010 -0.128201E-07  0.106E-04    0.01      85.1  T
     SCC iter.                  ...        0 min,  0.659 sec
     gradient                   ...        0 min,  0.380 sec
 * total energy  :  -226.3810578 Eh     change        0.5243805E-09 Eh
   gradient norm :     7.0076375 Eh/α   predicted     0.0000000E+00 (-100.00%)
   displ. norm   :     0.7251906 α      lambda       -0.5048491E+01
   maximum displ.:     0.6049715 α      in ANC's #362, #363, #356, ...

........................................................................
.............................. CYCLE    2 ..............................
........................................................................
   1   -232.6239489 -0.232624E+03  0.819E-01    0.01       0.0  T
   2   -230.0180935  0.260586E+01  0.234E+00    0.24       1.0  T
   3   -232.2406875 -0.222259E+01  0.104E+00    0.18       1.0  T
   4   -231.7057497  0.534938E+00  0.133E+00    0.10       1.0  T
   5   -232.4207818 -0.715032E+00  0.105E+00    0.01       1.0  T
   6   -232.7155950 -0.294813E+00  0.485E-01    0.02       1.0  T
   7   -232.2943278  0.421267E+00  0.981E-01    0.10       1.0  T
   8   -232.4501760 -0.155848E+00  0.839E-01    0.03       1.0  T
   9   -232.5304831 -0.803071E-01  0.746E-01    0.03       1.0  T
  10   -232.6068408 -0.763577E-01  0.673E-01    0.01       1.0  T
  11   -232.6849790 -0.781382E-01  0.572E-01    0.00       1.0  T
  12   -232.6576830  0.272960E-01  0.569E-01    0.02       1.0  T
  13   -232.7763402 -0.118657E+00  0.230E-01    0.01       1.0  T
  14   -232.6754628  0.100877E+00  0.528E-01    0.01       1.0  T
  15   -232.6338419  0.416209E-01  0.608E-01    0.01       1.0  T
  16   -232.7475240 -0.113682E+00  0.344E-01    0.01       1.0  T
  17   -232.7729263 -0.254022E-01  0.200E-01    0.00       1.0  T
  18   -232.7742331 -0.130677E-02  0.236E-01    0.00       1.0  T
  19   -232.7896738 -0.154407E-01  0.130E-01    0.01       1.0  T
  20   -232.7962003 -0.652650E-02  0.621E-02    0.01       1.0  T
  21   -232.7974014 -0.120111E-02  0.298E-02    0.01       1.0  T
  22   -232.7976865 -0.285054E-03  0.221E-02    0.01       1.0  T
  23   -232.7978719 -0.185461E-03  0.135E-02    0.01       1.0  T
  24   -232.7979434 -0.715270E-04  0.766E-03    0.01       1.2  T
  25   -232.7979648 -0.213566E-04  0.475E-03    0.01       1.9  T
  26   -232.7979699 -0.511975E-05  0.330E-03    0.01       2.7  T
  27   -232.7979772 -0.723494E-05  0.118E-03    0.01       7.6  T
  28   -232.7979776 -0.446187E-06  0.231E-04    0.01      39.0  T
  29   -232.7979776 -0.281429E-07  0.908E-05    0.01      99.3  T
  30   -232.7979776  0.142018E-07  0.180E-04    0.01      50.0  T
     SCC iter.                  ...        0 min,  1.977 sec
     gradient                   ...        0 min,  0.378 sec
 * total energy  :  -228.3258948 Eh     change       -0.1944837E+01 Eh
   gradient norm :     1.1158834 Eh/α   predicted    -0.3851827E+01 (  98.05%)
   displ. norm   :     0.5206595 α      lambda       -0.4972597E+00
   maximum displ.:     0.1828624 α      in ANC's #356, #205, #357, ...

........................................................................
.............................. CYCLE    3 ..............................
........................................................................
   1   -232.7295344 -0.232730E+03  0.504E-01    0.00       0.0  T
   2   -230.9741942  0.175534E+01  0.183E+00    0.30       1.0  T
   3   -232.3935848 -0.141939E+01  0.974E-01    0.10       1.0  T
   4   -232.2904032  0.103182E+00  0.982E-01    0.04       1.0  T
   5   -232.1324199  0.157983E+00  0.110E+00    0.15       1.0  T
   6   -232.7175203 -0.585100E+00  0.488E-01    0.03       1.0  T
   7   -232.6006539  0.116866E+00  0.662E-01    0.02       1.0  T
   8   -232.7118671 -0.111213E+00  0.558E-01    0.03       1.0  T
   9   -232.6465032  0.653640E-01  0.625E-01    0.05       1.0  T
  10   -232.7025864 -0.560833E-01  0.459E-01    0.03       1.0  T
  11   -232.6885490  0.140374E-01  0.522E-01    0.02       1.0  T
  12   -232.7197588 -0.312098E-01  0.447E-01    0.00       1.0  T
  13   -232.7320414 -0.122826E-01  0.343E-01    0.01       1.0  T
  14   -232.7989552 -0.669138E-01  0.127E-01    0.01       1.0  T
  15   -232.7970236  0.193164E-02  0.149E-01    0.01       1.0  T
  16   -232.7965581  0.465496E-03  0.108E-01    0.00       1.0  T
  17   -232.8025687 -0.601056E-02  0.680E-02    0.00       1.0  T
  18   -232.8042871 -0.171847E-02  0.429E-02    0.00       1.0  T
  19   -232.8046354 -0.348252E-03  0.313E-02    0.00       1.0  T
  20   -232.8051221 -0.486677E-03  0.975E-03    0.00       1.0  T
  21   -232.8050946  0.274490E-04  0.109E-02    0.00       1.0  T
  22   -232.8051457 -0.510420E-04  0.716E-03    0.00       1.3  T
  23   -232.8051759 -0.302810E-04  0.371E-03    0.00       2.4  T
  24   -232.8051817 -0.575579E-05  0.101E-03    0.00       8.9  T
  25   -232.8051817 -0.356132E-07  0.993E-04    0.00       9.1  T
  26   -232.8051824 -0.660677E-06  0.192E-04    0.00      46.9  T
  27   -232.8051824  0.165291E-07  0.227E-04    0.00      39.7  T
  28   -232.8051824 -0.216432E-07  0.172E-04    0.00      52.4  T
     SCC iter.                  ...        0 min,  1.841 sec
     gradient                   ...        0 min,  0.378 sec
 * total energy  :  -228.6443444 Eh     change       -0.3184496E+00 Eh
   gradient norm :     0.5332680 Eh/α   predicted    -0.3160315E+00 (  -0.76%)
   displ. norm   :     0.5554614 α      lambda       -0.1878154E+00
   maximum displ.:     0.2112854 α      in ANC's #86, #103, #205, ...

........................................................................
.............................. CYCLE    4 ..............................
........................................................................
   1   -232.8144036 -0.232814E+03  0.470E-01    0.00       0.0  T
   2   -231.5779799  0.123642E+01  0.171E+00    0.09       1.0  T
   3   -232.7134063 -0.113543E+01  0.729E-01    0.07       1.0  T
   4   -232.0276299  0.685776E+00  0.117E+00    0.19       1.0  T
   5   -232.1446454 -0.117015E+00  0.114E+00    0.32       1.0  T
   6   -232.6364404 -0.491795E+00  0.763E-01    0.01       1.0  T
   7   -232.7521757 -0.115735E+00  0.581E-01    0.01       1.0  T
   8   -232.7735266 -0.213509E-01  0.550E-01    0.01       1.0  T
   9   -232.7496527  0.238739E-01  0.614E-01    0.03       1.0  T
  10   -232.7319318  0.177209E-01  0.640E-01    0.02       1.0  T
  11   -232.7139687  0.179631E-01  0.753E-01    0.01       1.0  T
  12   -232.7384832 -0.245145E-01  0.661E-01    0.02       1.0  T
  13   -232.7706619 -0.321786E-01  0.571E-01    0.00       1.0  T
  14   -232.8576663 -0.870045E-01  0.265E-01    0.00       1.0  T
  15   -232.8820081 -0.243417E-01  0.128E-01    0.01       1.0  T
  16   -232.8824843 -0.476291E-03  0.110E-01    0.01       1.0  T
  17   -232.8817489  0.735426E-03  0.109E-01    0.01       1.0  T
  18   -232.8851156 -0.336664E-02  0.425E-02    0.00       1.0  T
  19   -232.8858640 -0.748430E-03  0.132E-02    0.00       1.0  T
  20   -232.8859196 -0.555635E-04  0.858E-03    0.00       1.1  T
  21   -232.8858947  0.248073E-04  0.912E-03    0.00       1.0  T
  22   -232.8859261 -0.314014E-04  0.495E-03    0.00       1.8  T
  23   -232.8859348 -0.865443E-05  0.354E-03    0.00       2.5  T
  24   -232.8859384 -0.357467E-05  0.123E-03    0.00       7.3  T
  25   -232.8859387 -0.331674E-06  0.657E-04    0.00      13.7  T
  26   -232.8859387  0.101194E-07  0.607E-04    0.00      14.9  T
  27   -232.8859388 -0.105404E-06  0.425E-04    0.00      21.2  T
  28   -232.8859389 -0.633405E-07  0.902E-05    0.00     100.0  T
  29   -232.8859389 -0.491278E-08  0.178E-05    0.00     507.6  T
     SCC iter.                  ...        0 min,  1.918 sec
     gradient                   ...        0 min,  0.379 sec
 * total energy  :  -228.7748495 Eh     change       -0.1305051E+00 Eh
   gradient norm :     0.3002679 Eh/α   predicted    -0.1228818E+00 (  -5.84%)
   displ. norm   :     0.6882605 α      lambda       -0.1006835E+00
   maximum displ.:     0.3254100 α      in ANC's #86, #42, #103, ...

........................................................................
.............................. CYCLE    5 ..............................
........................................................................
   1   -232.8166236 -0.232817E+03  0.428E-01    0.00       0.0  T
   2   -231.8721302  0.944493E+00  0.166E+00    0.24       1.0  T
   3   -232.5560554 -0.683925E+00  0.901E-01    0.08       1.0  T
   4   -232.7086868 -0.152631E+00  0.588E-01    0.06       1.0  T
   5   -232.7284751 -0.197883E-01  0.601E-01    0.02       1.0  T
   6   -232.4643575  0.264118E+00  0.851E-01    0.10       1.0  T
   7   -232.7744878 -0.310130E+00  0.574E-01    0.04       1.0  T
   8   -232.7605209  0.139669E-01  0.477E-01    0.00       1.0  T
   9   -232.7376127  0.229083E-01  0.476E-01    0.02       1.0  T
  10   -232.8146349 -0.770222E-01  0.315E-01    0.01       1.0  T
  11   -232.8607323 -0.460975E-01  0.102E-01    0.01       1.0  T
  12   -232.8627527 -0.202036E-02  0.925E-02    0.01       1.0  T
  13   -232.8573825  0.537024E-02  0.132E-01    0.01       1.0  T
  14   -232.8640707 -0.668827E-02  0.676E-02    0.01       1.0  T
  15   -232.8640620  0.876754E-05  0.625E-02    0.00       1.0  T
  16   -232.8651885 -0.112655E-02  0.237E-02    0.00       1.0  T
  17   -232.8653624 -0.173924E-03  0.765E-03    0.00       1.2  T
  18   -232.8653962 -0.338021E-04  0.308E-03    0.00       2.9  T
  19   -232.8653988 -0.254303E-05  0.253E-03    0.00       3.6  T
  20   -232.8654008 -0.206341E-05  0.132E-03    0.00       6.8  T
  21   -232.8654013 -0.467984E-06  0.649E-04    0.00      13.9  T
  22   -232.8654015 -0.138890E-06  0.471E-04    0.00      19.1  T
  23   -232.8654015 -0.608513E-07  0.188E-04    0.00      47.9  T
  24   -232.8654015 -0.104411E-07  0.776E-05    0.00     116.3  T
     SCC iter.                  ...        0 min,  1.581 sec
     gradient                   ...        0 min,  0.378 sec
 * total energy  :  -228.8505991 Eh     change       -0.7574962E-01 Eh
   gradient norm :     0.1908295 Eh/α   predicted    -0.7418976E-01 (  -2.06%)
   displ. norm   :     0.7725152 α      lambda       -0.6669616E-01
   maximum displ.:     0.4211186 α      in ANC's #42, #86, #81, ...

........................................................................
.............................. CYCLE    6 ..............................
........................................................................
   1   -232.8032709 -0.232803E+03  0.321E-01    0.01       0.0  T
   2   -232.1701689  0.633102E+00  0.140E+00    0.12       1.0  T
   3   -232.6026717 -0.432503E+00  0.826E-01    0.09       1.0  T
   4   -232.7605462 -0.157875E+00  0.428E-01    0.03       1.0  T
   5   -232.7507654  0.978076E-02  0.541E-01    0.00       1.0  T
   6   -232.7697073 -0.189419E-01  0.425E-01    0.04       1.0  T
   7   -232.8103728 -0.406655E-01  0.251E-01    0.02       1.0  T
   8   -232.7826493  0.277235E-01  0.301E-01    0.02       1.0  T
   9   -232.7036652  0.789841E-01  0.493E-01    0.01       1.0  T
  10   -232.8232391 -0.119574E+00  0.181E-01    0.02       1.0  T
  11   -232.8304960 -0.725684E-02  0.473E-02    0.01       1.0  T
  12   -232.8287887  0.170727E-02  0.953E-02    0.01       1.0  T
  13   -232.8306540 -0.186531E-02  0.557E-02    0.00       1.0  T
  14   -232.8309119 -0.257848E-03  0.418E-02    0.00       1.0  T
  15   -232.8314971 -0.585195E-03  0.120E-02    0.00       1.0  T
  16   -232.8315204 -0.233484E-04  0.539E-03    0.00       1.7  T
  17   -232.8315325 -0.120547E-04  0.400E-03    0.00       2.3  T
  18   -232.8315370 -0.447683E-05  0.206E-03    0.00       4.4  T
  19   -232.8315387 -0.171186E-05  0.491E-04    0.00      18.4  T
  20   -232.8315387  0.363232E-08  0.467E-04    0.00      19.3  T
  21   -232.8315387 -0.301233E-07  0.357E-04    0.00      25.3  T
  22   -232.8315387 -0.508249E-07  0.892E-05    0.00     101.1  T
  23   -232.8315387 -0.158073E-08  0.513E-05    0.00     175.8  T
     SCC iter.                  ...        0 min,  1.519 sec
     gradient                   ...        0 min,  0.376 sec
 * total energy  :  -228.9063570 Eh     change       -0.5575788E-01 Eh
   gradient norm :     0.1610787 Eh/α   predicted    -0.5324971E-01 (  -4.50%)
   displ. norm   :     0.8564397 α      lambda       -0.5894554E-01
   maximum displ.:     0.5470027 α      in ANC's #42, #86, #81, ...

........................................................................
.............................. CYCLE    7 ..............................
........................................................................
   1   -232.7630409 -0.232763E+03  0.229E-01    0.01       0.0  T
   2   -232.1073662  0.655675E+00  0.119E+00    0.07       1.0  T
   3   -232.5746826 -0.467316E+00  0.774E-01    0.07       1.0  T
   4   -232.7680357 -0.193353E+00  0.205E-01    0.00       1.0  T
   5   -232.6542889  0.113747E+00  0.574E-01    0.07       1.0  T
   6   -232.7263148 -0.720259E-01  0.367E-01    0.04       1.0  T
   7   -232.7672204 -0.409056E-01  0.232E-01    0.01       1.0  T
   8   -232.7313836  0.358368E-01  0.424E-01    0.00       1.0  T
   9   -232.7359603 -0.457677E-02  0.394E-01    0.03       1.0  T
  10   -232.7317058  0.425457E-02  0.401E-01    0.05       1.0  T
  11   -232.7545533 -0.228475E-01  0.284E-01    0.02       1.0  T
  12   -232.7700881 -0.155348E-01  0.149E-01    0.02       1.0  T
  13   -232.7739002 -0.381208E-02  0.104E-01    0.01       1.0  T
  14   -232.7762212 -0.232101E-02  0.738E-02    0.01       1.0  T
  15   -232.7782124 -0.199127E-02  0.304E-02    0.00       1.0  T
  16   -232.7784959 -0.283431E-03  0.717E-03    0.00       1.3  T
  17   -232.7785142 -0.183275E-04  0.245E-03    0.00       3.7  T
  18   -232.7785105  0.371022E-05  0.388E-03    0.00       2.3  T
  19   -232.7785141 -0.357938E-05  0.231E-03    0.00       3.9  T
  20   -232.7785157 -0.165031E-05  0.670E-04    0.00      13.5  T
  21   -232.7785158 -0.661683E-07  0.505E-04    0.00      17.8  T
  22   -232.7785158 -0.513527E-07  0.267E-04    0.00      33.7  T
  23   -232.7785159 -0.175467E-07  0.790E-05    0.00     114.2  T
  24   -232.7785159  0.313378E-09  0.768E-05    0.00     117.5  T
     SCC iter.                  ...        0 min,  1.581 sec
     gradient                   ...        0 min,  0.377 sec
 * total energy  :  -228.9628904 Eh     change       -0.5653339E-01 Eh
   gradient norm :     0.1253977 Eh/α   predicted    -0.5109074E-01 (  -9.63%)
   displ. norm   :     0.9537694 α      lambda       -0.6606232E-01
   maximum displ.:     0.6310272 α      in ANC's #42, #86, #81, ...

........................................................................
.............................. CYCLE    8 ..............................
........................................................................
   1   -232.7091490 -0.232709E+03  0.201E-01    0.02       0.0  T
   2   -232.4696666  0.239482E+00  0.915E-01    0.19       1.0  T
   3   -232.6003840 -0.130717E+00  0.632E-01    0.10       1.0  T
   4   -232.6119823 -0.115983E-01  0.595E-01    0.06       1.0  T
   5   -232.6942350 -0.822527E-01  0.298E-01    0.03       1.0  T
   6   -232.6272978  0.669372E-01  0.558E-01    0.07       1.0  T
   7   -232.6896876 -0.623898E-01  0.321E-01    0.04       1.0  T
   8   -232.6732139  0.164737E-01  0.401E-01    0.02       1.0  T
   9   -232.7192964 -0.460826E-01  0.809E-02    0.01       1.0  T
  10   -232.7196771 -0.380676E-03  0.720E-02    0.01       1.0  T
  11   -232.7211655 -0.148844E-02  0.167E-02    0.00       1.0  T
  12   -232.7212441 -0.785669E-04  0.411E-03    0.00       2.2  T
  13   -232.7212466 -0.248909E-05  0.315E-03    0.00       2.9  T
  14   -232.7212482 -0.154618E-05  0.224E-03    0.00       4.0  T
  15   -232.7212496 -0.145083E-05  0.349E-04    0.00      25.9  T
  16   -232.7212496  0.470152E-07  0.522E-04    0.00      17.3  T
  17   -232.7212496 -0.839613E-07  0.109E-05    0.00     824.5  T
  18   -232.7212496  0.291359E-08  0.966E-05    0.00      93.3  T
     SCC iter.                  ...        0 min,  1.190 sec
     gradient                   ...        0 min,  0.378 sec
 * total energy  :  -229.0294208 Eh     change       -0.6653045E-01 Eh
   gradient norm :     0.1140418 Eh/α   predicted    -0.6307883E-01 (  -5.19%)
   displ. norm   :     0.9420176 α      lambda       -0.7489450E-01
   maximum displ.:     0.5971181 α      in ANC's #42, #86, #81, ...

........................................................................
.............................. CYCLE    9 ..............................
........................................................................
   1   -232.6462321 -0.232646E+03  0.225E-01    0.03       0.0  T
   2   -232.3233601  0.322872E+00  0.967E-01    0.01       1.0  T
   3   -232.6007972 -0.277437E+00  0.450E-01    0.06       1.0  T
   4   -232.5424485  0.583487E-01  0.610E-01    0.06       1.0  T
   5   -232.6121514 -0.697028E-01  0.416E-01    0.01       1.0  T
   6   -232.6228311 -0.106798E-01  0.367E-01    0.01       1.0  T
   7   -232.6163559  0.647523E-02  0.399E-01    0.05       1.0  T
   8   -232.6198454 -0.348949E-02  0.377E-01    0.05       1.0  T
   9   -232.6605662 -0.407209E-01  0.339E-02    0.00       1.0  T
  10   -232.6577945  0.277174E-02  0.105E-01    0.00       1.0  T
  11   -232.6609360 -0.314153E-02  0.658E-03    0.00       1.4  T
  12   -232.6609320  0.404866E-05  0.784E-03    0.00       1.1  T
  13   -232.6609486 -0.166241E-04  0.207E-03    0.00       4.4  T
  14   -232.6609497 -0.104285E-05  0.810E-04    0.00      11.1  T
  15   -232.6609498 -0.108631E-06  0.569E-04    0.00      15.8  T
  16   -232.6609499 -0.945479E-07  0.138E-04    0.00      65.2  T
  17   -232.6609499 -0.269551E-08  0.110E-04    0.00      81.9  T
     SCC iter.                  ...        0 min,  1.123 sec
     gradient                   ...        0 min,  0.375 sec
 * total energy  :  -229.0962315 Eh     change       -0.6681065E-01 Eh
   gradient norm :     0.1311252 Eh/α   predicted    -0.7067784E-01 (   5.79%)
   displ. norm   :     0.9829894 α      lambda       -0.6119067E-01
   maximum displ.:     0.6686185 α      in ANC's #42, #86, #81, ...

........................................................................
.............................. CYCLE   10 ..............................
........................................................................
   1   -232.6094459 -0.232609E+03  0.273E-01    0.03       0.0  T
   2   -232.3277646  0.281681E+00  0.954E-01    0.07       1.0  T
   3   -232.5785898 -0.250825E+00  0.426E-01    0.03       1.0  T
   4   -232.5968805 -0.182908E-01  0.319E-01    0.02       1.0  T
   5   -232.6159865 -0.191060E-01  0.208E-01    0.01       1.0  T
   6   -232.6039978  0.119887E-01  0.290E-01    0.02       1.0  T
   7   -232.6177051 -0.137072E-01  0.191E-01    0.01       1.0  T
   8   -232.6289536 -0.112486E-01  0.207E-02    0.00       1.0  T
   9   -232.6289551 -0.143182E-05  0.200E-02    0.00       1.0  T
  10   -232.6290801 -0.125025E-03  0.140E-03    0.00       6.4  T
  11   -232.6290794  0.725385E-06  0.220E-03    0.00       4.1  T
  12   -232.6290807 -0.131678E-05  0.510E-04    0.00      17.7  T
  13   -232.6290806  0.965947E-07  0.767E-04    0.00      11.8  T
  14   -232.6290807 -0.152877E-06  0.297E-04    0.00      30.4  T
  15   -232.6290808 -0.265850E-07  0.241E-05    0.00     373.8  T
  16   -232.6290808 -0.153079E-09  0.880E-06    0.00    1024.4  T
     SCC iter.                  ...        0 min,  1.061 sec
     gradient                   ...        0 min,  0.376 sec
 * total energy  :  -229.1460157 Eh     change       -0.4978421E-01 Eh
   gradient norm :     0.1443506 Eh/α   predicted    -0.6015870E-01 (  20.84%)
   displ. norm   :     0.8671240 α      lambda       -0.5702327E-01
   maximum displ.:     0.5172516 α      in ANC's #42, #4, #57, ...

........................................................................
.............................. CYCLE   11 ..............................
........................................................................
   1   -232.6397489 -0.232640E+03  0.325E-01    0.02       0.0  T
   2   -232.3817144  0.258035E+00  0.968E-01    0.25       1.0  T
   3   -232.5636063 -0.181892E+00  0.601E-01    0.07       1.0  T
   4   -232.5559724  0.763389E-02  0.590E-01    0.02       1.0  T
   5   -232.5248955  0.310769E-01  0.672E-01    0.07       1.0  T
   6   -232.6035437 -0.786481E-01  0.463E-01    0.03       1.0  T
   7   -232.6251248 -0.215811E-01  0.374E-01    0.03       1.0  T
   8   -232.6672800 -0.421553E-01  0.583E-02    0.01       1.0  T
   9   -232.6682390 -0.958948E-03  0.218E-02    0.00       1.0  T
  10   -232.6683131 -0.741676E-04  0.149E-02    0.00       1.0  T
  11   -232.6683813 -0.682107E-04  0.438E-03    0.00       2.1  T
  12   -232.6683827 -0.133100E-05  0.399E-03    0.00       2.3  T
  13   -232.6683859 -0.324873E-05  0.229E-03    0.00       3.9  T
  14   -232.6683861 -0.218629E-06  0.204E-03    0.00       4.4  T
  15   -232.6683873 -0.118358E-05  0.787E-04    0.00      11.5  T
  16   -232.6683874 -0.922313E-07  0.556E-04    0.00      16.2  T
  17   -232.6683875 -0.953268E-07  0.146E-04    0.00      61.7  T
  18   -232.6683875 -0.676161E-08  0.264E-05    0.00     341.2  T
     SCC iter.                  ...        0 min,  1.193 sec
     gradient                   ...        0 min,  0.376 sec
 * total energy  :  -229.1445320 Eh     change        0.1483671E-02 Eh
   gradient norm :     0.2494543 Eh/α   predicted    -0.4994968E-01 (*******%)
   displ. norm   :     0.5848390 α      lambda       -0.7615525E-01
   maximum displ.:     0.2781669 α      in ANC's #42, #86, #172, ...

........................................................................
.............................. CYCLE   12 ..............................
........................................................................
   1   -232.6613524 -0.232661E+03  0.282E-01    0.01       0.0  T
   2   -232.4213161  0.240036E+00  0.942E-01    0.60       1.0  T
   3   -232.5124183 -0.911022E-01  0.764E-01    0.18       1.0  T
   4   -232.5573789 -0.449605E-01  0.664E-01    0.11       1.0  T
   5   -232.6673347 -0.109956E+00  0.254E-01    0.03       1.0  T
   6   -232.6700184 -0.268368E-02  0.228E-01    0.00       1.0  T
   7   -232.6421216  0.278968E-01  0.384E-01    0.05       1.0  T
   8   -232.6272404  0.148812E-01  0.443E-01    0.01       1.0  T
   9   -232.6795556 -0.523153E-01  0.147E-01    0.02       1.0  T
  10   -232.6858228 -0.626717E-02  0.332E-02    0.00       1.0  T
  11   -232.6861213 -0.298433E-03  0.899E-03    0.00       1.0  T
  12   -232.6861225 -0.123973E-05  0.904E-03    0.00       1.0  T
  13   -232.6861382 -0.156726E-04  0.520E-03    0.00       1.7  T
  14   -232.6861461 -0.791354E-05  0.126E-03    0.00       7.2  T
  15   -232.6861462 -0.118397E-06  0.111E-03    0.00       8.1  T
  16   -232.6861466 -0.362519E-06  0.250E-04    0.00      36.1  T
  17   -232.6861466 -0.109318E-08  0.243E-04    0.00      37.1  T
  18   -232.6861465  0.128528E-07  0.322E-04    0.00      28.0  T
  19   -232.6861466 -0.294505E-07  0.758E-05    0.00     118.9  T
  20   -232.6861466 -0.142174E-08  0.315E-05    0.00     286.2  T
     SCC iter.                  ...        0 min,  1.325 sec
     gradient                   ...        0 min,  0.376 sec
 * total energy  :  -229.1895732 Eh     change       -0.4504114E-01 Eh
   gradient norm :     0.1394123 Eh/α   predicted    -0.5110160E-01 (  13.46%)
   displ. norm   :     0.6678304 α      lambda       -0.2197595E-01
   maximum displ.:     0.5287919 α      in ANC's #42, #11, #4, ...

........................................................................
.............................. CYCLE   13 ..............................
........................................................................
   1   -232.6823575 -0.232682E+03  0.248E-01    0.00       0.0  T
   2   -232.4580226  0.224335E+00  0.879E-01    0.82       1.0  T
   3   -232.5537225 -0.956998E-01  0.710E-01    0.11       1.0  T
   4   -232.5864789 -0.327564E-01  0.629E-01    0.11       1.0  T
   5   -232.6431922 -0.567133E-01  0.446E-01    0.07       1.0  T
   6   -232.5985952  0.445969E-01  0.592E-01    0.01       1.0  T
   7   -232.7013948 -0.102800E+00  0.370E-02    0.01       1.0  T
   8   -232.6995803  0.181455E-02  0.871E-02    0.00       1.0  T
   9   -232.7009129 -0.133262E-02  0.543E-02    0.01       1.0  T
  10   -232.7013846 -0.471728E-03  0.379E-02    0.00       1.0  T
  11   -232.7017971 -0.412459E-03  0.608E-03    0.00       1.5  T
  12   -232.7018064 -0.928839E-05  0.250E-03    0.00       3.6  T
  13   -232.7018056  0.733987E-06  0.301E-03    0.00       3.0  T
  14   -232.7018079 -0.221858E-05  0.130E-03    0.00       6.9  T
  15   -232.7018084 -0.495793E-06  0.379E-04    0.00      23.8  T
  16   -232.7018083  0.428298E-07  0.537E-04    0.00      16.8  T
  17   -232.7018084 -0.468814E-07  0.368E-04    0.00      24.5  T
  18   -232.7018084 -0.392675E-07  0.543E-05    0.00     166.1  T
  19   -232.7018084 -0.299707E-09  0.443E-05    0.00     203.7  T
     SCC iter.                  ...        0 min,  1.258 sec
     gradient                   ...        0 min,  0.375 sec
 * total energy  :  -229.2064085 Eh     change       -0.1683536E-01 Eh
   gradient norm :     0.1303581 Eh/α   predicted    -0.1588858E-01 (  -5.62%)
   displ. norm   :     0.6408747 α      lambda       -0.1803203E-01
   maximum displ.:     0.4540248 α      in ANC's #42, #11, #57, ...

........................................................................
.............................. CYCLE   14 ..............................
........................................................................
   1   -232.7191291 -0.232719E+03  0.286E-01    0.00       0.0  T
   2   -232.4159863  0.303143E+00  0.982E-01    0.76       1.0  T
   3   -232.5845132 -0.168527E+00  0.738E-01    0.07       1.0  T
   4   -232.6439522 -0.594390E-01  0.595E-01    0.09       1.0  T
   5   -232.7009093 -0.569571E-01  0.383E-01    0.05       1.0  T
   6   -232.6766239  0.242854E-01  0.479E-01    0.02       1.0  T
   7   -232.7422659 -0.656420E-01  0.654E-02    0.01       1.0  T
   8   -232.7398276  0.243829E-02  0.112E-01    0.00       1.0  T
   9   -232.7399492 -0.121608E-03  0.109E-01    0.01       1.0  T
  10   -232.7432955 -0.334627E-02  0.243E-02    0.00       1.0  T
  11   -232.7433481 -0.526242E-04  0.212E-02    0.00       1.0  T
  12   -232.7434740 -0.125860E-03  0.471E-03    0.00       1.9  T
  13   -232.7434806 -0.658899E-05  0.705E-04    0.00      12.8  T
  14   -232.7434805  0.302030E-07  0.780E-04    0.00      11.6  T
  15   -232.7434806 -0.951584E-07  0.568E-04    0.00      15.9  T
  16   -232.7434807 -0.849366E-07  0.182E-04    0.00      49.6  T
  17   -232.7434807 -0.870764E-08  0.540E-05    0.00     166.8  T
     SCC iter.                  ...        0 min,  0.898 sec
     gradient                   ...        0 min,  0.244 sec
 * total energy  :  -229.2161076 Eh     change       -0.9699076E-02 Eh
   gradient norm :     0.1407651 Eh/α   predicted    -0.1271906E-01 (  31.14%)
   displ. norm   :     0.7286776 α      lambda       -0.1854914E-01
   maximum displ.:     0.5037090 α      in ANC's #42, #4, #11, ...

........................................................................
.............................. CYCLE   15 ..............................
........................................................................
   1   -232.7379996 -0.232738E+03  0.336E-01    0.01       0.0  T
   2   -232.2575227  0.480477E+00  0.114E+00    0.64       1.0  T
   3   -232.6741745 -0.416652E+00  0.589E-01    0.02       1.0  T
   4   -232.6383854  0.357891E-01  0.664E-01    0.01       1.0  T
   5   -232.7262258 -0.878404E-01  0.398E-01    0.06       1.0  T
   6   -232.7699884 -0.437625E-01  0.591E-02    0.01       1.0  T
   7   -232.7696004  0.387936E-03  0.703E-02    0.00       1.0  T
   8   -232.7690317  0.568718E-03  0.811E-02    0.01       1.0  T
   9   -232.7706789 -0.164717E-02  0.301E-02    0.00       1.0  T
  10   -232.7709259 -0.246997E-03  0.671E-03    0.00       1.3  T
  11   -232.7709350 -0.913508E-05  0.354E-03    0.00       2.5  T
  12   -232.7709374 -0.238124E-05  0.204E-03    0.00       4.4  T
  13   -232.7709381 -0.760639E-06  0.115E-03    0.00       7.8  T
  14   -232.7709385 -0.360513E-06  0.242E-04    0.00      37.3  T
  15   -232.7709385 -0.641208E-08  0.183E-04    0.00      49.3  T
  16   -232.7709385 -0.847916E-08  0.658E-05    0.00     137.0  T
     SCC iter.                  ...        0 min,  0.798 sec
     gradient                   ...        0 min,  0.245 sec
 * total energy  :  -229.2255740 Eh     change       -0.9466415E-02 Eh
   gradient norm :     0.1477540 Eh/α   predicted    -0.1419910E-01 (  49.99%)
   displ. norm   :     0.5913753 α      lambda       -0.1363922E-01
   maximum displ.:     0.3292221 α      in ANC's #42, #4, #19, ...

........................................................................
.............................. CYCLE   16 ..............................
........................................................................
   1   -232.7666298 -0.232767E+03  0.108E-01    0.01       0.0  T
   2   -232.5711282  0.195502E+00  0.806E-01    0.33       1.0  T
   3   -232.7235059 -0.152378E+00  0.385E-01    0.01       1.0  T
   4   -232.7496921 -0.261862E-01  0.252E-01    0.03       1.0  T
   5   -232.7648893 -0.151972E-01  0.124E-01    0.01       1.0  T
   6   -232.7452691  0.196202E-01  0.278E-01    0.00       1.0  T
   7   -232.7658765 -0.206073E-01  0.108E-01    0.00       1.0  T
   8   -232.7691461 -0.326958E-02  0.370E-02    0.00       1.0  T
   9   -232.7695714 -0.425338E-03  0.496E-03    0.00       1.8  T
  10   -232.7695764 -0.498349E-05  0.303E-03    0.00       3.0  T
  11   -232.7695790 -0.256642E-05  0.104E-03    0.00       8.6  T
  12   -232.7695793 -0.298094E-06  0.374E-04    0.00      24.1  T
  13   -232.7695793 -0.343546E-07  0.158E-04    0.00      57.0  T
  14   -232.7695793 -0.762472E-08  0.349E-05    0.00     258.5  T
     SCC iter.                  ...        0 min,  0.699 sec
     gradient                   ...        0 min,  0.244 sec
 * total energy  :  -229.2223590 Eh     change        0.3215029E-02 Eh
   gradient norm :     0.2030536 Eh/α   predicted    -0.9204606E-02 (-386.30%)
   displ. norm   :     0.3572050 α      lambda       -0.2158410E-01
   maximum displ.:     0.1320954 α      in ANC's #57, #86, #69, ...

........................................................................
.............................. CYCLE   17 ..............................
........................................................................
   1   -232.7891660 -0.232789E+03  0.103E-01    0.01       0.0  T
   2   -232.5883485  0.200817E+00  0.817E-01    0.21       1.0  T
   3   -232.7877902 -0.199442E+00  0.116E-01    0.01       1.0  T
   4   -232.7334201  0.543701E-01  0.427E-01    0.06       1.0  T
   5   -232.7895024 -0.560823E-01  0.892E-02    0.01       1.0  T
   6   -232.7832820  0.622038E-02  0.169E-01    0.01       1.0  T
   7   -232.7904664 -0.718445E-02  0.664E-02    0.01       1.0  T
   8   -232.7913234 -0.856938E-03  0.403E-02    0.00       1.0  T
   9   -232.7918022 -0.478872E-03  0.710E-03    0.00       1.3  T
  10   -232.7918168 -0.145824E-04  0.214E-03    0.00       4.2  T
  11   -232.7918182 -0.134710E-05  0.392E-04    0.00      23.0  T
  12   -232.7918182  0.109499E-07  0.430E-04    0.00      21.0  T
  13   -232.7918182 -0.565129E-08  0.407E-04    0.00      22.2  T
  14   -232.7918182 -0.500603E-07  0.506E-05    0.00     178.2  T
  15   -232.7918182 -0.708695E-09  0.147E-05    0.00     614.8  T
     SCC iter.                  ...        0 min,  0.746 sec
     gradient                   ...        0 min,  0.243 sec
 * total energy  :  -229.2334975 Eh     change       -0.1113851E-01 Eh
   gradient norm :     0.1438139 Eh/α   predicted    -0.1216908E-01 (   9.25%)
   displ. norm   :     0.3796433 α      lambda       -0.5558205E-02
   maximum displ.:     0.1811464 α      in ANC's #4, #11, #20, ...

........................................................................
.............................. CYCLE   18 ..............................
........................................................................
   1   -232.7974200 -0.232797E+03  0.169E-01    0.00       0.0  T
   2   -232.5895473  0.207873E+00  0.852E-01    0.62       1.0  T
   3   -232.6623296 -0.727823E-01  0.678E-01    0.02       1.0  T
   4   -232.7705878 -0.108258E+00  0.345E-01    0.04       1.0  T
   5   -232.7999949 -0.294072E-01  0.138E-01    0.00       1.0  T
   6   -232.8051736 -0.517861E-02  0.322E-02    0.00       1.0  T
   7   -232.8045208  0.652701E-03  0.572E-02    0.00       1.0  T
   8   -232.8054535 -0.932670E-03  0.903E-03    0.00       1.0  T
   9   -232.8054657 -0.121555E-04  0.654E-03    0.00       1.4  T
  10   -232.8054776 -0.119386E-04  0.131E-03    0.00       6.9  T
  11   -232.8054780 -0.374277E-06  0.698E-04    0.00      12.9  T
  12   -232.8054781 -0.111245E-06  0.320E-04    0.00      28.2  T
  13   -232.8054781 -0.147444E-07  0.247E-04    0.00      36.5  T
  14   -232.8054781 -0.636356E-08  0.199E-04    0.00      45.4  T
  15   -232.8054781 -0.108630E-07  0.623E-05    0.00     144.8  T
     SCC iter.                  ...        0 min,  0.751 sec
     gradient                   ...        0 min,  0.242 sec
 * total energy  :  -229.2344582 Eh     change       -0.9607590E-03 Eh
   gradient norm :     0.1337548 Eh/α   predicted    -0.3179650E-02 ( 230.95%)
   displ. norm   :     0.4679335 α      lambda       -0.8158868E-02
   maximum displ.:     0.2450780 α      in ANC's #4, #32, #20, ...

........................................................................
.............................. CYCLE   19 ..............................
........................................................................
   1   -232.8162287 -0.232816E+03  0.106E-01    0.01       0.0  T
   2   -232.6085157  0.207713E+00  0.835E-01    0.25       1.0  T
   3   -232.8151594 -0.206644E+00  0.120E-01    0.01       1.0  T
   4   -232.8010377  0.141217E-01  0.241E-01    0.03       1.0  T
   5   -232.8174514 -0.164136E-01  0.835E-02    0.00       1.0  T
   6   -232.8192421 -0.179075E-02  0.256E-02    0.00       1.0  T
   7   -232.8193901 -0.147952E-03  0.144E-02    0.00       1.0  T
   8   -232.8194421 -0.520125E-04  0.486E-03    0.00       1.9  T
   9   -232.8194463 -0.427217E-05  0.317E-03    0.00       2.8  T
  10   -232.8194494 -0.311051E-05  0.166E-04    0.00      54.2  T
  11   -232.8194494  0.546441E-07  0.467E-04    0.00      19.3  T
  12   -232.8194494 -0.355081E-07  0.305E-04    0.00      29.6  T
  13   -232.8194495 -0.263544E-07  0.516E-05    0.00     174.9  T
  14   -232.8194495 -0.261082E-09  0.415E-05    0.00     217.5  T
     SCC iter.                  ...        0 min,  0.700 sec
     gradient                   ...        0 min,  0.243 sec
 * total energy  :  -229.2364874 Eh     change       -0.2029182E-02 Eh
   gradient norm :     0.1412323 Eh/α   predicted    -0.4972700E-02 ( 145.06%)
   displ. norm   :     0.3882514 α      lambda       -0.1021043E-01
   maximum displ.:     0.1193512 α      in ANC's #4, #19, #11, ...

........................................................................
.............................. CYCLE   20 ..............................
........................................................................
   1   -232.8247491 -0.232825E+03  0.519E-02    0.00       0.0  T
   2   -232.6733318  0.151417E+00  0.702E-01    0.13       1.0  T
   3   -232.8253289 -0.151997E+00  0.298E-02    0.00       1.0  T
   4   -232.8213458  0.398308E-02  0.113E-01    0.00       1.0  T
   5   -232.8228507 -0.150490E-02  0.928E-02    0.01       1.0  T
   6   -232.8250146 -0.216386E-02  0.361E-02    0.00       1.0  T
   7   -232.8252494 -0.234814E-03  0.229E-02    0.00       1.0  T
   8   -232.8254018 -0.152394E-03  0.521E-03    0.00       1.7  T
   9   -232.8254037 -0.193587E-05  0.462E-03    0.00       2.0  T
  10   -232.8254104 -0.668520E-05  0.507E-04    0.00      17.8  T
  11   -232.8254099  0.511134E-06  0.139E-03    0.00       6.5  T
  12   -232.8254104 -0.515978E-06  0.477E-04    0.00      18.9  T
  13   -232.8254105 -0.337045E-07  0.316E-04    0.00      28.5  T
  14   -232.8254105 -0.305507E-07  0.754E-05    0.00     119.6  T
  15   -232.8254105 -0.665239E-09  0.616E-05    0.00     146.4  T
     SCC iter.                  ...        0 min,  0.746 sec
     gradient                   ...        0 min,  0.258 sec
 * total energy  :  -229.2388029 Eh     change       -0.2315437E-02 Eh
   gradient norm :     0.1730566 Eh/α   predicted    -0.5874778E-02 ( 153.72%)
   displ. norm   :     0.3838802 α      lambda       -0.8039395E-02
   maximum displ.:     0.1582394 α      in ANC's #4, #32, #11, ...
 * RMSD in coord.:     0.7659895 α      energy gain  -0.2857745E+01 Eh

generating ANC from model Hessian ...
Using Lindh-Hessian (1995)
 Shifting diagonal of input Hessian by    1.0033887379216873E-002
 Lowest  eigenvalues of input Hessian
    0.010000    0.010006    0.010015    0.010018    0.010023    0.010024
    0.000000    0.000000    0.000000    0.000000    0.000000    0.000000
    0.010039    0.010044    0.010048    0.010054    0.010214    0.010246
 Highest eigenvalues
    2.232863    2.272608    2.566825    2.590468    2.795390    2.809950


........................................................................
.............................. CYCLE   21 ..............................
........................................................................
   1   -232.8267974 -0.232827E+03  0.716E-02    0.00       0.0  T
   2   -232.6603010  0.166496E+00  0.747E-01    0.27       1.0  T
   3   -232.7978249 -0.137524E+00  0.311E-01    0.00       1.0  T
   4   -232.8250792 -0.272544E-01  0.105E-01    0.01       1.0  T
   5   -232.8275649 -0.248568E-02  0.516E-02    0.00       1.0  T
   6   -232.8283282 -0.763256E-03  0.366E-03    0.00       2.5  T
   7   -232.8282981  0.300851E-04  0.106E-02    0.00       1.0  T
   8   -232.8283310 -0.328669E-04  0.594E-04    0.00      15.2  T
   9   -232.8283310 -0.666395E-07  0.423E-04    0.00      21.3  T
  10   -232.8283311 -0.398489E-07  0.253E-04    0.00      35.7  T
  11   -232.8283311 -0.376266E-08  0.229E-04    0.00      39.4  T
  12   -232.8283311 -0.136819E-07  0.688E-05    0.00     131.0  T
  13   -232.8283311 -0.143430E-08  0.801E-06    0.00    1125.1  T
     SCC iter.                  ...        0 min,  0.687 sec
     gradient                   ...        0 min,  0.263 sec
 * total energy  :  -229.2417966 Eh     change       -0.2993697E-02 Eh
   gradient norm :     0.1488482 Eh/α   predicted     0.0000000E+00 (-100.00%)
   displ. norm   :     0.4620658 α      lambda       -0.3283429E-01
   maximum displ.:     0.2445330 α      in ANC's #67, #16, #17, ...

........................................................................
.............................. CYCLE   22 ..............................
........................................................................
   1   -232.8241286 -0.232824E+03  0.330E-01    0.01       0.0  T
   2   -232.4831141  0.341014E+00  0.104E+00    0.49       1.0  T
   3   -232.7337404 -0.250626E+00  0.667E-01    0.13       1.0  T
   4   -232.7193666  0.143738E-01  0.659E-01    0.03       1.0  T
   5   -232.8238400 -0.104473E+00  0.329E-01    0.03       1.0  T
   6   -232.7741217  0.497183E-01  0.528E-01    0.03       1.0  T
   7   -232.8378043 -0.636826E-01  0.246E-01    0.01       1.0  T
   8   -232.8436463 -0.584195E-02  0.201E-01    0.02       1.0  T
   9   -232.8542481 -0.106018E-01  0.644E-02    0.00       1.0  T
  10   -232.8552675 -0.101941E-02  0.282E-02    0.00       1.0  T
  11   -232.8554935 -0.226012E-03  0.423E-03    0.00       2.1  T
  12   -232.8554940 -0.557899E-06  0.415E-03    0.00       2.2  T
  13   -232.8554973 -0.330012E-05  0.247E-03    0.00       3.7  T
  14   -232.8554989 -0.157425E-05  0.834E-04    0.00      10.8  T
  15   -232.8554991 -0.164115E-06  0.329E-04    0.00      27.4  T
  16   -232.8554991 -0.306264E-07  0.108E-04    0.00      83.7  T
  17   -232.8554991 -0.562579E-09  0.970E-05    0.00      92.9  T
     SCC iter.                  ...        0 min,  0.871 sec
     gradient                   ...        0 min,  0.266 sec
 * total energy  :  -229.2679874 Eh     change       -0.2619079E-01 Eh
   gradient norm :     0.0731027 Eh/α   predicted    -0.1998584E-01 ( -23.69%)
   displ. norm   :     0.6506354 α      lambda       -0.2697954E-01
   maximum displ.:     0.3116551 α      in ANC's #67, #16, #77, ...

........................................................................
.............................. CYCLE   23 ..............................
........................................................................
   1   -232.8297359 -0.232830E+03  0.434E-01    0.01       0.0  T
   2   -232.0625193  0.767217E+00  0.149E+00    0.25       1.0  T
   3   -232.7048401 -0.642321E+00  0.753E-01    0.08       1.0  T
   4   -232.7836511 -0.788110E-01  0.597E-01    0.06       1.0  T
   5   -232.8412592 -0.576081E-01  0.373E-01    0.03       1.0  T
   6   -232.8218766  0.193825E-01  0.454E-01    0.04       1.0  T
   7   -232.8323447 -0.104681E-01  0.411E-01    0.03       1.0  T
   8   -232.8821978 -0.498530E-01  0.346E-02    0.00       1.0  T
   9   -232.8805016  0.169613E-02  0.838E-02    0.00       1.0  T
  10   -232.8825472 -0.204554E-02  0.972E-03    0.00       1.0  T
  11   -232.8825733 -0.261258E-04  0.176E-03    0.00       5.1  T
  12   -232.8825656  0.771373E-05  0.532E-03    0.00       1.7  T
  13   -232.8825737 -0.809315E-05  0.132E-03    0.00       6.8  T
  14   -232.8825742 -0.490466E-06  0.330E-04    0.00      27.3  T
  15   -232.8825741  0.885002E-07  0.651E-04    0.00      13.8  T
  16   -232.8825742 -0.115059E-06  0.164E-04    0.00      54.9  T
  17   -232.8825742 -0.692518E-08  0.647E-05    0.00     139.4  T
     SCC iter.                  ...        0 min,  0.899 sec
     gradient                   ...        0 min,  0.267 sec
 * total energy  :  -229.2800149 Eh     change       -0.1202754E-01 Eh
   gradient norm :     0.0597267 Eh/α   predicted    -0.1920038E-01 (  59.64%)
   displ. norm   :     0.5664772 α      lambda       -0.1229822E-01
   maximum displ.:     0.3758266 α      in ANC's #17, #67, #16, ...

........................................................................
.............................. CYCLE   24 ..............................
........................................................................
   1   -232.9121199 -0.232912E+03  0.909E-02    0.00       0.0  T
   2   -232.7336826  0.178437E+00  0.767E-01    0.34       1.0  T
   3   -232.8829127 -0.149230E+00  0.310E-01    0.02       1.0  T
   4   -232.9138961 -0.309834E-01  0.396E-02    0.00       1.0  T
   5   -232.9142841 -0.388017E-03  0.199E-02    0.00       1.0  T
   6   -232.9143809 -0.967933E-04  0.562E-03    0.00       1.6  T
   7   -232.9143801  0.782583E-06  0.527E-03    0.00       1.7  T
   8   -232.9143872 -0.700984E-05  0.220E-03    0.00       4.1  T
   9   -232.9143885 -0.131899E-05  0.713E-04    0.00      12.7  T
  10   -232.9143883  0.187282E-06  0.106E-03    0.00       8.5  T
  11   -232.9143886 -0.314240E-06  0.149E-04    0.00      60.6  T
  12   -232.9143886 -0.724282E-08  0.184E-05    0.00     490.9  T
     SCC iter.                  ...        0 min,  0.644 sec
     gradient                   ...        0 min,  0.270 sec
 * total energy  :  -229.2843317 Eh     change       -0.4316834E-02 Eh
   gradient norm :     0.0418192 Eh/α   predicted    -0.8122455E-02 (  88.16%)
   displ. norm   :     0.5422636 α      lambda       -0.1254866E-01
   maximum displ.:     0.4386597 α      in ANC's #16, #67, #17, ...

........................................................................
.............................. CYCLE   25 ..............................
........................................................................
   1   -232.9560012 -0.232956E+03  0.634E-02    0.00       0.0  T
   2   -232.8033504  0.152651E+00  0.708E-01    0.08       1.0  T
   3   -232.9428830 -0.139533E+00  0.212E-01    0.03       1.0  T
   4   -232.9480261 -0.514312E-02  0.167E-01    0.01       1.0  T
   5   -232.9556906 -0.766449E-02  0.690E-02    0.00       1.0  T
   6   -232.9541802  0.151035E-02  0.979E-02    0.01       1.0  T
   7   -232.9564876 -0.230736E-02  0.430E-02    0.00       1.0  T
   8   -232.9569077 -0.420112E-03  0.218E-02    0.00       1.0  T
   9   -232.9570156 -0.107893E-03  0.111E-02    0.00       1.0  T
  10   -232.9570422 -0.265915E-04  0.607E-03    0.00       1.5  T
  11   -232.9570523 -0.100606E-04  0.183E-03    0.00       4.9  T
  12   -232.9570532 -0.946650E-06  0.398E-04    0.00      22.7  T
  13   -232.9570532 -0.456990E-08  0.375E-04    0.00      24.0  T
  14   -232.9570532 -0.376546E-07  0.109E-04    0.00      82.5  T
  15   -232.9570532 -0.296055E-08  0.422E-05    0.00     213.4  T
     SCC iter.                  ...        0 min,  0.760 sec
     gradient                   ...        0 min,  0.253 sec
 * total energy  :  -229.2886879 Eh     change       -0.4356174E-02 Eh
   gradient norm :     0.0558515 Eh/α   predicted    -0.8119327E-02 (  86.39%)
   displ. norm   :     0.5113392 α      lambda       -0.7955332E-02
   maximum displ.:     0.3449988 α      in ANC's #16, #17, #36, ...

........................................................................
.............................. CYCLE   26 ..............................
........................................................................
   1   -232.9657814 -0.232966E+03  0.109E-01    0.00       0.0  T
   2   -232.7668456  0.198936E+00  0.810E-01    0.39       1.0  T
   3   -232.8855074 -0.118662E+00  0.508E-01    0.02       1.0  T
   4   -232.9669571 -0.814497E-01  0.851E-02    0.00       1.0  T
   5   -232.9688677 -0.191054E-02  0.283E-02    0.00       1.0  T
   6   -232.9688619  0.579713E-05  0.277E-02    0.00       1.0  T
   7   -232.9690199 -0.158075E-03  0.151E-02    0.00       1.0  T
   8   -232.9690778 -0.579014E-04  0.551E-03    0.00       1.6  T
   9   -232.9690868 -0.893961E-05  0.854E-04    0.00      10.6  T
  10   -232.9690870 -0.192251E-06  0.342E-04    0.00      26.3  T
  11   -232.9690869  0.201129E-07  0.424E-04    0.00      21.3  T
  12   -232.9690870 -0.423709E-07  0.175E-04    0.00      51.6  T
  13   -232.9690870 -0.811215E-08  0.403E-05    0.00     223.5  T
     SCC iter.                  ...        0 min,  0.681 sec
     gradient                   ...        0 min,  0.274 sec
 * total energy  :  -229.2938984 Eh     change       -0.5210481E-02 Eh
   gradient norm :     0.0247185 Eh/α   predicted    -0.5017703E-02 (  -3.70%)
   displ. norm   :     0.7140507 α      lambda       -0.9423822E-02
   maximum displ.:     0.5394782 α      in ANC's #16, #17, #21, ...

........................................................................
.............................. CYCLE   27 ..............................
........................................................................
   1   -232.9648413 -0.232965E+03  0.174E-01    0.00       0.0  T
   2   -232.7332720  0.231569E+00  0.876E-01    0.61       1.0  T
   3   -232.8282824 -0.950104E-01  0.672E-01    0.01       1.0  T
   4   -232.9579038 -0.129621E+00  0.229E-01    0.01       1.0  T
   5   -232.9703115 -0.124078E-01  0.984E-02    0.01       1.0  T
   6   -232.9716223 -0.131073E-02  0.708E-02    0.00       1.0  T
   7   -232.9704523  0.116994E-02  0.938E-02    0.01       1.0  T
   8   -232.9730695 -0.261717E-02  0.125E-02    0.00       1.0  T
   9   -232.9730919 -0.224213E-04  0.991E-03    0.00       1.0  T
  10   -232.9731142 -0.223162E-04  0.494E-03    0.00       1.8  T
  11   -232.9731213 -0.705026E-05  0.169E-03    0.00       5.3  T
  12   -232.9731219 -0.595312E-06  0.866E-04    0.00      10.4  T
  13   -232.9731221 -0.233621E-06  0.193E-04    0.00      46.7  T
  14   -232.9731221  0.544355E-08  0.223E-04    0.00      40.5  T
  15   -232.9731221 -0.127573E-07  0.104E-04    0.00      86.9  T
     SCC iter.                  ...        0 min,  0.800 sec
     gradient                   ...        0 min,  0.269 sec
 * total energy  :  -229.2946888 Eh     change       -0.7904286E-03 Eh
   gradient norm :     0.0764950 Eh/α   predicted    -0.7114348E-02 ( 800.06%)
   displ. norm   :     0.4106120 α      lambda       -0.1046374E-01
   maximum displ.:     0.2737544 α      in ANC's #16, #17, #36, ...

........................................................................
.............................. CYCLE   28 ..............................
........................................................................
   1   -232.9942099 -0.232994E+03  0.858E-02    0.00       0.0  T
   2   -232.8382235  0.155986E+00  0.714E-01    0.06       1.0  T
   3   -232.9461918 -0.107968E+00  0.391E-01    0.05       1.0  T
   4   -232.9945949 -0.484030E-01  0.724E-02    0.01       1.0  T
   5   -232.9955713 -0.976417E-03  0.475E-02    0.00       1.0  T
   6   -232.9940600  0.151128E-02  0.858E-02    0.01       1.0  T
   7   -232.9955216 -0.146162E-02  0.487E-02    0.00       1.0  T
   8   -232.9960450 -0.523365E-03  0.253E-02    0.00       1.0  T
   9   -232.9962105 -0.165499E-03  0.937E-03    0.00       1.0  T
  10   -232.9962352 -0.246665E-04  0.228E-03    0.00       4.0  T
  11   -232.9962367 -0.156262E-05  0.647E-05    0.00     139.5  T
  12   -232.9962367  0.186496E-07  0.263E-04    0.00      34.3  T
  13   -232.9962367 -0.162534E-07  0.114E-04    0.00      79.3  T
  14   -232.9962367 -0.359168E-08  0.246E-05    0.00     366.1  T
     SCC iter.                  ...        0 min,  0.754 sec
     gradient                   ...        0 min,  0.252 sec
 * total energy  :  -229.3013901 Eh     change       -0.6701252E-02 Eh
   gradient norm :     0.0156643 Eh/α   predicted    -0.6113994E-02 (  -8.76%)
   displ. norm   :     0.7544154 α      lambda       -0.5156514E-02
   maximum displ.:     0.5999668 α      in ANC's #16, #17, #21, ...

........................................................................
.............................. CYCLE   29 ..............................
........................................................................
   1   -233.0160098 -0.233016E+03  0.596E-02    0.00       0.0  T
   2   -232.8797682  0.136242E+00  0.669E-01    0.03       1.0  T
   3   -233.0108318 -0.131064E+00  0.137E-01    0.02       1.0  T
   4   -233.0164851 -0.565325E-02  0.407E-02    0.01       1.0  T
   5   -233.0169885 -0.503397E-03  0.104E-02    0.00       1.0  T
   6   -233.0168592  0.129317E-03  0.236E-02    0.00       1.0  T
   7   -233.0170003 -0.141143E-03  0.872E-03    0.00       1.0  T
   8   -233.0169905  0.984266E-05  0.105E-02    0.00       1.0  T
   9   -233.0170185 -0.280083E-04  0.398E-03    0.00       2.3  T
  10   -233.0170226 -0.418302E-05  0.127E-03    0.00       7.1  T
  11   -233.0170231 -0.474915E-06  0.171E-04    0.00      52.7  T
  12   -233.0170230  0.105737E-06  0.624E-04    0.00      14.5  T
  13   -233.0170231 -0.102965E-06  0.193E-04    0.00      46.6  T
     SCC iter.                  ...        0 min,  0.675 sec
     gradient                   ...        0 min,  0.275 sec
 * total energy  :  -229.3059925 Eh     change       -0.4602471E-02 Eh
   gradient norm :     0.0129652 Eh/α   predicted    -0.4045670E-02 ( -12.10%)
   displ. norm   :     0.9100818 α      lambda       -0.5894877E-02
   maximum displ.:     0.7371922 α      in ANC's #16, #17, #15, ...

........................................................................
.............................. CYCLE   30 ..............................
........................................................................
   1   -233.0290732 -0.233029E+03  0.131E-01    0.01       0.0  T
   2   -232.8661384  0.162935E+00  0.735E-01    0.04       1.0  T
   3   -232.9575465 -0.914081E-01  0.487E-01    0.08       1.0  T
   4   -233.0256303 -0.680838E-01  0.168E-01    0.01       1.0  T
   5   -233.0337489 -0.811864E-02  0.250E-02    0.00       1.0  T
   6   -233.0338976 -0.148707E-03  0.948E-03    0.00       1.0  T
   7   -233.0338999 -0.223173E-05  0.868E-03    0.00       1.0  T
   8   -233.0339197 -0.198588E-04  0.303E-03    0.00       3.0  T
   9   -233.0339224 -0.271126E-05  0.357E-04    0.00      25.3  T
  10   -233.0339221  0.352149E-06  0.117E-03    0.00       7.7  T
  11   -233.0339225 -0.382995E-06  0.167E-04    0.00      53.8  T
  12   -233.0339225 -0.581198E-08  0.722E-05    0.00     124.9  T
     SCC iter.                  ...        0 min,  0.642 sec
     gradient                   ...        0 min,  0.271 sec
 * total energy  :  -229.3107077 Eh     change       -0.4715159E-02 Eh
   gradient norm :     0.0180654 Eh/α   predicted    -0.5388674E-02 (  14.28%)
   displ. norm   :     0.8484241 α      lambda       -0.5701991E-02
   maximum displ.:     0.6668384 α      in ANC's #16, #17, #14, ...

........................................................................
.............................. CYCLE   31 ..............................
........................................................................
   1   -233.0410943 -0.233041E+03  0.154E-01    0.02       0.0  T
   2   -232.8676364  0.173458E+00  0.753E-01    0.00       1.0  T
   3   -233.0322313 -0.164595E+00  0.234E-01    0.01       1.0  T
   4   -233.0100426  0.221887E-01  0.342E-01    0.05       1.0  T
   5   -233.0477362 -0.376936E-01  0.150E-02    0.00       1.0  T
   6   -233.0475794  0.156793E-03  0.281E-02    0.00       1.0  T
   7   -233.0478012 -0.221852E-03  0.401E-03    0.00       2.2  T
   8   -233.0478050 -0.376400E-05  0.183E-03    0.00       4.9  T
   9   -233.0478057 -0.713705E-06  0.911E-04    0.00       9.9  T
  10   -233.0478058 -0.839906E-07  0.798E-04    0.00      11.3  T
  11   -233.0478059 -0.138109E-06  0.372E-04    0.00      24.2  T
  12   -233.0478060 -0.382743E-07  0.454E-05    0.00     198.6  T
  13   -233.0478060 -0.585487E-09  0.120E-05    0.00     754.0  T
     SCC iter.                  ...        0 min,  0.687 sec
     gradient                   ...        0 min,  0.264 sec
 * total energy  :  -229.3147125 Eh     change       -0.4004817E-02 Eh
   gradient norm :     0.0176222 Eh/α   predicted    -0.4903227E-02 (  22.43%)
   displ. norm   :     0.7869822 α      lambda       -0.5507986E-02
   maximum displ.:     0.6243680 α      in ANC's #16, #17, #21, ...

........................................................................
.............................. CYCLE   32 ..............................
........................................................................
   1   -233.0604008 -0.233060E+03  0.116E-01    0.01       0.0  T
   2   -232.8961372  0.164264E+00  0.738E-01    0.04       1.0  T
   3   -232.9945862 -0.984490E-01  0.465E-01    0.07       1.0  T
   4   -233.0594854 -0.648992E-01  0.128E-01    0.01       1.0  T
   5   -233.0641554 -0.467003E-02  0.176E-02    0.00       1.0  T
   6   -233.0641083  0.470622E-04  0.212E-02    0.00       1.0  T
   7   -233.0641765 -0.682042E-04  0.143E-02    0.00       1.0  T
   8   -233.0642367 -0.601556E-04  0.130E-03    0.00       6.9  T
   9   -233.0642371 -0.424978E-06  0.436E-04    0.00      20.7  T
  10   -233.0642369  0.174049E-06  0.917E-04    0.00       9.8  T
  11   -233.0642371 -0.200919E-06  0.361E-04    0.00      25.0  T
  12   -233.0642372 -0.360374E-07  0.357E-05    0.00     252.5  T
  13   -233.0642372 -0.413081E-09  0.720E-06    0.00    1253.2  T
     SCC iter.                  ...        0 min,  0.691 sec
     gradient                   ...        0 min,  0.272 sec
 * total energy  :  -229.3184878 Eh     change       -0.3775283E-02 Eh
   gradient norm :     0.0110768 Eh/α   predicted    -0.4459669E-02 (  18.13%)
   displ. norm   :     0.8467886 α      lambda       -0.4105192E-02
   maximum displ.:     0.6764075 α      in ANC's #16, #17, #15, ...

........................................................................
.............................. CYCLE   33 ..............................
........................................................................
   1   -233.0860342 -0.233086E+03  0.495E-02    0.00       0.0  T
   2   -232.9500347  0.135999E+00  0.673E-01    0.03       1.0  T
   3   -233.0832638 -0.133229E+00  0.104E-01    0.01       1.0  T
   4   -233.0861005 -0.283674E-02  0.451E-02    0.01       1.0  T
   5   -233.0867360 -0.635466E-03  0.786E-03    0.00       1.1  T
   6   -233.0867182  0.177309E-04  0.108E-02    0.00       1.0  T
   7   -233.0867507 -0.324438E-04  0.236E-03    0.00       3.8  T
   8   -233.0867345  0.161436E-04  0.781E-03    0.00       1.2  T
   9   -233.0867464 -0.119177E-04  0.447E-03    0.00       2.0  T
  10   -233.0867518 -0.537874E-05  0.129E-03    0.00       7.0  T
  11   -233.0867523 -0.487196E-06  0.723E-05    0.00     124.7  T
  12   -233.0867523  0.227165E-07  0.289E-04    0.00      31.2  T
  13   -233.0867523 -0.176642E-07  0.150E-04    0.00      60.2  T
     SCC iter.                  ...        0 min,  0.698 sec
     gradient                   ...        0 min,  0.270 sec
 * total energy  :  -229.3219031 Eh     change       -0.3415328E-02 Eh
   gradient norm :     0.0071237 Eh/α   predicted    -0.3524443E-02 (   3.19%)
   displ. norm   :     0.8818480 α      lambda       -0.3371201E-02
   maximum displ.:     0.7246820 α      in ANC's #16, #17, #24, ...

........................................................................
.............................. CYCLE   34 ..............................
........................................................................
   1   -233.1041697 -0.233104E+03  0.947E-02    0.01       0.0  T
   2   -232.9516621  0.152508E+00  0.714E-01    0.02       1.0  T
   3   -233.0951211 -0.143459E+00  0.192E-01    0.02       1.0  T
   4   -233.1037060 -0.858484E-02  0.101E-01    0.01       1.0  T
   5   -233.1067258 -0.301982E-02  0.332E-03    0.00       2.7  T
   6   -233.1064588  0.267033E-03  0.305E-02    0.00       1.0  T
   7   -233.1067273 -0.268508E-03  0.230E-03    0.00       3.9  T
   8   -233.1067054  0.218392E-04  0.893E-03    0.00       1.0  T
   9   -233.1067285 -0.230670E-04  0.570E-04    0.00      15.8  T
  10   -233.1067286 -0.935485E-07  0.174E-04    0.00      51.9  T
  11   -233.1067285  0.605611E-07  0.498E-04    0.00      18.1  T
  12   -233.1067286 -0.607455E-07  0.184E-04    0.00      48.9  T
     SCC iter.                  ...        0 min,  0.640 sec
     gradient                   ...        0 min,  0.269 sec
 * total energy  :  -229.3246014 Eh     change       -0.2698315E-02 Eh
   gradient norm :     0.0090389 Eh/α   predicted    -0.2996419E-02 (  11.05%)
   displ. norm   :     0.8465544 α      lambda       -0.2747745E-02
   maximum displ.:     0.6757025 α      in ANC's #16, #17, #21, ...

........................................................................
.............................. CYCLE   35 ..............................
........................................................................
   1   -233.1222450 -0.233122E+03  0.722E-02    0.01       0.0  T
   2   -232.9747011  0.147544E+00  0.702E-01    0.02       1.0  T
   3   -233.1160972 -0.141396E+00  0.154E-01    0.02       1.0  T
   4   -233.1229977 -0.690048E-02  0.493E-02    0.01       1.0  T
   5   -233.1237337 -0.735950E-03  0.520E-03    0.00       1.7  T
   6   -233.1236149  0.118739E-03  0.207E-02    0.00       1.0  T
   7   -233.1237382 -0.123244E-03  0.229E-03    0.00       3.9  T
   8   -233.1237041  0.340360E-04  0.110E-02    0.00       1.0  T
   9   -233.1237392 -0.350958E-04  0.104E-03    0.00       8.7  T
  10   -233.1237395 -0.313341E-06  0.111E-04    0.00      81.0  T
  11   -233.1237394  0.102217E-06  0.611E-04    0.00      14.8  T
  12   -233.1237395 -0.837251E-07  0.282E-04    0.00      31.9  T
  13   -233.1237395 -0.216370E-07  0.621E-05    0.00     145.2  T
     SCC iter.                  ...        0 min,  0.666 sec
     gradient                   ...        0 min,  0.248 sec
 * total energy  :  -229.3268484 Eh     change       -0.2246961E-02 Eh
   gradient norm :     0.0050280 Eh/α   predicted    -0.2358470E-02 (   4.96%)
   displ. norm   :     0.8328521 α      lambda       -0.1898205E-02
   maximum displ.:     0.6828089 α      in ANC's #16, #17, #15, ...

........................................................................
.............................. CYCLE   36 ..............................
........................................................................
   1   -233.1419368 -0.233142E+03  0.408E-02    0.00       0.0  T
   2   -233.0160503  0.125886E+00  0.650E-01    0.01       1.0  T
   3   -233.1419887 -0.125938E+00  0.364E-02    0.01       1.0  T
   4   -233.1392808  0.270785E-02  0.980E-02    0.01       1.0  T
   5   -233.1424150 -0.313421E-02  0.304E-03    0.00       3.0  T
   6   -233.1424055  0.951445E-05  0.646E-03    0.00       1.4  T
   7   -233.1424162 -0.106751E-04  0.202E-03    0.00       4.5  T
   8   -233.1424151  0.111942E-05  0.289E-03    0.00       3.1  T
   9   -233.1424164 -0.133863E-05  0.188E-03    0.00       4.8  T
  10   -233.1424174 -0.102506E-05  0.105E-04    0.00      86.1  T
  11   -233.1424174  0.304956E-07  0.341E-04    0.00      26.4  T
  12   -233.1424174 -0.179798E-07  0.237E-04    0.00      38.0  T
  13   -233.1424174 -0.106878E-07  0.138E-04    0.00      65.4  T
  14   -233.1424174 -0.521501E-08  0.298E-05    0.00     302.1  T
     SCC iter.                  ...        0 min,  0.697 sec
     gradient                   ...        0 min,  0.250 sec
 * total energy  :  -229.3284314 Eh     change       -0.1582983E-02 Eh
   gradient norm :     0.0040627 Eh/α   predicted    -0.1607442E-02 (   1.55%)
   displ. norm   :     0.7934986 α      lambda       -0.1332768E-02
   maximum displ.:     0.6404383 α      in ANC's #16, #17, #15, ...

........................................................................
.............................. CYCLE   37 ..............................
........................................................................
[...]
 ---------------------------------------------------------------------------
     1  29 Cu   2.194 --    25 N    0.507     7 N    0.507    12 N    0.504
                            19 N    0.504
     2   6 C    3.934 --    24 C    1.362     3 C    1.362    26 H    0.972
     3   6 C    3.917 --     2 C    1.362     7 N    1.234     4 C    1.166
     4   6 C    3.955 --     5 C    1.662     3 C    1.166    27 H    0.976
     5   6 C    3.957 --     4 C    1.662     6 C    1.167    28 H    0.976
     6   6 C    3.914 --     8 C    1.359     7 N    1.234     5 C    1.167
     7   7 N    3.247 --     3 C    1.234     6 C    1.234     1 Cu   0.507
     8   6 C    3.940 --     9 C    1.368     6 C    1.359    29 H    0.971
     9   6 C    3.909 --     8 C    1.368    12 N    1.216    10 C    1.173
    10   6 C    3.953 --    11 C    1.649     9 C    1.173    30 H    0.976
    11   6 C    3.956 --    10 C    1.649    13 C    1.181    31 H    0.974
    12   7 N    3.252 --    13 C    1.262     9 C    1.216     1 Cu   0.504
    13   6 C    3.896 --    12 N    1.262    14 C    1.259    11 C    1.181
    14   6 C    3.944 --    15 C    1.259    13 C    1.259    73 C    1.190
    15   6 C    3.896 --    19 N    1.262    14 C    1.259    16 C    1.181
    16   6 C    3.956 --    17 C    1.649    15 C    1.181    32 H    0.974
    17   6 C    3.953 --    16 C    1.649    18 C    1.173    33 H    0.976
    18   6 C    3.909 --    20 C    1.368    19 N    1.216    17 C    1.173
    19   7 N    3.251 --    15 C    1.262    18 C    1.216     1 Cu   0.504
    20   6 C    3.940 --    18 C    1.368    21 C    1.360    34 H    0.971
    21   6 C    3.914 --    20 C    1.360    25 N    1.234    22 C    1.167
    22   6 C    3.957 --    23 C    1.662    21 C    1.167    35 H    0.976
    23   6 C    3.955 --    22 C    1.662    24 C    1.166    36 H    0.976
    24   6 C    3.917 --     2 C    1.362    25 N    1.234    23 C    1.166
    25   7 N    3.247 --    24 C    1.234    21 C    1.234     1 Cu   0.507
    26   1 H    1.001 --     2 C    0.972
    27   1 H    0.998 --     4 C    0.976
    28   1 H    0.998 --     5 C    0.976
    29   1 H    1.001 --     8 C    0.971
    30   1 H    0.998 --    10 C    0.976
    31   1 H    1.002 --    11 C    0.974
    32   1 H    1.002 --    16 C    0.974
    33   1 H    0.998 --    17 C    0.976
    34   1 H    1.001 --    20 C    0.971
    35   1 H    0.998 --    22 C    0.976
    36   1 H    0.998 --    23 C    0.976
    37  29 Cu   2.195 --    61 N    0.507    43 N    0.507    48 N    0.504
                            55 N    0.504
    38   6 C    3.935 --    60 C    1.362    39 C    1.362    62 H    0.972
    39   6 C    3.917 --    38 C    1.362    43 N    1.234    40 C    1.166
    40   6 C    3.955 --    41 C    1.662    39 C    1.166    63 H    0.976
    41   6 C    3.957 --    40 C    1.662    42 C    1.167    64 H    0.976
    42   6 C    3.914 --    44 C    1.360    43 N    1.234    41 C    1.167
    43   7 N    3.248 --    39 C    1.234    42 C    1.234    37 Cu   0.507
    44   6 C    3.940 --    45 C    1.368    42 C    1.360    65 H    0.971
    45   6 C    3.909 --    44 C    1.368    48 N    1.216    46 C    1.173
    46   6 C    3.954 --    47 C    1.650    45 C    1.173    66 H    0.976
    47   6 C    3.956 --    46 C    1.650    49 C    1.181    67 H    0.974
    48   7 N    3.252 --    49 C    1.261    45 C    1.216    37 Cu   0.504
    49   6 C    3.897 --    48 N    1.261    50 C    1.260    47 C    1.181
    50   6 C    3.945 --    51 C    1.260    49 C    1.260    88 C    1.188
    51   6 C    3.897 --    55 N    1.261    50 C    1.260    52 C    1.181
    52   6 C    3.956 --    53 C    1.650    51 C    1.181    68 H    0.974
    53   6 C    3.954 --    52 C    1.650    54 C    1.173    69 H    0.976
    54   6 C    3.909 --    56 C    1.368    55 N    1.216    53 C    1.173
    55   7 N    3.252 --    51 C    1.261    54 C    1.216    37 Cu   0.504
    56   6 C    3.940 --    54 C    1.368    57 C    1.360    70 H    0.971
    57   6 C    3.914 --    56 C    1.360    61 N    1.233    58 C    1.167
    58   6 C    3.957 --    59 C    1.662    57 C    1.167    71 H    0.976
    59   6 C    3.955 --    58 C    1.662    60 C    1.166    72 H    0.976
    60   6 C    3.917 --    38 C    1.362    61 N    1.234    59 C    1.166
    61   7 N    3.248 --    60 C    1.234    57 C    1.233    37 Cu   0.507
    62   1 H    1.001 --    38 C    0.972
    63   1 H    0.998 --    40 C    0.976
    64   1 H    0.998 --    41 C    0.976
    65   1 H    1.001 --    44 C    0.971
    66   1 H    0.998 --    46 C    0.976
    67   1 H    1.002 --    47 C    0.974
    68   1 H    1.002 --    52 C    0.974
    69   1 H    0.998 --    53 C    0.976
    70   1 H    1.001 --    56 C    0.971
    71   1 H    0.998 --    58 C    0.976
    72   1 H    0.998 --    59 C    0.976
    73   6 C    3.877 --    74 C    2.442    14 C    1.190    76 C    0.187
    74   6 C    3.937 --    73 C    2.442    75 C    1.343
    75   6 C    3.893 --    76 C    2.338    74 C    1.343    78 C    0.182
    76   6 C    3.927 --    75 C    2.338    77 C    1.368    73 C    0.187
    77   6 C    3.925 --    78 C    2.337    76 C    1.368    80 C    0.187
    78   6 C    3.894 --    77 C    2.337    79 C    1.344    75 C    0.182
    79   6 C    3.934 --    80 C    2.439    78 C    1.344
    80   6 C    3.878 --    79 C    2.439    90 C    1.193    77 C    0.187
    81   6 C    3.877 --    82 C    2.441   102 C    1.191    84 C    0.187
    82   6 C    3.934 --    81 C    2.441    83 C    1.342
    83   6 C    3.894 --    84 C    2.339    82 C    1.342    86 C    0.182
    84   6 C    3.925 --    83 C    2.339    85 C    1.366    81 C    0.187
    85   6 C    3.926 --    86 C    2.340    84 C    1.366    88 C    0.187
    86   6 C    3.893 --    85 C    2.340    87 C    1.341    83 C    0.182
    87   6 C    3.937 --    88 C    2.444    86 C    1.341
    88   6 C    3.877 --    87 C    2.444    50 C    1.188    85 C    0.187
    89  29 Cu   2.161 --   113 N    0.498   107 N    0.498    95 N    0.498
                           100 N    0.498
    90   6 C    3.933 --   112 C    1.256    91 C    1.256    80 C    1.193
    91   6 C    3.897 --    95 N    1.265    90 C    1.256    92 C    1.182
    92   6 C    3.955 --    93 C    1.648    91 C    1.182   114 H    0.974
    93   6 C    3.954 --    92 C    1.648    94 C    1.175   115 H    0.976
    94   6 C    3.907 --    96 C    1.365    95 N    1.217    93 C    1.175
    95   7 N    3.244 --    91 C    1.265    94 C    1.217    89 Cu   0.498
    96   6 C    3.936 --    94 C    1.365    97 C    1.364   116 H    0.971
    97   6 C    3.907 --    96 C    1.364   100 N    1.217    98 C    1.174
    98   6 C    3.954 --    99 C    1.648    97 C    1.174   117 H    0.976
    99   6 C    3.955 --    98 C    1.648   101 C    1.182   118 H    0.974
   100   7 N    3.244 --   101 C    1.264    97 C    1.217    89 Cu   0.498
   101   6 C    3.897 --   100 N    1.264   102 C    1.257    99 C    1.182
   102   6 C    3.933 --   103 C    1.257   101 C    1.257    81 C    1.191
   103   6 C    3.897 --   107 N    1.264   102 C    1.257   104 C    1.182
   104   6 C    3.955 --   105 C    1.648   103 C    1.182   119 H    0.974
   105   6 C    3.954 --   104 C    1.648   106 C    1.174   120 H    0.976
   106   6 C    3.907 --   108 C    1.364   107 N    1.217   105 C    1.174
   107   7 N    3.244 --   103 C    1.264   106 C    1.217    89 Cu   0.498
   108   6 C    3.936 --   109 C    1.365   106 C    1.364   121 H    0.971
   109   6 C    3.907 --   108 C    1.365   113 N    1.217   110 C    1.175
   110   6 C    3.954 --   111 C    1.648   109 C    1.175   122 H    0.976
   111   6 C    3.955 --   110 C    1.648   112 C    1.182   123 H    0.974
   112   6 C    3.897 --   113 N    1.265    90 C    1.256   111 C    1.182
   113   7 N    3.244 --   112 C    1.265   109 C    1.217    89 Cu   0.498
   114   1 H    1.002 --    92 C    0.974
   115   1 H    0.998 --    93 C    0.976
   116   1 H    1.002 --    96 C    0.971
   117   1 H    0.998 --    98 C    0.976
   118   1 H    1.002 --    99 C    0.974
   119   1 H    1.002 --   104 C    0.974
   120   1 H    0.998 --   105 C    0.976
   121   1 H    1.002 --   108 C    0.971
   122   1 H    0.998 --   110 C    0.976
   123   1 H    1.002 --   111 C    0.974
 ---------------------------------------------------------------------------

Topologies differ in total number of bonds
Writing topology from bond orders to xtbtopo.mol

 dipole moment from electron density (au)
     X       Y       Z   
   0.0116   0.0048  -0.0064  total (Debye):    0.036

           -------------------------------------------------
          |                Geometry Summary                 |
           -------------------------------------------------

      molecular mass/u    :     1303.7885908
   center of mass at/Å    :       29.6504723      -0.0154245      -0.0120370
  moments of inertia/u·Å² :        0.5631049E+04   0.2829070E+06   0.2870298E+06
rotational constants/cm⁻¹ :        0.2993693E-02   0.5958719E-04   0.5873129E-04

 * 124 selected distances

     #   Z          #   Z                                           value/Å
     2   6 C        3   6 C                                       1.3876196
     3   6 C        4   6 C                                       1.4373870
     4   6 C        5   6 C                                       1.3562154
     5   6 C        6   6 C                                       1.4371155
     3   6 C        7   7 N                                       1.3646862
     6   6 C        7   7 N                                       1.3644642
     6   6 C        8   6 C                                       1.3876158
     8   6 C        9   6 C                                       1.3866875
     9   6 C       10   6 C                                       1.4349692
    10   6 C       11   6 C                                       1.3572937
     9   6 C       12   7 N                                       1.3692762
    11   6 C       13   6 C                                       1.4344750
    12   7 N       13   6 C                                       1.3594303
    13   6 C       14   6 C                                       1.4069971
    14   6 C       15   6 C                                       1.4068058
    15   6 C       16   6 C                                       1.4344454
    16   6 C       17   6 C                                       1.3573404
    17   6 C       18   6 C                                       1.4350197
    15   6 C       19   7 N                                       1.3595177
    18   6 C       19   7 N                                       1.3692226
    18   6 C       20   6 C                                       1.3867491
    20   6 C       21   6 C                                       1.3876426
    21   6 C       22   6 C                                       1.4371514
    22   6 C       23   6 C                                       1.3562062
     2   6 C       24   6 C                                       1.3876191
    23   6 C       24   6 C                                       1.4373831
    21   6 C       25   7 N                                       1.3644769
    24   6 C       25   7 N                                       1.3647135
     2   6 C       26   1 H                                       1.0850723
     4   6 C       27   1 H                                       1.0788211
     5   6 C       28   1 H                                       1.0788277
     8   6 C       29   1 H                                       1.0852312
    10   6 C       30   1 H                                       1.0786488
    11   6 C       31   1 H                                       1.0784341 (min)
    16   6 C       32   1 H                                       1.0784506
    17   6 C       33   1 H                                       1.0786625
    20   6 C       34   1 H                                       1.0852358
    22   6 C       35   1 H                                       1.0788223
    23   6 C       36   1 H                                       1.0788286
    38   6 C       39   6 C                                       1.3876045
    39   6 C       40   6 C                                       1.4373994 (max)
    40   6 C       41   6 C                                       1.3561973
    41   6 C       42   6 C                                       1.4371458
    39   6 C       43   7 N                                       1.3646923
    42   6 C       43   7 N                                       1.3644686
    42   6 C       44   6 C                                       1.3875890
    44   6 C       45   6 C                                       1.3867216
    45   6 C       46   6 C                                       1.4350192
    46   6 C       47   6 C                                       1.3572574
    45   6 C       48   7 N                                       1.3691848
    47   6 C       49   6 C                                       1.4345277
    48   7 N       49   6 C                                       1.3595755
    49   6 C       50   6 C                                       1.4067587
    50   6 C       51   6 C                                       1.4065860
    51   6 C       52   6 C                                       1.4345005
    52   6 C       53   6 C                                       1.3572900
    53   6 C       54   6 C                                       1.4350610
    51   6 C       55   7 N                                       1.3596266
    54   6 C       55   7 N                                       1.3691401
    54   6 C       56   6 C                                       1.3867644
    56   6 C       57   6 C                                       1.3876103
    57   6 C       58   6 C                                       1.4371729
    58   6 C       59   6 C                                       1.3561899
    38   6 C       60   6 C                                       1.3876044
    59   6 C       60   6 C                                       1.4373975
    57   6 C       61   7 N                                       1.3644780
    60   6 C       61   7 N                                       1.3647126
    38   6 C       62   1 H                                       1.0850727
    40   6 C       63   1 H                                       1.0788230
    41   6 C       64   1 H                                       1.0788270
    44   6 C       65   1 H                                       1.0852288
    46   6 C       66   1 H                                       1.0786525
    47   6 C       67   1 H                                       1.0784353
    52   6 C       68   1 H                                       1.0784517
    53   6 C       69   1 H                                       1.0786600
    56   6 C       70   1 H                                       1.0852310
    58   6 C       71   1 H                                       1.0788231
    59   6 C       72   1 H                                       1.0788278
    73   6 C       74   6 C                                       1.2245373
    75   6 C       76   6 C                                       1.2306101
    77   6 C       78   6 C                                       1.2306657
    79   6 C       80   6 C                                       1.2246775
    81   6 C       82   6 C                                       1.2245113
    83   6 C       84   6 C                                       1.2305152
    85   6 C       86   6 C                                       1.2304368
    87   6 C       88   6 C                                       1.2242733
    90   6 C       91   6 C                                       1.4075494
    91   6 C       92   6 C                                       1.4344091
    92   6 C       93   6 C                                       1.3575817
    93   6 C       94   6 C                                       1.4346956
    91   6 C       95   7 N                                       1.3588323
    94   6 C       95   7 N                                       1.3687385
    94   6 C       96   6 C                                       1.3869635
    96   6 C       97   6 C                                       1.3870294
    97   6 C       98   6 C                                       1.4347112
    98   6 C       99   6 C                                       1.3575743
    97   6 C      100   7 N                                       1.3686527
    99   6 C      101   6 C                                       1.4344492
   100   7 N      101   6 C                                       1.3589582
   101   6 C      102   6 C                                       1.4073500
   102   6 C      103   6 C                                       1.4073084
   103   6 C      104   6 C                                       1.4344322
   104   6 C      105   6 C                                       1.3575819
   105   6 C      106   6 C                                       1.4347328
   103   6 C      107   7 N                                       1.3589706
   106   6 C      107   7 N                                       1.3686436
   106   6 C      108   6 C                                       1.3870540
   108   6 C      109   6 C                                       1.3870094
   109   6 C      110   6 C                                       1.4347232
   110   6 C      111   6 C                                       1.3576096
    90   6 C      112   6 C                                       1.4075098
   111   6 C      112   6 C                                       1.4344044
   109   6 C      113   7 N                                       1.3687411
   112   6 C      113   7 N                                       1.3588923
    92   6 C      114   1 H                                       1.0784407
    93   6 C      115   1 H                                       1.0786495
    96   6 C      116   1 H                                       1.0854101
    98   6 C      117   1 H                                       1.0786542
    99   6 C      118   1 H                                       1.0784439
   104   6 C      119   1 H                                       1.0784503
   105   6 C      120   1 H                                       1.0786531
   108   6 C      121   1 H                                       1.0854168
   110   6 C      122   1 H                                       1.0786602
   111   6 C      123   1 H                                       1.0784514

 * 3 distinct bonds (by element types)

   Z      Z             #   av. dist./Å        max./Å        min./Å
   1 H    6 C          32     1.0802906     1.0854168     1.0784341
   6 C    6 C          68     1.3825006     1.4373994     1.2242733
   6 C    7 N          24     1.3642540     1.3692762     1.3588323


optimized geometry written to: xtbopt.xyz


           -------------------------------------------------
          | TOTAL ENERGY             -229.330132322747 Eh   |
          | GRADIENT NORM               0.000763478998 Eh/α |
          | HOMO-LUMO GAP               0.000015179878 eV   |
           -------------------------------------------------

------------------------------------------------------------------------
 * finished run on 2022/07/30 at 04:25:12.238     
------------------------------------------------------------------------
 total:
 * wall-time:     0 d,  0 h,  1 min,  4.222 sec
 *  cpu-time:     0 d,  0 h,  1 min,  3.733 sec
 * ratio c/w:     0.992 speedup
 SCF:
 * wall-time:     0 d,  0 h,  0 min,  5.210 sec
 *  cpu-time:     0 d,  0 h,  0 min,  5.170 sec
 * ratio c/w:     0.992 speedup
 ANC optimizer:
 * wall-time:     0 d,  0 h,  0 min, 58.886 sec
 *  cpu-time:     0 d,  0 h,  0 min, 58.441 sec
 * ratio c/w:     0.992 speedup

