      -----------------------------------------------------------      
     |                   =====================                   |     
     |                           x T B                           |     
     |                   =====================                   |     
     |                         S. Grimme                         |     
     |          Mulliken Center for Theoretical Chemistry        |     
     |                    University of Bonn                     |     
      -----------------------------------------------------------      

   * xtb version 6.5.1 (b24c23e) compiled by 'conda@728c89f4b128' on 2022-07-12

   xtb is free software: you can redistribute it and/or modify it under
   the terms of the GNU Lesser General Public License as published by
   the Free Software Foundation, either version 3 of the License, or
   (at your option) any later version.
   
   xtb is distributed in the hope that it will be useful,
   but WITHOUT ANY WARRANTY; without even the implied warranty of
   MERCHANTABILITY or FITNESS FOR A PARTICULAR PURPOSE.  See the
   GNU Lesser General Public License for more details.
   
   Cite this work as:
   * C. Bannwarth, E. Caldeweyher, S. Ehlert, A. Hansen, P. Pracht,
     J. Seibert, S. Spicher, S. Grimme, WIREs Comput. Mol. Sci., 2020, 11,
     e01493. DOI: 10.1002/wcms.1493
   
   for GFN2-xTB:
   * C. Bannwarth, S. Ehlert and S. Grimme., J. Chem. Theory Comput., 2019,
     15, 1652-1671. DOI: 10.1021/acs.jctc.8b01176
   for GFN1-xTB:
   * S. Grimme, C. Bannwarth, P. Shushkov, J. Chem. Theory Comput., 2017,
     13, 1989-2009. DOI: 10.1021/acs.jctc.7b00118
   for GFN0-xTB:
   * P. Pracht, E. Caldeweyher, S. Ehlert, S. Grimme, ChemRxiv, 2019, preprint.
     DOI: 10.26434/chemrxiv.8326202.v1
   for GFN-FF:
   * S. Spicher and S. Grimme, Angew. Chem. Int. Ed., 2020, 59, 15665-15673.
     DOI: 10.1002/anie.202004239
   
   for ALPB and GBSA implicit solvation:
   * S. Ehlert, M. Stahn, S. Spicher, S. Grimme, J. Chem. Theory Comput.,
     2021, 17, 4250-4261. DOI: 10.1021/acs.jctc.1c00471
   
   for DFT-D4:
   * E. Caldeweyher, C. Bannwarth and S. Grimme, J. Chem. Phys., 2017,
     147, 034112. DOI: 10.1063/1.4993215
   * E. Caldeweyher, S. Ehlert, A. Hansen, H. Neugebauer, S. Spicher,
     C. Bannwarth and S. Grimme, J. Chem. Phys., 2019, 150, 154122.
     DOI: 10.1063/1.5090222
   * E. Caldeweyher, J.-M. Mewes, S. Ehlert and S. Grimme, Phys. Chem. Chem. Phys.
     2020, 22, 8499-8512. DOI: 10.1039/D0CP00502A
   
   for sTDA-xTB:
   * S. Grimme and C. Bannwarth, J. Chem. Phys., 2016, 145, 054103.
     DOI: 10.1063/1.4959605
   
   in the mass-spec context:
   * V. Asgeirsson, C. Bauer and S. Grimme, Chem. Sci., 2017, 8, 4879.
     DOI: 10.1039/c7sc00601b
   * J. Koopman and S. Grimme, ACS Omega 2019, 4, 12, 15120-15133.
     DOI: 10.1021/acsomega.9b02011
   
   for metadynamics refer to:
   * S. Grimme, J. Chem. Theory Comput., 2019, 155, 2847-2862
     DOI: 10.1021/acs.jctc.9b00143
   
   for SPH calculations refer to:
   * S. Spicher and S. Grimme, J. Chem. Theory Comput., 2021, 17, 1701-1714
     DOI: 10.1021/acs.jctc.0c01306
   
   with help from (in alphabetical order)
   P. Atkinson, C. Bannwarth, F. Bohle, G. Brandenburg, E. Caldeweyher
   M. Checinski, S. Dohm, S. Ehlert, S. Ehrlich, I. Gerasimov, C. Hölzer
   A. Katbashev, J. Koopman, C. Lavigne, S. Lehtola, F. März, M. Müller,
   F. Musil, H. Neugebauer, J. Pisarek, C. Plett, P. Pracht, F. Pultar,
   J. Seibert, P. Shushkov, S. Spicher, M. Stahn, M. Steiner, T. Strunk,
   J. Stückrath, T. Rose, and J. Unsleber
   
 * started run on 2022/07/29 at 21:08:33.818     

           -------------------------------------------------
          |                Calculation Setup                |
           -------------------------------------------------

          program call               : xtb xtbopt.xyz --gfn 1 --vipea
          hostname                   : cx3-14-28.cx3.hpc.ic.ac.uk
          coordinate file            : xtbopt.xyz
          omp threads                :                     1

   ID    Z sym.   atoms
    1   26 Fe     1, 63
    2    6 C      2-6, 8-11, 13-24, 27-32, 35-39, 42, 43, 64-68, 70-73,
                  75-86, 89-94, 97-101, 104, 105, 125, 126
    3    7 N      7, 12, 33, 34, 69, 74, 95, 96
    4    8 O      25, 26, 40, 41, 87, 88, 102, 103
    5    1 H      44-62, 106-124

           -------------------------------------------------
          |                 I P E A - x T B                 |
           -------------------------------------------------

        Reference                      10.1039/c7sc00601b
      * Hamiltonian:
        H0-scaling (s, p, d)           2.150000    2.300000    2.000000
        zeta-weighting                 0.000000
      * Dispersion:
        s8                             2.400000
        a1                             0.630000
        a2                             5.000000
        s9                             0.000000
      * Repulsion:
        kExp                           1.500000
        rExp                           1.000000
      * Coulomb:
        alpha                          1.000000
        third order                    atomic
        anisotropic                    false
      * Halogen bond correction:
        rad-scale                      1.300000
        damping                        0.440000


          ...................................................
          :                      SETUP                      :
          :.................................................:
          :  # basis functions                 526          :
          :  # atomic orbitals                 524          :
          :  # shells                          340          :
          :  # electrons                       422          :
          :  # halogen bonds                     0          :
          :  max. iterations                   250          :
          :  Hamiltonian                  GFN1-xTB          :
          :  restarted?                      false          :
          :  GBSA solvation                  false          :
          :  PC potential                    false          :
          :  electronic temp.          300.0000000     K    :
          :  accuracy                    1.0000000          :
          :  -> integral cutoff          0.2500000E+02      :
          :  -> integral neglect         0.1000000E-07      :
          :  -> SCF convergence          0.1000000E-05 Eh   :
          :  -> wf. convergence          0.2000000E-04 e    :
          :  Broyden damping             0.4000000          :
          ...................................................

 iter      E             dE          RMSdq      gap      omega  full diag
   1   -254.0437703 -0.254044E+03  0.118E+01    0.00       0.0  T
   2   -196.0122514  0.580315E+02  0.121E+01    0.06       1.0  T
   3   -265.2246511 -0.692124E+02  0.578E+00    0.17       1.0  T
   4   -253.2839156  0.119407E+02  0.565E+00    0.02       1.0  T
   5   -264.0990218 -0.108151E+02  0.308E+00    0.06       1.0  T
   6   -253.3415912  0.107574E+02  0.624E+00    0.03       1.0  T
   7   -252.7140771  0.627514E+00  0.585E+00    0.21       1.0  T
   8   -266.8822800 -0.141682E+02  0.277E+00    0.01       1.0  T
   9   -266.3748447  0.507435E+00  0.301E+00    0.01       1.0  T
  10   -265.7340240  0.640821E+00  0.306E+00    0.08       1.0  T
  11   -258.9008019  0.683322E+01  0.469E+00    0.06       1.0  T
  12   -266.9837616 -0.808296E+01  0.244E+00    0.00       1.0  T
  13   -267.4704732 -0.486712E+00  0.205E+00    0.01       1.0  T
  14   -266.1974799  0.127299E+01  0.289E+00    0.04       1.0  T
  15   -266.4477506 -0.250271E+00  0.279E+00    0.02       1.0  T
  16   -266.5030053 -0.552547E-01  0.272E+00    0.02       1.0  T
  17   -267.1414726 -0.638467E+00  0.238E+00    0.01       1.0  T
  18   -267.2482001 -0.106728E+00  0.230E+00    0.01       1.0  T
  19   -267.4961522 -0.247952E+00  0.214E+00    0.01       1.0  T
  20   -266.9140971  0.582055E+00  0.266E+00    0.00       1.0  T
  21   -266.9914816 -0.773844E-01  0.258E+00    0.00       1.0  T
  22   -267.9998924 -0.100841E+01  0.188E+00    0.00       1.0  T
  23   -267.1804250  0.819467E+00  0.243E+00    0.00       1.0  T
  24   -268.9960129 -0.181559E+01  0.855E-01    0.01       1.0  T
  25   -269.2153182 -0.219305E+00  0.346E-01    0.03       1.0  T
  26   -269.0255227  0.189796E+00  0.795E-01    0.01       1.0  T
  27   -269.2559419 -0.230419E+00  0.136E-01    0.03       1.0  T
  28   -269.1412259  0.114716E+00  0.577E-01    0.01       1.0  T
  29   -269.0829106  0.583153E-01  0.719E-01    0.01       1.0  T
  30   -268.7755264  0.307384E+00  0.117E+00    0.00       1.0  T
  31   -268.2204975  0.555029E+00  0.171E+00    0.00       1.0  T
  32   -268.0136981  0.206799E+00  0.188E+00    0.00       1.0  T
  33   -267.6476178  0.366080E+00  0.213E+00    0.00       1.0  T
  34   -268.1011976 -0.453580E+00  0.181E+00    0.00       1.0  T
  35   -267.8242072  0.276990E+00  0.201E+00    0.00       1.0  T
  36   -268.2220427 -0.397836E+00  0.171E+00    0.00       1.0  T
  37   -268.2674922 -0.454495E-01  0.167E+00    0.00       1.0  T
  38   -268.4354069 -0.167915E+00  0.153E+00    0.00       1.0  T
  39   -268.7744529 -0.339046E+00  0.117E+00    0.00       1.0  T
  40   -268.8527371 -0.782842E-01  0.107E+00    0.00       1.0  T
  41   -269.2215122 -0.368775E+00  0.349E-01    0.02       1.0  T
  42   -269.2545925 -0.330803E-01  0.163E-01    0.03       1.0  T
  43   -269.2023114  0.522811E-01  0.414E-01    0.02       1.0  T
  44   -269.2626674 -0.603560E-01  0.648E-02    0.03       1.0  T
  45   -269.2571037  0.556369E-02  0.139E-01    0.03       1.0  T
  46   -269.2638538 -0.675003E-02  0.255E-02    0.03       1.0  T
  47   -269.2640321 -0.178349E-03  0.131E-02    0.03       1.0  T
  48   -269.2639869  0.451857E-04  0.172E-02    0.03       1.0  T
  49   -269.2640573 -0.704077E-04  0.102E-02    0.03       1.0  T
  50   -269.2639553  0.102026E-03  0.197E-02    0.03       1.0  T
  51   -269.2640807 -0.125386E-03  0.601E-03    0.03       1.5  T
  52   -269.2640851 -0.443918E-05  0.493E-03    0.03       1.8  T
  53   -269.2640694  0.157193E-04  0.827E-03    0.03       1.1  T
  54   -269.2640934 -0.239684E-04  0.128E-03    0.03       7.0  T
  55   -269.2640925  0.918226E-06  0.206E-03    0.03       4.3  T
  56   -269.2640937 -0.124286E-05  0.879E-04    0.03      10.1  T
  57   -269.2640939 -0.238078E-06  0.311E-04    0.03      28.7  T
  58   -269.2640939  0.575764E-07  0.505E-04    0.03      17.6  T
  59   -269.2640940 -0.845274E-07  0.140E-04    0.03      63.8  T
  60   -269.2640940 -0.472136E-08  0.792E-05    0.03     112.5  T

   *** convergence criteria satisfied after 60 iterations ***

         #    Occupation            Energy/Eh            Energy/eV
      -------------------------------------------------------------
         1        2.0000           -1.0637820             -28.9470
       ...           ...                  ...                  ...
       205        2.0000           -0.3915533             -10.6547
       206        1.9417           -0.3628689              -9.8742
       207        1.9265           -0.3626402              -9.8679
       208        1.6922           -0.3611568              -9.8276
       209        1.5514           -0.3607164              -9.8156
       210        1.5497           -0.3607117              -9.8155
       211        1.4746           -0.3605181              -9.8102 (HOMO)
       212        0.9354           -0.3594146              -9.7802 (LUMO)
       213        0.9285           -0.3594014              -9.7798
       214                         -0.3265876              -8.8869
       215                         -0.3148474              -8.5674
       216                         -0.3148393              -8.5672
       ...                                ...                  ...
       524                        544.5926035           14819.1190
      -------------------------------------------------------------
                  HL-Gap            0.0011035 Eh            0.0300 eV
             Fermi-level           -0.3595376 Eh           -9.7835 eV

 SCC (total)                   0 d,  0 h,  0 min,  5.417 sec
 SCC setup                      ...        0 min,  0.003 sec (  0.048%)
 Dispersion                     ...        0 min,  0.004 sec (  0.068%)
 classical contributions        ...        0 min,  0.002 sec (  0.029%)
 integral evaluation            ...        0 min,  0.316 sec (  5.839%)
 iterations                     ...        0 min,  4.351 sec ( 80.308%)
 molecular gradient             ...        0 min,  0.728 sec ( 13.430%)
 printout                       ...        0 min,  0.015 sec (  0.277%)

         :::::::::::::::::::::::::::::::::::::::::::::::::::::
         ::                     SUMMARY                     ::
         :::::::::::::::::::::::::::::::::::::::::::::::::::::
         :: total energy            -264.565941246593 Eh    ::
         :: gradient norm              0.134283542907 Eh/a0 ::
         :: HOMO-LUMO gap              0.030028466043 eV    ::
         ::.................................................::
         :: SCC energy              -269.264093980142 Eh    ::
         :: -> electrostatic           0.261359065016 Eh    ::
         :: repulsion energy           4.812794869889 Eh    ::
         :: dispersion energy         -0.114642136340 Eh    ::
         :: halogen bond corr.         0.000000000000 Eh    ::
         :: add. restraining           0.000000000000 Eh    ::
         :: total charge               0.000000000000 e     ::
         :::::::::::::::::::::::::::::::::::::::::::::::::::::

           ------------------------------------------------- 
          |        vertical delta SCC IP calculation        |
           ------------------------------------------------- 
   1   -268.7607592 -0.268761E+03  0.571E-01    0.03       0.0  T
   2   -264.6245061  0.413625E+01  0.359E+00    0.00       1.0  T
   3   -268.7418875 -0.411738E+01  0.585E-01    0.03       1.0  T
   4   -267.8871416  0.854746E+00  0.160E+00    0.00       1.0  T
   5   -268.3383293 -0.451188E+00  0.117E+00    0.00       1.0  T
   6   -268.8202252 -0.481896E+00  0.351E-01    0.01       1.0  T
   7   -268.8345842 -0.143590E-01  0.270E-01    0.01       1.0  T
   8   -268.8457766 -0.111925E-01  0.202E-01    0.00       1.0  T
   9   -268.8507851 -0.500852E-02  0.161E-01    0.00       1.0  T
  10   -268.8531779 -0.239273E-02  0.135E-01    0.00       1.0  T
  11   -268.8585732 -0.539528E-02  0.396E-02    0.00       1.0  T
  12   -268.8559472  0.262596E-02  0.933E-02    0.00       1.0  T
  13   -268.8490980  0.684916E-02  0.166E-01    0.00       1.0  T
  14   -268.8512609 -0.216289E-02  0.147E-01    0.00       1.0  T
  15   -268.8570913 -0.583038E-02  0.738E-02    0.00       1.0  T
  16   -268.8578892 -0.797845E-03  0.576E-02    0.00       1.0  T
  17   -268.8575201  0.369010E-03  0.657E-02    0.00       1.0  T
  18   -268.8583916 -0.871421E-03  0.437E-02    0.00       1.0  T
  19   -268.8590773 -0.685755E-03  0.396E-03    0.00       2.2  T
  20   -268.8590763  0.103526E-05  0.437E-03    0.00       2.0  T
  21   -268.8590808 -0.450645E-05  0.255E-03    0.00       3.5  T
  22   -268.8590831 -0.232759E-05  0.181E-04    0.00      49.3  T
  23   -268.8590831  0.576470E-07  0.439E-04    0.00      20.3  T
  24   -268.8590831 -0.456052E-07  0.255E-04    0.00      34.9  T
  25   -268.8590831 -0.226939E-07  0.477E-05    0.00     186.8  T
  26   -268.8590831 -0.749424E-09  0.144E-05    0.00     619.2  T
     SCC iter.                  ...        0 min,  1.839 sec
     gradient                   ...        0 min,  0.718 sec
------------------------------------------------------------------------
empirical IP shift (eV):    4.8455
delta SCC IP (eV):    6.1754
------------------------------------------------------------------------
           ------------------------------------------------- 
          |        vertical delta SCC EA calculation        |
           ------------------------------------------------- 
   1   -269.2215864 -0.269222E+03  0.115E+00    0.00       0.0  T
   2   -236.0801821  0.331414E+02  0.771E+00    0.00       1.0  T
   3   -269.2006581 -0.331205E+02  0.112E+00    0.00       1.0  T
   4   -269.3389531 -0.138295E+00  0.921E-01    0.00       1.0  T
   5   -268.2515860  0.108737E+01  0.205E+00    0.03       1.0  T
   6   -269.3706539 -0.111907E+01  0.837E-01    0.01       1.0  T
   7   -269.3723128 -0.165891E-02  0.807E-01    0.02       1.0  T
   8   -269.4305964 -0.582836E-01  0.676E-01    0.03       1.0  T
   9   -269.3959417  0.346546E-01  0.741E-01    0.04       1.0  T
  10   -269.4286737 -0.327320E-01  0.665E-01    0.03       1.0  T
  11   -269.5600652 -0.131392E+00  0.238E-01    0.01       1.0  T
  12   -269.5767241 -0.166588E-01  0.936E-02    0.01       1.0  T
  13   -269.5790876 -0.236353E-02  0.471E-02    0.00       1.0  T
  14   -269.5788469  0.240689E-03  0.530E-02    0.00       1.0  T
  15   -269.5797831 -0.936140E-03  0.123E-02    0.00       1.0  T
  16   -269.5793003  0.482729E-03  0.385E-02    0.00       1.0  T
  17   -269.5798292 -0.528878E-03  0.392E-03    0.00       2.3  T
  18   -269.5798305 -0.131640E-05  0.343E-03    0.00       2.6  T
  19   -269.5798229  0.763664E-05  0.576E-03    0.00       1.5  T
  20   -269.5798335 -0.105958E-04  0.191E-03    0.00       4.7  T
  21   -269.5798347 -0.119147E-05  0.562E-04    0.00      15.9  T
  22   -269.5798348 -0.108034E-06  0.143E-04    0.00      62.2  T
  23   -269.5798348  0.191847E-09  0.144E-04    0.00      62.1  T
     SCC iter.                  ...        0 min,  1.633 sec
     gradient                   ...        0 min,  0.731 sec
------------------------------------------------------------------------
empirical EA shift (eV):    4.8455
delta SCC EA (eV):    3.7462
------------------------------------------------------------------------
           -------------------------------------------------
          |                Property Printout                |
           -------------------------------------------------

    * Orbital Energies and Occupations

         #    Occupation            Energy/Eh            Energy/eV
      -------------------------------------------------------------
         1        2.0000           -1.0146742             -27.6107
       ...           ...                  ...                  ...
       200        2.0000           -0.3728883             -10.1468
       201        2.0000           -0.3711136             -10.0985
       202        2.0000           -0.3357094              -9.1351
       203        2.0000           -0.3273361              -8.9073
       204        2.0000           -0.3273265              -8.9070
       205        2.0000           -0.3174909              -8.6394
       206        1.9586           -0.2769791              -7.5370
       207        1.8925           -0.2760303              -7.5112
       208        1.8894           -0.2760015              -7.5104
       209        1.8867           -0.2759764              -7.5097
       210        1.8533           -0.2757083              -7.5024
       211        1.8085           -0.2754244              -7.4947
       212        0.8568           -0.2728312              -7.4241 (HOMO)
       213        0.8543           -0.2728259              -7.4240 (LUMO)
       214                         -0.2499492              -6.8015
       215                         -0.2419453              -6.5837
       216                         -0.2419383              -6.5835
       217                         -0.2304225              -6.2701
       218                         -0.2219668              -6.0400
       219                         -0.2209888              -6.0134
       220                         -0.2153997              -5.8613
       221                         -0.2153546              -5.8601
       222                         -0.2030759              -5.5260
       223                         -0.2025376              -5.5113
       ...                                ...                  ...
       524                        544.6672950           14821.1515
      -------------------------------------------------------------
                  HL-Gap            0.0000053 Eh            0.0001 eV
             Fermi-level           -0.2731348 Eh           -7.4324 eV

  Mulliken/CM5 charges         n(s)   n(p)   n(d)
     1Fe   -0.08133  0.35484   0.539  1.379  6.163
     2C    -0.01967 -0.06113   1.081  2.939  0.000
     3C     0.06015  0.12048   1.107  2.833  0.000
     4C    -0.04207 -0.08855   1.084  2.958  0.000
     5C    -0.04079 -0.08676   1.076  2.964  0.000
     6C     0.06180  0.12595   1.101  2.837  0.000
     7N    -0.17380 -0.44142   1.315  3.859  0.000
     8C     0.00955  0.01474   1.079  2.912  0.000
     9C     0.06139  0.12456   1.100  2.839  0.000
    10C    -0.03861 -0.08461   1.072  2.966  0.000
    11C    -0.03639 -0.08225   1.077  2.960  0.000
    12N    -0.17145 -0.43928   1.317  3.855  0.000
    13C     0.06610  0.13135   1.111  2.822  0.000
    14C     0.02130  0.02798   1.077  2.902  0.000
    15C     0.06622  0.13135   1.112  2.822  0.000
    16C    -0.03610 -0.08198   1.077  2.959  0.000
    17C    -0.03826 -0.08440   1.073  2.965  0.000
    18C     0.06163  0.12485   1.100  2.838  0.000
    19C     0.00888  0.01406   1.079  2.912  0.000
    20C     0.01760  0.00881   1.095  2.887  0.000
    21C    -0.01741 -0.07067   1.079  2.938  0.000
    22C    -0.01387 -0.06546   1.090  2.924  0.000
    23C     0.00343 -0.00006   1.086  2.910  0.000
    24C     0.23185  0.28680   1.195  2.573  0.000
    25O    -0.28207 -0.47861   1.682  4.601  0.000
    26O    -0.33507 -0.38478   1.629  4.706  0.000
    27C    -0.01533 -0.06696   1.087  2.928  0.000
    28C    -0.01758 -0.07083   1.079  2.939  0.000
    29C     0.06189  0.12597   1.102  2.836  0.000
    30C    -0.04056 -0.08668   1.076  2.964  0.000
    31C    -0.04198 -0.08846   1.083  2.959  0.000
    32C     0.06010  0.12050   1.107  2.833  0.000
    33N    -0.17378 -0.44200   1.316  3.858  0.000
    34N    -0.17140 -0.43865   1.316  3.855  0.000
    35C     0.01812  0.00926   1.096  2.886  0.000
    36C    -0.01735 -0.07057   1.079  2.938  0.000
    37C    -0.01349 -0.06508   1.090  2.923  0.000
    38C     0.00334 -0.00016   1.086  2.911  0.000
    39C     0.23194  0.28689   1.195  2.573  0.000
    40O    -0.28241 -0.47897   1.682  4.601  0.000
    41O    -0.33466 -0.38438   1.629  4.706  0.000
    42C    -0.01553 -0.06717   1.087  2.928  0.000
    43C    -0.01819 -0.07151   1.079  2.940  0.000
    44H     0.02289  0.08186   0.977  0.000  0.000
    45H     0.02507  0.08169   0.975  0.000  0.000
    46H     0.01888  0.07775   0.981  0.000  0.000
    47H     0.02133  0.08035   0.979  0.000  0.000
    48H     0.02059  0.07915   0.979  0.000  0.000
    49H     0.02016  0.07867   0.980  0.000  0.000
    50H     0.02050  0.07944   0.979  0.000  0.000
    51H     0.02788  0.08586   0.972  0.000  0.000
    52H     0.04031  0.10081   0.960  0.000  0.000
    53H     0.23887  0.41465   0.761  0.000  0.000
    54H     0.04256  0.10381   0.957  0.000  0.000
    55H     0.02860  0.08660   0.971  0.000  0.000
    56H     0.01821  0.07707   0.982  0.000  0.000
    57H     0.02513  0.08175   0.975  0.000  0.000
    58H     0.02851  0.08622   0.971  0.000  0.000
    59H     0.04081  0.10130   0.959  0.000  0.000
    60H     0.23868  0.41448   0.761  0.000  0.000
    61H     0.04184  0.10309   0.958  0.000  0.000
    62H     0.02756  0.08528   0.972  0.000  0.000
    63Fe   -0.08156  0.35461   0.539  1.379  6.163
    64C    -0.01967 -0.06113   1.081  2.939  0.000
    65C     0.06015  0.12048   1.107  2.833  0.000
    66C    -0.04207 -0.08855   1.084  2.958  0.000
    67C    -0.04079 -0.08676   1.076  2.964  0.000
    68C     0.06180  0.12594   1.101  2.837  0.000
    69N    -0.17380 -0.44142   1.315  3.859  0.000
    70C     0.00955  0.01474   1.079  2.912  0.000
    71C     0.06138  0.12456   1.100  2.839  0.000
    72C    -0.03861 -0.08462   1.072  2.966  0.000
    73C    -0.03639 -0.08225   1.077  2.960  0.000
    74N    -0.17145 -0.43928   1.317  3.855  0.000
    75C     0.06610  0.13135   1.111  2.822  0.000
    76C     0.02130  0.02798   1.077  2.902  0.000
    77C     0.06622  0.13135   1.112  2.822  0.000
    78C    -0.03610 -0.08198   1.077  2.959  0.000
    79C    -0.03826 -0.08440   1.073  2.965  0.000
    80C     0.06162  0.12485   1.100  2.838  0.000
    81C     0.00888  0.01406   1.079  2.912  0.000
    82C     0.01760  0.00881   1.095  2.887  0.000
    83C    -0.01741 -0.07067   1.079  2.938  0.000
    84C    -0.01387 -0.06546   1.090  2.924  0.000
    85C     0.00343 -0.00006   1.086  2.910  0.000
    86C     0.23185  0.28680   1.195  2.573  0.000
    87O    -0.28207 -0.47861   1.681  4.601  0.000
    88O    -0.33507 -0.38478   1.629  4.706  0.000
    89C    -0.01533 -0.06696   1.087  2.928  0.000
    90C    -0.01758 -0.07083   1.079  2.939  0.000
    91C     0.06189  0.12597   1.102  2.836  0.000
    92C    -0.04056 -0.08668   1.076  2.964  0.000
    93C    -0.04198 -0.08846   1.083  2.959  0.000
    94C     0.06010  0.12050   1.107  2.833  0.000
    95N    -0.17378 -0.44200   1.316  3.858  0.000
    96N    -0.17140 -0.43864   1.316  3.855  0.000
    97C     0.01812  0.00926   1.096  2.886  0.000
    98C    -0.01735 -0.07057   1.079  2.938  0.000
    99C    -0.01349 -0.06508   1.090  2.923  0.000
   100C     0.00334 -0.00016   1.086  2.911  0.000
   101C     0.23194  0.28690   1.195  2.573  0.000
   102O    -0.28242 -0.47897   1.682  4.601  0.000
   103O    -0.33465 -0.38437   1.629  4.706  0.000
   104C    -0.01553 -0.06717   1.087  2.928  0.000
   105C    -0.01819 -0.07151   1.079  2.940  0.000
   106H     0.02289  0.08186   0.977  0.000  0.000
   107H     0.02507  0.08169   0.975  0.000  0.000
   108H     0.01888  0.07775   0.981  0.000  0.000
   109H     0.02133  0.08035   0.979  0.000  0.000
   110H     0.02059  0.07915   0.979  0.000  0.000
   111H     0.02016  0.07867   0.980  0.000  0.000
   112H     0.02050  0.07944   0.979  0.000  0.000
   113H     0.02788  0.08586   0.972  0.000  0.000
   114H     0.04031  0.10081   0.960  0.000  0.000
   115H     0.23887  0.41465   0.761  0.000  0.000
   116H     0.04256  0.10381   0.957  0.000  0.000
   117H     0.02860  0.08660   0.971  0.000  0.000
   118H     0.01821  0.07707   0.982  0.000  0.000
   119H     0.02513  0.08175   0.975  0.000  0.000
   120H     0.02851  0.08622   0.971  0.000  0.000
   121H     0.04081  0.10130   0.959  0.000  0.000
   122H     0.23868  0.41449   0.761  0.000  0.000
   123H     0.04184  0.10309   0.958  0.000  0.000
   124H     0.02756  0.08528   0.972  0.000  0.000
   125C    -0.02440 -0.02677   1.071  2.953  0.000
   126C    -0.02440 -0.02677   1.071  2.953  0.000

Wiberg/Mayer (AO) data.
largest (>0.10) Wiberg bond orders for each atom

 ---------------------------------------------------------------------------
     #   Z sym  total        # sym  WBO       # sym  WBO       # sym  WBO
 ---------------------------------------------------------------------------
     1  26 Fe   4.483 --     7 N    0.872    33 N    0.870    34 N    0.865
                            12 N    0.865
     2   6 C    3.842 --     3 C    1.395    32 C    1.391    44 H    0.997
     3   6 C    3.949 --     2 C    1.395     7 N    1.222     4 C    1.203
     4   6 C    3.858 --     5 C    1.636     3 C    1.203    45 H    0.994
     5   6 C    3.834 --     4 C    1.636     6 C    1.209    46 H    0.999
     6   6 C    3.926 --     8 C    1.365     7 N    1.227     5 C    1.209
     7   7 N    3.113 --     6 C    1.227     3 C    1.222     1 Fe   0.872
     8   6 C    3.842 --     9 C    1.368     6 C    1.365    35 C    1.045
     9   6 C    3.918 --     8 C    1.368    12 N    1.218    10 C    1.216
    10   6 C    3.823 --    11 C    1.622     9 C    1.216    47 H    0.999
    11   6 C    3.831 --    10 C    1.622    13 C    1.228    48 H    0.999
    12   7 N    3.119 --    13 C    1.248     9 C    1.218     1 Fe   0.865
    13   6 C    3.929 --    14 C    1.307    12 N    1.248    11 C    1.228
    14   6 C    3.863 --    15 C    1.310    13 C    1.307   125 C    1.198
    15   6 C    3.929 --    14 C    1.310    34 N    1.245    16 C    1.228
    16   6 C    3.830 --    17 C    1.621    15 C    1.228    49 H    0.998
    17   6 C    3.824 --    16 C    1.621    18 C    1.217    50 H    0.998
    18   6 C    3.920 --    19 C    1.366    34 N    1.220    17 C    1.217
    19   6 C    3.843 --    18 C    1.366    29 C    1.362    20 C    1.055
    20   6 C    3.896 --    28 C    1.418    21 C    1.418    19 C    1.055
    21   6 C    3.866 --    22 C    1.466    20 C    1.418    51 H    0.989
    22   6 C    3.897 --    21 C    1.466    23 C    1.398    52 H    0.987
    23   6 C    3.896 --    22 C    1.398    27 C    1.398    24 C    1.041
    24   6 C    4.097 --    26 O    1.814    25 O    1.208    23 C    1.041
    25   8 O    2.367 --    24 C    1.208    53 H    0.945    26 O    0.182
    26   8 O    2.027 --    24 C    1.814    25 O    0.182
    27   6 C    3.893 --    28 C    1.465    23 C    1.398    54 H    0.986
    28   6 C    3.867 --    27 C    1.465    20 C    1.418    55 H    0.988
    29   6 C    3.928 --    19 C    1.362    33 N    1.227    30 C    1.210
    30   6 C    3.834 --    31 C    1.634    29 C    1.210    56 H    0.999
    31   6 C    3.856 --    30 C    1.634    32 C    1.205    57 H    0.994
    32   6 C    3.948 --     2 C    1.391    33 N    1.223    31 C    1.205
    33   7 N    3.112 --    29 C    1.227    32 C    1.223     1 Fe   0.870
    34   7 N    3.118 --    15 C    1.245    18 C    1.220     1 Fe   0.865
    35   6 C    3.896 --    43 C    1.422    36 C    1.421     8 C    1.045
    36   6 C    3.868 --    37 C    1.465    35 C    1.421    58 H    0.989
    37   6 C    3.897 --    36 C    1.465    38 C    1.399    59 H    0.987
    38   6 C    3.898 --    37 C    1.399    42 C    1.399    39 C    1.041
    39   6 C    4.097 --    41 O    1.814    40 O    1.208    38 C    1.041
    40   8 O    2.367 --    39 C    1.208    60 H    0.945    41 O    0.182
    41   8 O    2.028 --    39 C    1.814    40 O    0.182
    42   6 C    3.893 --    43 C    1.463    38 C    1.399    61 H    0.987
    43   6 C    3.869 --    42 C    1.463    35 C    1.422    62 H    0.989
    44   1 H    1.035 --     2 C    0.997
    45   1 H    1.027 --     4 C    0.994
    46   1 H    1.041 --     5 C    0.999
    47   1 H    1.038 --    10 C    0.999
    48   1 H    1.042 --    11 C    0.999
    49   1 H    1.044 --    16 C    0.998
    50   1 H    1.042 --    17 C    0.998
    51   1 H    1.053 --    21 C    0.989
    52   1 H    1.033 --    22 C    0.987
    53   1 H    0.983 --    25 O    0.945
    54   1 H    1.023 --    27 C    0.986
    55   1 H    1.052 --    28 C    0.988
    56   1 H    1.043 --    30 C    0.999
    57   1 H    1.028 --    31 C    0.994
    58   1 H    1.052 --    36 C    0.989
    59   1 H    1.033 --    37 C    0.987
    60   1 H    0.983 --    40 O    0.945
    61   1 H    1.024 --    42 C    0.987
    62   1 H    1.053 --    43 C    0.989
    63  26 Fe   4.483 --    69 N    0.872    95 N    0.870    96 N    0.865
                            74 N    0.865
    64   6 C    3.842 --    65 C    1.395    94 C    1.391   106 H    0.997
    65   6 C    3.949 --    64 C    1.395    69 N    1.222    66 C    1.203
    66   6 C    3.858 --    67 C    1.636    65 C    1.203   107 H    0.994
    67   6 C    3.834 --    66 C    1.636    68 C    1.209   108 H    0.999
    68   6 C    3.926 --    70 C    1.365    69 N    1.227    67 C    1.209
    69   7 N    3.113 --    68 C    1.227    65 C    1.222    63 Fe   0.872
    70   6 C    3.842 --    71 C    1.368    68 C    1.365    97 C    1.045
    71   6 C    3.918 --    70 C    1.368    74 N    1.218    72 C    1.216
    72   6 C    3.823 --    73 C    1.622    71 C    1.216   109 H    0.999
    73   6 C    3.831 --    72 C    1.622    75 C    1.228   110 H    0.999
    74   7 N    3.119 --    75 C    1.248    71 C    1.218    63 Fe   0.865
    75   6 C    3.929 --    76 C    1.307    74 N    1.248    73 C    1.228
    76   6 C    3.863 --    77 C    1.310    75 C    1.307   126 C    1.198
    77   6 C    3.929 --    76 C    1.310    96 N    1.245    78 C    1.228
    78   6 C    3.830 --    79 C    1.621    77 C    1.228   111 H    0.998
    79   6 C    3.824 --    78 C    1.621    80 C    1.217   112 H    0.998
    80   6 C    3.920 --    81 C    1.366    96 N    1.220    79 C    1.217
    81   6 C    3.843 --    80 C    1.366    91 C    1.362    82 C    1.055
    82   6 C    3.896 --    90 C    1.418    83 C    1.418    81 C    1.055
    83   6 C    3.866 --    84 C    1.466    82 C    1.418   113 H    0.989
    84   6 C    3.897 --    83 C    1.466    85 C    1.398   114 H    0.987
    85   6 C    3.896 --    84 C    1.398    89 C    1.398    86 C    1.041
    86   6 C    4.097 --    88 O    1.814    87 O    1.208    85 C    1.041
    87   8 O    2.367 --    86 C    1.208   115 H    0.945    88 O    0.182
    88   8 O    2.027 --    86 C    1.814    87 O    0.182
    89   6 C    3.893 --    90 C    1.465    85 C    1.398   116 H    0.986
    90   6 C    3.867 --    89 C    1.465    82 C    1.418   117 H    0.988
    91   6 C    3.928 --    81 C    1.362    95 N    1.227    92 C    1.210
    92   6 C    3.834 --    93 C    1.634    91 C    1.210   118 H    0.999
    93   6 C    3.856 --    92 C    1.634    94 C    1.205   119 H    0.994
    94   6 C    3.948 --    64 C    1.391    95 N    1.223    93 C    1.205
    95   7 N    3.112 --    91 C    1.227    94 C    1.223    63 Fe   0.870
    96   7 N    3.118 --    77 C    1.245    80 C    1.220    63 Fe   0.865
    97   6 C    3.896 --   105 C    1.422    98 C    1.421    70 C    1.045
    98   6 C    3.868 --    99 C    1.465    97 C    1.421   120 H    0.989
    99   6 C    3.897 --    98 C    1.465   100 C    1.399   121 H    0.987
   100   6 C    3.898 --    99 C    1.399   104 C    1.399   101 C    1.041
   101   6 C    4.097 --   103 O    1.814   102 O    1.208   100 C    1.041
   102   8 O    2.367 --   101 C    1.208   122 H    0.945   103 O    0.182
   103   8 O    2.028 --   101 C    1.814   102 O    0.182
   104   6 C    3.893 --   105 C    1.463   100 C    1.399   123 H    0.987
   105   6 C    3.869 --   104 C    1.463    97 C    1.422   124 H    0.989
   106   1 H    1.035 --    64 C    0.997
   107   1 H    1.027 --    66 C    0.994
   108   1 H    1.041 --    67 C    0.999
   109   1 H    1.038 --    72 C    0.999
   110   1 H    1.042 --    73 C    0.999
   111   1 H    1.044 --    78 C    0.998
   112   1 H    1.042 --    79 C    0.998
   113   1 H    1.053 --    83 C    0.989
   114   1 H    1.033 --    84 C    0.987
   115   1 H    0.983 --    87 O    0.945
   116   1 H    1.023 --    89 C    0.986
   117   1 H    1.052 --    90 C    0.988
   118   1 H    1.043 --    92 C    0.999
   119   1 H    1.028 --    93 C    0.994
   120   1 H    1.052 --    98 C    0.989
   121   1 H    1.033 --    99 C    0.987
   122   1 H    0.983 --   102 O    0.945
   123   1 H    1.024 --   104 C    0.987
   124   1 H    1.053 --   105 C    0.989
   125   6 C    3.774 --   126 C    2.637    14 C    1.198
   126   6 C    3.774 --   125 C    2.637    76 C    1.198
 ---------------------------------------------------------------------------

Topologies differ in total number of bonds
Writing topology from bond orders to xtbtopo.mol

 dipole moment from electron density (au)
     X       Y       Z   
 -46.1991   2.3306   0.1348  total (Debye):  117.576


           -------------------------------------------------
          | TOTAL ENERGY             -264.881682052504 Eh   |
          | GRADIENT NORM               0.135808352922 Eh/α |
          | HOMO-LUMO GAP               0.000144684957 eV   |
           -------------------------------------------------
########################################################################
[WARNING] Runtime exception occurred
-1- restart_readRestart: Dimension missmatch in restart file.
########################################################################

------------------------------------------------------------------------
 * finished run on 2022/07/29 at 21:08:45.153     
------------------------------------------------------------------------
 total:
 * wall-time:     0 d,  0 h,  0 min, 11.335 sec
 *  cpu-time:     0 d,  0 h,  0 min, 11.268 sec
 * ratio c/w:     0.994 speedup
 SCF:
 * wall-time:     0 d,  0 h,  0 min, 11.006 sec
 *  cpu-time:     0 d,  0 h,  0 min, 10.943 sec
 * ratio c/w:     0.994 speedup

