126
 energy: -237.009828259206 gnorm: 1.702000729828 xtb: 6.5.1 (b24c23e)
Fe          19.33485200000000        0.00444600000000        0.01621000000000
C           15.91682700000000       -0.10256900000000        0.10543000000000
C           16.58211900000000       -0.20416300000000        1.25956300000000
C           15.93425700000000       -0.34669200000000        2.55814700000000
C           16.87638200000000       -0.36770700000000        3.48259100000000
C           18.17942100000000       -0.23745700000000        2.81676800000000
N           17.99994200000000       -0.13879400000000        1.40370100000000
C           19.36857700000000       -0.16652700000000        3.44789400000000
C           20.66006200000000       -0.00685600000000        2.73031100000000
C           21.94678800000000        0.20996600000000        3.40281700000000
C           22.88127400000000        0.26757900000000        2.47604300000000
N           20.80259900000000       -0.08538400000000        1.44251300000000
C           22.19972200000000        0.08047000000000        1.20091500000000
C           22.79604900000000        0.00000000000000        0.00000000000000
C           22.03831000000000       -0.21005100000000       -1.25471400000000
C           22.58141699999999       -0.62265800000000       -2.39317600000000
C           21.53762000000000       -0.61094400000000       -3.39875600000000
C           20.42544700000000       -0.18782000000000       -2.80935400000000
C           19.13745100000000        0.03517200000000       -3.51552200000000
C           19.15523700000000        0.17111400000000       -4.99251100000000
C           18.51209400000000       -0.77590000000000       -5.80351000000000
C           18.54755500000000       -0.65348000000000       -7.19532100000000
C           19.23387200000000        0.41513600000000       -7.79982300000000
C           19.27492300000000        0.54918000000000       -9.27266000000000
O           19.95892100000000        1.60930100000000       -9.86225000000000
O           18.69179900000000       -0.29358300000000      -10.00724400000000
C           19.88501700000000        1.35596400000000       -6.98328600000000
C           19.84803500000000        1.23269900000000       -5.59147900000000
C           17.97093200000000        0.11842300000000       -2.84738800000000
C           16.65529800000000        0.37065000000000       -3.43302100000000
C           15.79385500000000        0.32144900000000       -2.43562700000000
C           16.55003300000000        0.05158500000000       -1.21401900000000
N           17.82001400000000       -0.06810900000000       -1.44159300000000
N           20.65109900000000        0.08413400000000       -1.42475900000000
C           19.40832600000000       -0.23820500000000        4.92372900000000
C           19.34410300000000       -1.47917900000000        5.57078200000000
C           19.38341900000000       -1.54765000000000        6.96630000000000
C           19.48878600000000       -0.37395700000000        7.73505900000000
C           19.53132700000000       -0.44072600000000        9.21240300000000
O           19.63451100000000        0.72634000000000        9.96510700000000
O           19.47475000000000       -1.55306800000000        9.80343200000000
C           19.55363000000000        0.86781800000000        7.07866200000000
C           19.51359400000000        0.93445800000000        5.68304200000000
H           14.83358100000000       -0.12119500000000        0.13360700000000
H           14.87081800000000       -0.41492100000000        2.74836500000000
H           16.69227300000000       -0.45450500000000        4.54566800000000
H           22.12178400000000        0.30281400000000        4.46649200000000
H           23.93761400000000        0.41279500000000        2.65897900000000
H           23.61482600000000       -0.89775500000000       -2.55604300000000
H           21.65447200000000       -0.87681700000000       -4.44139700000000
H           17.98632300000000       -1.61089900000000       -5.35669400000000
H           18.04025200000000       -1.39696800000000       -7.79730100000000
H           19.99316400000000        1.71046000000000      -10.86964800000000
H           20.42444300000000        2.18771700000000       -7.41853100000000
H           20.35712800000000        1.96700000000000       -4.97907100000000
H           16.40831000000000        0.56465400000000       -4.46846000000000
H           14.72457500000000        0.46456100000000       -2.51992100000000
H           19.26341600000000       -2.39223200000000        4.99362900000000
H           19.33170100000000       -2.51875300000000        7.44250200000000
H           19.66443500000000        0.69188200000000       10.97712700000000
H           19.63543200000000        1.78863200000000        7.64223600000000
H           19.56491100000000        1.89912500000000        5.19305200000000
Fe          29.55758400000000        0.00628500000000       -0.01558900000000
C           32.97560800000000       -0.08972800000000       -0.11655400000000
C           32.31031600000000       -0.05755900000000       -1.27470300000000
C           32.95817900000000       -0.04939500000000       -2.58106100000000
C           32.01605300000000        0.03632900000000       -3.50176100000000
C           30.71301500000000        0.08893300000000       -2.82536000000000
N           30.89249400000000        0.02399500000000       -1.41034200000000
C           29.52385900000000        0.23216600000000       -3.44409700000000
C           28.23237300000000        0.30802600000000       -2.71288900000000
C           26.94564700000000        0.60094900000000       -3.35590600000000
C           26.01116200000000        0.55131000000000       -2.42867100000000
N           28.08983700000000        0.08152400000000       -1.44273600000000
C           26.69271400000000        0.21841300000000       -1.18362500000000
C           26.09638700000000        0.00000000000000        0.00000000000000
C           26.85412500000000       -0.35333300000000        1.22212300000000
C           26.31101800000000       -0.89446500000000        2.30541200000000
C           27.35481600000000       -0.99878400000000        3.30563600000000
C           28.46698800000000       -0.51051800000000        2.76895600000000
C           29.75498500000000       -0.37044200000000        3.49612700000000
C           29.73719900000000       -0.40572100000000        4.97893900000000
C           30.38034200000000       -1.43993600000000        5.67532700000000
C           30.34488100000000       -1.47882400000000        7.07197000000000
C           29.65856400000000       -0.48704300000000        7.79566300000000
C           29.61751200000000       -0.52372800000000        9.27413200000000
O           28.93351400000000        0.46133500000000        9.98203300000000
O           30.20063700000000       -1.44557500000000        9.90663600000000
C           29.00741900000000        0.54166500000000        7.09306100000000
C           29.04440000000000        0.57971400000000        5.69632500000000
C           30.92150300000000       -0.21070400000000        2.84204900000000
C           32.23713700000000       -0.02769000000000        3.45286100000000
C           33.09858100000000        0.03844900000000        2.45644700000000
C           32.34240300000000       -0.08875000000000        1.21186900000000
N           31.07242200000000       -0.23388700000000        1.42412300000000
N           28.24133700000000       -0.08071900000000        1.42495600000000
C           29.48410900000000        0.33114700000000       -4.91835300000000
C           29.54833300000000       -0.82693600000000       -5.70418800000000
C           29.50901700000000       -0.73403100000000       -7.09829200000000
C           29.40365000000000        0.52047900000000       -7.72658300000000
C           29.36110900000000        0.62451000000000       -9.20177100000000
O           29.25792500000000        1.87058700000000       -9.81487800000000
O           29.41768600000000       -0.41225900000000       -9.91712400000000
C           29.33880500000000        1.67828000000000       -6.93137300000000
C           29.37884100000000        1.58354500000000       -5.53737900000000
H           34.05885499999999       -0.10498000000000       -0.14669100000000
H           34.02161800000000       -0.09523500000000       -2.77787700000000
H           32.20016200000000        0.07269400000000       -4.56775500000000
H           26.77065199999999        0.81583200000000       -4.40178000000000
H           24.95482100000000        0.71665200000000       -2.59364200000000
H           25.27760900000000       -1.18650700000000        2.43547100000000
H           27.23796400000000       -1.38311200000000        4.31066300000000
H           30.90611300000000       -2.21784200000000        5.13520600000000
H           30.85218400000000       -2.28676800000000        7.58420200000000
H           28.89927100000000        0.44565500000000       10.99437600000000
H           28.46799300000000        1.31768100000000        7.62131400000000
H           28.53530800000000        1.37973500000000        5.17267600000000
H           32.48412600000000        0.04562300000000        4.50376400000000
H           34.16786000000000        0.17088600000000        2.55668000000000
H           29.62901900000000       -1.80045200000000       -5.23617000000000
H           29.56073500000000       -1.64374500000000       -7.68329700000000
H           29.22800100000000        1.95305600000000      -10.82412100000000
H           29.25700300000000        2.65793900000000       -7.38500800000000
H           29.32752500000000        2.48527500000000       -4.93942000000000
C           23.83525900000000        0.00000000000000        0.00000000000000
C           25.05717700000000        0.00000000000000        0.00000000000000
126
 energy: -237.401512009245 gnorm: 0.402494315740 xtb: 6.5.1 (b24c23e)
Fe          19.33040310553149       -0.00007422354081        0.01484462962987
C           15.91830873276354       -0.10094187395446        0.09304841210744
C           16.58888154751309       -0.20387311196517        1.26037864466752
C           15.93371407661730       -0.34649260816669        2.55242906483539
C           16.88406113974954       -0.36743969337318        3.48388095980877
C           18.17764899000161       -0.23759026383028        2.80936556662443
N           17.99377268985857       -0.13931524099300        1.41166838816632
C           19.38067930190880       -0.16517412702096        3.44581328019829
C           20.64986094945798       -0.00713733396405        2.75111676663414
C           21.93374960653741        0.20786580666133        3.41325375516144
C           22.87505025178550        0.26677886504926        2.46657187406546
N           20.79343223253327       -0.08028593405579        1.44535137708440
C           22.14706552754422        0.08162361097886        1.22543211886344
C           22.65140604722730       -0.00002573552747       -0.01281310552419
C           21.99560347711703       -0.20562887518719       -1.26128320183064
C           22.57858717052311       -0.62507047027153       -2.40786018277959
C           21.55111627401208       -0.61263692104632       -3.40215597629577
C           20.41268477661609       -0.18051803866383       -2.80342350356481
C           19.14607050726864        0.03449722048881       -3.51072965060097
C           19.15918125187771        0.16941803582565       -4.99196469661586
C           18.51322715902242       -0.77237943251493       -5.80647060974979
C           18.54972881328398       -0.64988588891235       -7.19488955897745
C           19.23659507800646        0.41942226970464       -7.80259013166293
C           19.27091517220564        0.54374358599220       -9.28862475326561
O           19.95477579676658        1.60288762819588       -9.85586904720556
O           18.70008163468524       -0.28127466403234       -9.99994953349023
C           19.88406487152580        1.35498056035690       -6.98121103280288
C           19.84774402637003        1.23065955666461       -5.59417501793145
C           17.96998110322607        0.11823335779745       -2.84509078480898
C           16.66151537390931        0.36986614757779       -3.43325175429813
C           15.78750867430381        0.32006281339465       -2.42674287790121
C           16.53831197662887        0.05078592133987       -1.20662673902906
N           17.82493911085711       -0.06211605377754       -1.44493674927056
N           20.63886451962439        0.07679600054744       -1.43000141572520
C           19.41046652465275       -0.23787732078241        4.92613447670278
C           19.34410905723769       -1.47637270935069        5.57518235301406
C           19.38362495119927       -1.54353228350855        6.96694777453385
C           19.48924005593190       -0.36930426280458        7.73854037041564
C           19.53127255881751       -0.44957178492606        9.22722727787391
O           19.63385893384675        0.71973133459254        9.95784920246860
O           19.47564358150698       -1.53739901374415        9.79829334493878
C           19.55346385552344        0.86680395218353        7.07697424593925
C           19.51413612470269        0.93226253336526        5.68624163525589
H           14.83425261885303       -0.12068805168689        0.13080376242475
H           14.87113192944901       -0.41468060303247        2.74356294712643
H           16.69805994978177       -0.45436347788165        4.54578990462951
H           22.11751783354277        0.30233684046938        4.46966591876825
H           23.93425350062484        0.41311542129581        2.65090454106713
H           23.61314564432243       -0.89926237884107       -2.55628554612584
H           21.65723209500293       -0.87785395558777       -4.44177052212405
H           17.98727633818021       -1.60955184658024       -5.35724435541158
H           18.04141732076744       -1.39522841878639       -7.79843816970578
H           19.98704059743672        1.70036785057489      -10.85234302172091
H           20.42385769062032        2.18700651766038       -7.41913301287032
H           20.35647965014096        1.96600813163870       -4.97932696445978
H           16.41363932520117        0.56392357033616       -4.46804489473500
H           14.72276821868332        0.46406217351871       -2.51580074710903
H           19.26366972592594       -2.39064737568289        4.99457722541152
H           19.33193536895309       -2.51688854628152        7.44411121770559
H           19.66324473538081        0.68257241622518       10.95843798779371
H           19.63535922726960        1.78770627643481        7.64291452359963
H           19.56484745234057        1.89784050585777        5.19331724729072
Fe          29.56203278573724        0.00163750760632       -0.01475397890287
C           32.97412652888745       -0.08953943053473       -0.10406743362173
C           32.30355362703371       -0.05717695500671       -1.27547994278187
C           32.95872179278123       -0.04985632344690       -2.57535801467271
C           32.00837402243479        0.03674323833223       -3.50301142782397
C           30.71478682454558        0.08794706168994       -2.81802231847237
N           30.89866315584092        0.02439592117100       -1.41831626721631
C           29.51175655892377        0.23326990923818       -3.44187413730493
C           28.24257425864133        0.31014566489547       -2.73358831934067
C           26.95868556502771        0.60006633848767       -3.36651558942256
C           26.01738545515139        0.54942313139312       -2.41935528826906
N           28.09900375794656        0.08691540288789       -1.44496770044319
C           26.74537042863287        0.22238596699061       -1.20784546288437
C           26.24102988451090       -0.00150305545140        0.01272463039646
C           26.89683168058731       -0.34969788498617        1.22915830150693
C           26.31384794621120       -0.89855463372030        2.31972014252492
C           27.34131962310550       -1.00085766258339        3.30881786633225
C           28.47975039359185       -0.50258083028515        2.76390704183529
C           29.74636535373391       -0.37055979086955        3.49128884398832
C           29.73325473981340       -0.40734276256871        4.97820085748471
C           30.37920882492286       -1.43678021786063        5.67867368029358
C           30.34270722997287       -1.47520426262116        7.07195585882772
C           29.65584085118504       -0.48310437746685        7.79890602168772
C           29.62151998375826       -0.53096905708499        9.28936345909353
O           28.93765921500759        0.45570014268583        9.97495509922317
O           30.19235425269618       -1.43250755350360        9.90080943746551
C           29.00837102366718        0.54092747656506        7.09088662290248
C           29.04469114132780        0.57737726347910        5.69876777539593
C           30.92245408573301       -0.21062744460147        2.83974533100744
C           32.23091980737841       -0.02849513932532        3.45299977179790
C           33.10492703917679        0.03809640178625        2.44746230510758
C           32.35412392965841       -0.08869129727848        1.20443397021706
N           31.06749679174573       -0.22831964181082        1.42813536950962
N           28.25357147255478       -0.08861256238985        1.42931731351976
C           29.48196859450404        0.33174978017003       -4.92070443619227
C           29.54832686870673       -0.82364126842717       -5.70823526229124
C           29.50881105325664       -0.72986622174847       -7.09846075703103
C           29.40319589385135        0.52550217386305       -7.72950462598070
C           29.36116344253420        0.61743272893785       -9.21751651430045
O           29.25857706532010        1.86318546169487       -9.80843071692459
O           29.41679241917078       -0.39728710121374       -9.91021276351913
C           29.33897116971824        1.67707834061519       -6.92981367407739
C           29.37829891237334        1.58173311573195       -5.54081039873076
H           34.05818320155633       -0.10479969614311       -0.14384802082246
H           34.02130401888743       -0.09554992699904       -2.77307926254337
H           32.19437508086002        0.07284866721773       -4.56785988024929
H           26.77491815752895        0.81572397585054       -4.40498766577262
H           24.95818166596421        0.71603917819851       -2.58558439451314
H           25.27928938305714       -1.18803229592284        2.43553812918344
H           27.23520385658932       -1.38418513898486        4.31091455430636
H           30.90515962763607       -2.21656722500523        5.13590805788663
H           30.85101866735677       -2.28517112304172        7.58553212655302
H           28.90539440548049        0.43762561977818       10.97602268192701
H           28.46857831118167        1.31690581849426        7.62183005314120
H           28.53595629719067        1.37872024747085        5.17281581506384
H           32.47879662331683        0.04494527219252        4.50326732168559
H           34.16966698112891        0.17086564424795        2.55252979905791
H           29.62876529438338       -1.79876836828064       -5.23692927392227
H           29.56050064378384       -1.64170737757752       -7.68468047271276
H           29.22919126703992        1.94165345483046      -10.80663007117512
H           29.25707578124842        2.65709752390815       -7.38578867027536
H           29.32758849994709        2.48402976133584       -4.93983155931550
C           23.89215217130547       -0.00057675248799       -0.00639391086163
C           25.00028378044226       -0.00131019697127        0.00628473623091
126
 energy: -237.512321127442 gnorm: 0.251704572618 xtb: 6.5.1 (b24c23e)
Fe          19.31237757850683       -0.01270523258828        0.01349557547545
C           15.92167060131447       -0.09841091347946        0.07747861199451
C           16.59597054148948       -0.20312199651922        1.25789600352870
C           15.93793024563501       -0.34608633761735        2.54254494479654
C           16.89558696887318       -0.36729003952633        3.48158327914237
C           18.17715860270280       -0.23817304898863        2.80426587565952
N           17.98318466997613       -0.13953899260569        1.42455170102649
C           19.38695303252193       -0.16417785999641        3.45163822489490
C           20.62587847086645       -0.00585902310077        2.78549942257025
C           21.91081410463575        0.20284736538482        3.42891112828456
C           22.84599842965002        0.26569700701654        2.45909108830720
N           20.75712435445149       -0.06464056827610        1.46310321285937
C           22.08544227106086        0.08721834895554        1.23928429695589
C           22.55097943032523       -0.00323432580747       -0.02670133904594
C           21.93968879671329       -0.20254025808710       -1.26657521829955
C           22.56328604581899       -0.62215104507464       -2.42734671054501
C           21.56343042492905       -0.60785621563981       -3.40885090796718
C           20.39605851746246       -0.17285718694868       -2.80552025805847
C           19.15624108202736        0.03467763686136       -3.50577364998182
C           19.16970677474130        0.16454299441404       -4.99073785840692
C           18.51667910155331       -0.76550977256422       -5.81127550902080
C           18.55439062600945       -0.64095089484898       -7.19651638123700
C           19.24095224267824        0.42627914773016       -7.80596479486607
C           19.26654724687026        0.53730871836148       -9.30046520295823
O           19.94954236921418        1.59387522723667       -9.83177892423055
O           18.70764323054104       -0.26960841458526      -10.00066516499609
C           19.88361950579250        1.35519899788617       -6.98003232689233
C           19.85020478100638        1.22642980364429       -5.59698503777322
C           17.96973534450252        0.12083739725183       -2.83879222299965
C           16.66805829285237        0.36738232779277       -3.42575852922510
C           15.78034653563192        0.31610371789473       -2.41473039699556
C           16.52458398812860        0.05131232894795       -1.19854897645672
N           17.82815615882896       -0.04693527487794       -1.44777819294615
N           20.60402489655037        0.05325304971150       -1.44291850871852
C           19.41251047395484       -0.23678971910663        4.93365480552996
C           19.34407540718783       -1.47087165832989        5.58508558597940
C           19.38390648109066       -1.53473199763009        6.97290417220961
C           19.48987054695798       -0.36183778161673        7.74431339927703
C           19.53106233651162       -0.45896084958428        9.23853250740504
O           19.63262849113336        0.71280834272464        9.93294447828598
O           19.47657340581381       -1.52383573993973        9.80144491944655
C           19.55352043373069        0.86738819737968        7.07868954949430
C           19.51582661555467        0.93028372426507        5.69242243083908
H           14.83727218047921       -0.11850288529949        0.12218337189486
H           14.87449348766765       -0.41393960042799        2.72823915446364
H           16.71574938232077       -0.45399749083051        4.54418297321255
H           22.10477886801842        0.30014068086873        4.48149546464508
H           23.91094143052343        0.41331982065099        2.62692964264154
H           23.60055877859932       -0.90199798919721       -2.55587688676096
H           21.66496131590878       -0.87979455625443       -4.44517152349620
H           17.99090372854598       -1.60400744171108       -5.36098700320884
H           18.04643049694435       -1.38723419833408       -7.80203018909127
H           19.97089049671045        1.67396943768835      -10.81402082728398
H           20.42271577480476        2.18643702228685       -7.42053976573585
H           20.35537023046677        1.96307438755720       -4.98018242222555
H           16.42915681173375        0.56096661924643       -4.46305782912002
H           14.71703782756070        0.46178599702930       -2.50399002565915
H           19.26442568007201       -2.38457910608190        5.00057897234948
H           19.33267616522825       -2.50891977156790        7.45087156670146
H           19.66015379043655        0.65725305121203       10.91658460760772
H           19.63511484138300        1.78703337564380        7.64605023297469
H           19.56480767560830        1.89423857915364        5.19502932061550
Fe          29.58005815876064       -0.01106206212966       -0.01487020588322
C           32.97076486640439       -0.08882081877765       -0.08830975794220
C           32.29646474103943       -0.05671708813277       -1.27292731141975
C           32.95450541179910       -0.05059265810999       -2.56549265606023
C           31.99684828367467        0.03662685346914       -3.50071167437182
C           30.71527692341606        0.08678008873448       -2.81302373503514
N           30.90925077127086        0.02565923218275       -1.43113916431499
C           29.50548265793638        0.23493118277425       -3.44754526483175
C           28.26655699361907        0.31538018821788       -2.76759404730315
C           26.98162125607540        0.59688692114897       -3.38264734535054
C           26.04643718054518        0.54748598969854       -2.41204921620416
N           28.13531173668713        0.10450348831195       -1.46079711606241
C           26.80699366766238        0.22954011574991       -1.22096016497416
C           26.34145639109657       -0.00629338966153        0.02614982329778
C           26.95274665575801       -0.34724037215477        1.23477112665003
C           26.32914934963317       -0.89790168079866        2.33941340835016
C           27.32900551799133       -0.99688080491811        3.31601911140648
C           28.49637687411744       -0.49521270882589        2.76687313058705
C           29.73619472665449       -0.36980934067443        3.48638671299150
C           29.72272916006754       -0.41204397119301        4.97642012425775
C           30.37575686864099       -1.43051035916052        5.68423855530525
C           30.33804537707095       -1.46651662480803        7.07460208069681
C           29.65148358733486       -0.47668239555702        7.80304895225314
C           29.62588815723066       -0.53872624990666        9.30038300101253
O           28.94289267110110        0.44952561462117        9.94998647422037
O           30.18479252317719       -1.42100161426034        9.90286557003440
C           29.00881625785161        0.54128046682973        7.08974112872288
C           29.04223068884334        0.57285176046820        5.70107124857058
C           30.92269999365401       -0.20731449342701        2.83378920278409
C           32.22437707216781       -0.03009819398731        3.44527003932118
C           33.11208898138798        0.03554860870052        2.43507330503948
C           32.36785171511004       -0.08723749992057        1.19647079398621
N           31.06427950415522       -0.21356787748726        1.43270818623938
N           28.28841101157294       -0.11348712323138        1.43943361079013
C           29.47992484225968        0.33369717908447       -4.92804894768540
C           29.54836032641020       -0.81703518212951       -5.71743799245993
C           29.50852947485339       -0.72043797607885       -7.10336275777681
C           29.40256530213967        0.53358455385646       -7.73437816955746
C           29.36137365730044        0.60941003428737       -9.22982911777708
O           29.25980750953932        1.85343677874477       -9.78449046388718
O           29.41586259598241       -0.38345092851932       -9.91177924849548
C           29.33891470156447        1.67785666553130       -6.93145036922530
C           29.37660856198135        1.58048017146868       -5.54717807093753
H           34.05516345970683       -0.10362325380057       -0.13503322106513
H           34.01794226486611       -0.09658088191198       -2.75777216754021
H           32.17668571683313        0.07302699071176       -4.56622153844732
H           26.78765708067778        0.81490647125205       -4.41699141938761
H           24.98149396685284        0.71347759536619       -2.56174577173726
H           25.29187646863365       -1.19070258677085        2.43481678249359
H           27.22747460056739       -1.38650494708999        4.31406909785881
H           30.90153219324422       -2.21149126353470        5.14026509931734
H           30.84600549476077       -2.27764444263123        7.59002188819397
H           28.92154451489579        0.41582222149671       10.93491205023646
H           28.46972016339008        1.31617792989402        7.62316175915389
H           28.53706564029292        1.37570736900620        5.17332712373161
H           32.46327903983125        0.04258301233806        4.49797238328446
H           34.17539758148465        0.16996654162695        2.54053552277203
H           29.62800942674168       -1.79204825855713       -5.24219134840348
H           29.55975988619305       -1.63301222450195       -7.69047686374707
H           29.23228222293343        1.91167676796826      -10.76797536921145
H           29.25732017553226        2.65679052146968       -7.38898098481406
H           29.32762814349567        2.48064942081502       -4.94194752832382
C           23.83743641312001       -0.00201394989412       -0.01734878181025
C           25.05499942159728       -0.00400163103497        0.01700056161745
126
 energy: -237.564704031538 gnorm: 0.123157542014 xtb: 6.5.1 (b24c23e)
Fe          19.28709688382443       -0.02488614648215        0.01126479965144
C           15.92585179593717       -0.09423210769955        0.06457518040378