201
 energy: -401.927842465719 gnorm: 1.546891013007 xtb: 6.5.1 (b24c23e)
Cu          27.26844200000000       -0.04764100000000       -0.01838700000000
C           23.93530300000000        0.10337100000000        0.08802300000000
C           24.60211500000000        1.26031600000000        0.06662300000000
C           23.95374400000000        2.56593500000000        0.06541900000000
C           24.89738400000000        3.48800500000000        0.05745800000000
C           26.20253100000000        2.81295500000000        0.05539000000000
N           26.02254900000000        1.39673000000000        0.06042500000000
C           27.39648100000000        3.43784700000000        0.08530700000000
C           27.43400500000000        4.91655000000000        0.09282200000000
C           27.22466600000000        5.63182500000000       -1.09415200000000
C           27.24632000000000        7.03016400000000       -1.09121500000000
O           27.03204300000000        7.71134200000000       -2.28960300000000
C           27.47938400000000        7.72582300000000        0.10893700000000
O           27.49501200000000        9.12135600000000        0.10487100000000
C           27.69315900000000        7.00980900000000        1.30102900000000
O           27.92600500000000        7.69250700000000        2.49367000000000
C           27.67068300000000        5.60857900000000        1.28763600000000
C           28.69468800000000        2.71374200000000        0.12366200000000
C           29.99396200000000        3.38326800000000        0.25508600000000
C           30.92828700000000        2.45609800000000        0.24043200000000
N           28.82931200000000        1.42596700000000        0.02307700000000
C           30.23518300000000        1.18219600000000        0.08890400000000
C           30.83039200000000       -0.01851200000000       -0.01949200000000
C           30.07743200000000       -1.28404300000000       -0.19964300000000
C           30.64272200000000       -2.44598500000000       -0.50477100000000
C           29.59522600000000       -3.44504500000000       -0.53496900000000
C           28.45353600000000       -2.83087700000000       -0.24891200000000
N           28.66728700000000       -1.43416000000000       -0.02262300000000
C           27.14442600000000       -3.52459200000000       -0.13044300000000
C           27.12561000000000       -5.00337300000000       -0.14904900000000
C           27.27224000000000       -5.72137500000000        1.04435900000000
C           27.25095600000000       -7.11983700000000        1.03550100000000
O           27.39268400000000       -7.80512100000000        2.24223300000000
C           27.08762900000000       -7.81180300000000       -0.17848300000000
O           27.07079800000000       -9.20723700000000       -0.17950000000000
C           26.94572500000000       -7.09202200000000       -1.37902800000000
O           26.78828500000000       -7.77142600000000       -2.58623700000000
C           26.96389700000000       -5.69071000000000       -1.35901400000000
C           25.98175200000000       -2.85941600000000       -0.00834900000000
C           24.65782200000000       -3.46758700000000        0.11036600000000
C           23.79881100000000       -2.46894400000000        0.16210100000000
C           24.56492200000000       -1.22631300000000        0.08210800000000
N           25.83965500000000       -1.44106500000000       -0.01833600000000
H           22.85241900000000        0.13615500000000        0.11264300000000
H           22.88911700000000        2.76169500000000        0.07453200000000
H           24.71370400000000        4.55465500000000        0.06401600000000
H           27.04093400000000        5.10150300000000       -2.02084400000000
H           27.03701700000000        8.72278100000000       -2.34257800000000
H           27.64538600000000        9.66161100000000        0.94787800000000
H           28.08231800000000        7.20018200000000        3.36559100000000
H           27.83340900000000        5.05798000000000        2.20629500000000
H           30.17752800000000        4.44582700000000        0.34500000000000
H           31.99207600000000        2.63927400000000        0.31518700000000
H           31.69237400000000       -2.63089300000000       -0.68674400000000
H           29.73011900000000       -4.49981000000000       -0.73791200000000
H           27.39941500000000       -5.19362000000000        1.98180800000000
H           27.37436800000000       -8.81618800000000        2.29260000000000
H           26.95690500000000       -9.74535500000000       -1.02992700000000
H           26.68844600000000       -7.27712600000000       -3.46565500000000
H           26.85355800000000       -5.13722700000000       -2.28405800000000
H           24.40593000000000       -4.51974600000000        0.14486000000000
H           22.72381300000000       -2.56674700000000        0.24554600000000
Cu          66.19040099999999        0.01030400000000       -0.01509200000000
C           69.52354099999999       -0.15179600000000        0.07351500000000
C           68.85672900000000       -1.29886000000000       -0.07888100000000
C           69.50510000000000       -2.59592800000000       -0.22806400000000
C           68.56145900000000       -3.51115400000000       -0.34048600000000
C           67.25631300000001       -2.84022000000000       -0.26602700000000
N           67.43629500000000       -1.43369200000000       -0.10050100000000
C           66.06236300000000       -3.46447500000000       -0.30713100000000
C           66.02483800000000       -4.93450100000000       -0.46726900000000
C           66.23417800000000       -5.51062800000000       -1.72766700000000
C           66.21252400000000       -6.90028900000000       -1.88324400000000
O           66.42680000000000       -7.44124500000000       -3.15111800000000
C           65.97945900000001       -7.72749600000000       -0.76967700000000
O           65.96383100000000       -9.11357500000000       -0.93189400000000
C           65.76568399999999       -7.15121600000000        0.49589000000000
O           65.53283900000000       -7.96469500000000        1.60346400000000
C           65.78816100000000       -5.75749700000000        0.64140600000000
C           64.76415500000000       -2.74938400000000       -0.18694900000000
C           63.46488200000000       -3.42949200000000       -0.13226000000000
C           62.53055600000000       -2.50663600000000       -0.04172900000000
N           64.62953200000000       -1.45850800000000       -0.14092300000000
C           63.22366099999999       -1.22376900000000       -0.04789000000000
C           62.62845200000000       -0.01851200000000       -0.01949200000000
C           63.38141100000000        1.25928300000000       -0.05504000000000
C           62.81612199999999        2.44832100000000       -0.22650100000000
C           63.86361800000000        3.44436600000000       -0.14326500000000
C           65.00530700000000        2.80173300000000        0.07133500000000
N           64.79155600000000        1.38836700000000        0.13785400000000
C           66.31441800000000        3.47754900000000        0.26767000000000
C           66.33323400000000        4.94890900000000        0.41679700000000
C           66.18660400000000        5.52701700000000        1.68389700000000
C           66.20788800000000        6.91747000000000        1.83360600000000
O           66.06615900000000        7.46156100000000        3.11023500000000
C           66.37121500000001        7.74257700000000        0.70587600000000
O           66.38804500000001        9.12913400000000        0.86303300000000
C           66.51311900000000        7.16351100000000       -0.56851600000000
O           66.67055900000000        7.97536800000000       -1.69093800000000
C           66.49494600000000        5.76896100000000       -0.70746300000000
C           67.47709200000000        2.80282100000000        0.31358300000000
C           68.80102200000000        3.39361700000000        0.50046700000000
C           69.66003200000000        2.39554600000000        0.43867700000000
C           68.89392200000000        1.16998900000000        0.21835200000000
N           67.61918900000001        1.39474300000000        0.14289600000000
H           70.60642400000000       -0.18716000000000        0.09426100000000
H           70.56972700000000       -2.79145900000000       -0.24119800000000
H           68.74514000000001       -4.57167300000000       -0.45487100000000
H           66.41790899999999       -4.87868700000000       -2.58827700000000
H           66.42182699999999       -8.44016200000000       -3.31839300000000
H           65.81345700000000       -9.74590000000000       -0.15555500000000
H           65.37652600000000       -7.57437100000000        2.52556900000000
H           65.62543500000000       -5.31457200000000        1.61655400000000
H           63.28131499999999       -4.49539500000000       -0.16336200000000
H           61.46676800000000       -2.69710500000000        0.01178200000000
H           61.76646999999999        2.65266400000000       -0.38634200000000
H           63.72872400000000        4.51533700000000       -0.22534700000000
H           66.05942899999999        4.89640700000000        2.55548600000000
H           66.08447600000000        8.46040300000000        3.27487800000000
H           66.50193800000000        9.76017500000000        0.07907900000000
H           66.77039700000000        7.58393200000000       -2.62071500000000
H           66.60528600000001        5.32389500000000       -1.68928100000000
H           69.05291400000000        4.43508600000000        0.65399500000000
H           70.73503100000001        2.48326000000000        0.53267000000000
C           33.18140400000000       -0.00382200000000       -0.00921700000000
C           34.63963000000000       -0.02565800000000       -0.02709000000000
C           35.77355799999999       -0.04641200000000       -0.02858100000000
C           37.13493999999999       -0.05900200000000       -0.03077200000000
C           38.40915900000000       -0.04869500000000       -0.03553700000000
C           39.59762099999999       -0.02989700000000       -0.04169300000000
C           40.94998200000000       -0.00511300000000       -0.02582500000000
C           42.05024900000000       -0.00382200000000       -0.00921700000000
C           51.28455799999999       -0.00382200000000       -0.00921700000000
C           52.74278400000000       -0.02565800000000       -0.02709000000000
C           53.87671199999999       -0.04641200000000       -0.02858100000000
C           55.23809399999999       -0.05900200000000       -0.03077200000000
C           56.51231299999999       -0.04869500000000       -0.03553700000000
C           57.70077499999999       -0.02989700000000       -0.04169300000000
C           59.05313600000000       -0.00511300000000       -0.02582500000000
C           60.15340300000000       -0.00382200000000       -0.00921700000000
Cu          46.68801600000000       -0.04623900000000       -0.05468600000000
C           43.27838500000000        0.03863400000000        0.04204100000000
C           43.93485199999999        1.20727100000000        0.16161200000000
C           43.29326300000000        2.50632700000000        0.37404300000000
C           44.23132199999999        3.43273900000000        0.39629300000000
C           45.53013500000000        2.78124700000000        0.19899400000000
N           45.35220300000000        1.36963800000000        0.05757500000000
C           46.71508900000000        3.42547000000000        0.14695700000000
C           46.74480899999999        4.90113400000000        0.25023000000000
C           47.20730499999999        5.51409000000000        1.42366000000000
C           47.24994000000000        6.91124400000000        1.52245000000000
O           47.70287800000000        7.52182400000000        2.69237500000000
C           46.83493500000000        7.70208100000000        0.44160700000000
O           46.88745500000000        9.09147300000000        0.55736600000000
C           46.37255000000000        7.09108800000000       -0.73948800000000
O           45.96108799999999        7.87412300000000       -1.81692000000000
C           46.32843900000000        5.69298700000000       -0.82980100000000
C           48.01614800000000        2.72703100000000       -0.00628400000000
C           49.28952700000000        3.41874300000000       -0.24134800000000
C           50.24330300000000        2.50992400000000       -0.27082800000000
N           48.18226800000000        1.44517000000000        0.09960500000000
C           49.58465799999999        1.22762900000000       -0.05892800000000
C           50.19970500000000        0.03863400000000        0.04204100000000
C           49.45075599999999       -1.22020700000000        0.24043000000000
C           49.98893600000000       -2.35177800000000        0.67680200000000
C           48.95647499999999       -3.36873400000000        0.61768100000000
C           47.85823200000000       -2.78894900000000        0.14698300000000
N           48.07991400000000       -1.40370400000000       -0.11262900000000
C           46.59953399999999       -3.50737300000000       -0.16523500000000
C           46.66146100000000       -4.97224700000000       -0.38817200000000
C           47.39623700000000       -5.48630900000000       -1.46351900000000
C           47.46760999999999       -6.86497700000000       -1.67891600000000
O           48.19884999999999       -7.33513000000000       -2.77039600000000
C           46.80890100000000       -7.75369600000000       -0.80706800000000
O           46.90316100000000       -9.12474500000000       -1.06040100000000
C           46.07671999999999       -7.23723000000000        0.29059100000000
O           45.40498099999999       -8.05452300000000        1.20319700000000
C           46.01263299999999       -5.85330100000000        0.48803900000000
C           45.42322100000000       -2.85890400000000       -0.26883900000000
C           44.14179900000000       -3.46080800000000       -0.62254000000000
C           43.25254000000000       -2.49049000000000       -0.56455000000000
C           43.95461099999999       -1.26124100000000       -0.17958700000000
N           45.22372299999999       -1.46922900000000       -0.00714300000000
H           42.23686100000000        2.70499400000000        0.49895600000000
H           44.04646100000000        4.48868300000000        0.54422100000000
H           47.53254700000000        4.90644800000000        2.26001700000000
H           47.99363500000000        6.97737000000000        3.50057800000000
H           46.59484499999999        9.70646300000000       -0.19582500000000
H           45.60124800000000        7.45990300000000       -2.66924500000000
H           45.97471800000000        5.22302300000000       -1.74118000000000
H           49.44102399999999        4.48296400000000       -0.36696600000000
H           51.29670000000000        2.70793000000000       -0.42044600000000
H           51.01399300000000       -2.50316900000000        0.98942700000000
H           49.07376599999999       -4.41358200000000        0.87460400000000
H           47.90954300000000       -4.81374300000000       -2.14141800000000
H           48.28180700000000       -8.32276800000000       -2.98109600000000
H           46.45310200000000       -9.83824500000000       -0.50329900000000
H           45.39606400000000       -9.06299800000000        1.16050900000000
H           45.45635899999999       -5.46249800000000        1.33223200000000
H           43.93458900000000       -4.48861300000000       -0.88928900000000
H           42.19763900000000       -2.60469700000000       -0.77801300000000
201
 energy: -402.413294096185 gnorm: 0.598714515022 xtb: 6.5.1 (b24c23e)
Cu          27.27505622420522       -0.04456295738140       -0.01708164690411
C           23.93603563958572        0.08940562822379        0.08814879744096
C           24.60776622529696        1.26224128097345        0.06635816554701
C           23.95265886586612        2.56085952062292        0.06554466700205
C           24.90476942892995        3.49018963690597        0.05743159706204
C           26.20073806389680        2.80756071353945        0.05491302531491
N           26.00714074718010        1.41127627152228        0.06038837575521
C           27.40909536699028        3.43470720384006        0.08536981176116
C           27.43627551947119        4.92083785927258        0.09197654825119
C           27.22448494261596        5.63723010746445       -1.09294581622568
C           27.24639997796013        7.03974333832003       -1.09071679803137
O           27.03250664336366        7.71103964306817       -2.28661819342529
C           27.48090881488691        7.73228394967821        0.11705514235782
O           27.49473857658010        9.12294328824164        0.10384270573940
C           27.69429101594733        7.00770807478254        1.30686458216981
O           27.92582618731059        7.69378885990456        2.49348156890968
C           27.67108328904060        5.61012720651268        1.28619057371946
C           28.68896325368659        2.72680193429793        0.12396300123664
C           29.98412359085509        3.39110912624354        0.25486336544519
C           30.92913762652809        2.45035328516501        0.24004464873268
N           28.83933829173867        1.42316727401203        0.02352052232412
C           30.24382603578095        1.17922296628753        0.08906497938339
C           30.83309646364734       -0.03030459161551       -0.02215409095068
C           30.07638570243464       -1.27045418276878       -0.19469998675295
C           30.64476668501845       -2.46439142269134       -0.50780558056171
C           29.61331064798690       -3.44658436213242       -0.53695158183413
C           28.44293502809167       -2.82074303372239       -0.24396188513002
N           28.67408341938248       -1.43892758453181       -0.02454053226853
C           27.15620313827563       -3.51735819898145       -0.13054064441998
C           27.12973685192621       -5.00621024625341       -0.14884321917348
C           27.27221844306175       -5.72653202512547        1.04325676967713
C           27.25054248505404       -7.12934817660664        1.03495955355494
O           27.39209999001364       -7.80466249219164        2.23913931951648
C           27.08666986044244       -7.81819434339948       -0.18670798368527
O           27.07077470079322       -9.20877863916438       -0.17846911810892
C           26.94506121586448       -7.08970665948496       -1.38483746097642
O           26.78813987082615       -7.77249686520462       -2.58588105841305
C           26.96423633822606       -5.69166790321903       -1.35754939395332
C           25.98058424554547       -2.85805007107513       -0.00788639408276
C           24.66433794074404       -3.46801581621779        0.10967275996889
C           23.79178807744761       -2.45980612602203        0.16246064834705
C           24.54918494779515       -1.21860870672319        0.08245425449592
N           25.83897376579390       -1.45037284359274       -0.01813801727289
H           22.85285045381780        0.13300600742286        0.11283913159573
H           22.88914909811195        2.75701198148795        0.07449917417019
H           24.71941543516553        4.55511988421619        0.06380006444118
H           27.04129671280524        5.10340788400717       -2.01994217844945
H           27.03902026843761        8.70757460926916       -2.33095853654328
H           27.64403386597129        9.64417798938669        0.94036796210640
H           28.07889307169822        7.20078875598877        3.34702602609537
H           27.83330041124269        5.05847273673676        2.20570353717571
H           30.17274599954050        4.44838968576925        0.34495620321673
H           31.99187480074671        2.63332958518221        0.31478259257267
H           31.69327023728429       -2.63367606618239       -0.68733674988153
H           29.73304355127468       -4.49977847626746       -0.73863547943886
H           27.39937924908575       -5.19557020112681        1.98097113737748
H           27.37336404298846       -8.80097827830672        2.28091295833268
H           26.95813700113472       -9.72787841022362       -1.02228118950562
H           26.69078727829219       -7.27777562671222       -3.44681986030142
H           26.85369539298193       -5.13765605130167       -2.28338349012904
H           24.41147478522475       -4.51929267089827        0.14453457426357
H           22.72189692813666       -2.56265417890394        0.24570920655072
Cu          66.18359714083478        0.00706730633962       -0.01414053552414
C           69.52285087297579       -0.13790492332377        0.07523013721255
C           68.85107119678172       -1.30067054092241       -0.07937628933420
C           69.50613735124351       -2.59082925136861       -0.22736303439120
C           68.55400710500764       -3.51327418589362       -0.34076784957440
C           67.25799904360720       -2.83488024129532       -0.26592567380928
N           67.45152878447519       -1.44781338880196       -0.10202624573090
C           66.04990902139798       -3.46145453618241       -0.30672208184188
C           66.02260476772932       -4.93868311185034       -0.46859301915556
C           66.23435855297063       -5.51614175608395       -1.72707942719526
C           66.21243902408949       -6.90985543718394       -1.88382941299462
O           66.42634026054138       -7.44129326641185       -3.14813057481816
C           65.97793385069861       -7.73481503943022       -0.76234328941882
O           65.96410221308845       -9.11506868212776       -0.93310091223956
C           65.76455063630306       -7.14977835782492        0.50191223993260
O           65.53301060068036       -7.96597288490400        1.60315216474339
C           65.78776609898364       -5.75887739674715        0.63979128021982
C           64.76994641170897       -2.76241334882711       -0.18814171263761
C           63.47481836917527       -3.43717600370466       -0.13339157774522
C           62.52986427434771       -2.50056934896306       -0.04144585304246
N           64.62020752583793       -1.45599462630572       -0.14021735045616
C           63.21576263903886       -1.22047244312568       -0.04733168967068
C           62.62803637715778       -0.00619290010969       -0.02044177150116
C           63.38337068158655        1.24496052142721       -0.05169313657227
C           62.81432901854036        2.46667798817386       -0.22735644885022
C           63.84563519890789        3.44610142420762       -0.14504928043780
C           65.01612181728534        2.79126957325398        0.07508243782489
N           64.78542310781724        1.39342675566361        0.13638587185697
C           66.30262390002507        3.47045377605002        0.26675936714833
C           66.32912934272642        4.95172917621833        0.41732697303248
C           66.18662899270700        5.53227171871120        1.68338830674774
C           66.20829494683278        6.92698610704750        1.83414730618273
O           66.06675479205504        7.46145250490212        3.10711132008573
C           66.37216961049371        7.74986675611909        0.69842806848874
O           66.38808322131740        9.13053857579352        0.86423144068977
C           66.51377665098860        7.16187330419908       -0.57455131531325
O           66.67071581921704        7.97638929657969       -1.69046275460938
C           66.49461189121314        5.76975295145474       -0.70590012948645
C           67.47820254434605        2.80139011242394        0.31388991667053
C           68.79440936808467        3.39406183767505        0.49982751112602
C           69.66700337565585        2.38632651209669        0.43796565044765
C           68.90968260944983        1.16219443165794        0.21781448171935
N           67.61960280060532        1.40372663101684        0.14410483595932
H           70.60600311251143       -0.18405096444659        0.09481711565096
H           70.56967428824736       -2.78678352577842       -0.24069947911374
H           68.73941546721713       -4.57208956040879       -0.45513830049699
H           66.41754661729361       -4.88068330849056       -2.58759453682481
H           66.41982362684713       -8.42637003909916       -3.30512434767318
H           65.81481194762117       -9.72772255751535       -0.16103698660832
H           65.37995415691474       -7.57285872351920        2.50705117256531
H           65.62554386294268       -5.31499638107843        1.61590865627640
H           63.28612926687172       -4.49791877461200       -0.16369339855370
H           61.46714595457599       -2.69127222823364        0.01205910963296
H           61.76573160748448        2.65545263823508       -0.38659354414902
H           63.72581353711124        4.51538349722685       -0.22605487304071
H           66.05946401276645        4.89843940750316        2.55487466690896
H           66.08547040731885        8.44661863995638        3.26154035108921
H           66.50069531501001        9.74194786750180        0.08469638351495
H           66.76804842601079        7.58244448018756       -2.60192792364705
H           66.60514814807321        5.32424474394247       -1.68856251664327
H           69.04734597994909        4.43464477542113        0.65361369241104
H           70.73692205433700        2.47915146246341        0.53236571484576
C           33.19429513647316       -0.00412226671145       -0.00909088896214
C           34.54868116663305       -0.02598334934417       -0.02724855387281
C           35.81361022871883       -0.04684663046268       -0.02850113240865
C           37.10138299032446       -0.05870574341712       -0.03061466615046
C           38.38112340565631       -0.04904728962202       -0.03579167873309
C           39.59392884327064       -0.02984512507458       -0.04235623915239
C           40.87816456516998       -0.00573252962211       -0.02632021377811
C           42.06466957521876       -0.00795471457178       -0.01019512207643
C           51.39828244582444       -0.01746424353557       -0.01263426412839
C           52.69536639855331       -0.02599167798432       -0.02727146278310
C           53.92994151727604       -0.04738212358671       -0.02906644060867
C           55.21702839255333       -0.05924492806541       -0.03089973479509
C           56.49363653272273       -0.04891907204204       -0.03529298886890
C           57.71163474799093       -0.02957945068942       -0.04188595909811
C           59.03422599229953       -0.00517077291982       -0.02686979400299
C           60.24745882008999       -0.00325198150638       -0.00833685980847
Cu          46.68991979232473       -0.04282195944970       -0.05083490186693
C           43.33958785747812        0.02616088571315        0.03936178517942
C           43.96142266067397        1.22069118316738        0.16437078040477
C           43.29338105688242        2.49813913379983        0.37337990978893
C           44.24022744633863        3.43546267305071        0.39613390270199
C           45.52827609938593        2.77815737284829        0.19945791661001
N           45.34266220529086        1.38661203941055        0.05676504715792
C           46.72737173986576        3.42439745476425        0.14524764739360
C           46.74735098674536        4.90457497574611        0.24968585144765
C           47.20740139535267        5.51686657912202        1.42155619004789
C           47.25136059162914        6.91211760377646        1.52688268060550
O           47.70224940709144        7.52031409183271        2.69130702854598
C           46.83328338200895        7.71028032467876        0.43748945122026
O           46.88694993727193        9.09199929466656        0.55620228263385
C           46.37057008831151        7.08947979502040       -0.74381301303298
O           45.96123857925154        7.87510636156864       -1.81590509049769
C           46.32847726070852        5.69429152338981       -0.82790838357096
C           48.00854178907019        2.74785174669666       -0.00549326574649
C           49.27525564461459        3.42938510685573       -0.23897266921307
C           50.23934556593830        2.50131558377598       -0.27007768396735
N           48.18582574683654        1.44572505314020        0.09724180238062
C           49.55458557358003        1.25009920511912       -0.06098981196818
C           50.13699875913102        0.02920698630763        0.04532253915305
C           49.42247072169044       -1.22337257883196        0.23766328599650
C           49.98740188382154       -2.36898972039118        0.68001801229959
C           48.97195138338854       -3.37201286132030        0.62021694335967
C           47.84827520834314       -2.78409530504963        0.13891204394944
N           48.07916755148141       -1.41185817228407       -0.11041283829090
C           46.60942915415984       -3.50361158379510       -0.16456624029100
C           46.66537705993755       -4.97520663258095       -0.38649041612510
C           47.39702514529975       -5.49129784946406       -1.46329172818749
C           47.46810172569629       -6.87402785782924       -1.68097065539080
O           48.19717393397039       -7.33542122613385       -2.76820694599018
C           46.80574070479348       -7.75990522870111       -0.80343511172122
O           46.90362012785546       -9.12702350248372       -1.06119206774597
C           46.07669798296978       -7.24358024639628        0.29021214911980
O           45.40601749913326       -8.05476709202288        1.20150701214978
C           46.01239040179390       -5.85689904378925        0.48649368369429
C           45.42306239253942       -2.86039797521275       -0.26964527185112
C           44.14840029692912       -3.46149623650295       -0.62138562624395
C           43.24644040215195       -2.47997676530724       -0.56322633721475