160
 energy: -297.411618438692 gnorm: 1.365124471315 xtb: 6.5.1 (b24c23e)
Cu          18.96910900000000        0.02791500000000        0.02943100000000
C           15.59545200000000       -0.08171700000000       -0.08062100000000
C           16.26835800000000       -0.89650000000000       -0.89907300000000
C           15.63965700000000       -1.82692400000000       -1.83360000000000
C           16.60048000000000       -2.46822900000000       -2.47778300000000
C           17.88360100000000       -1.97452000000000       -1.98192800000000
N           17.68941600000000       -0.97895900000000       -0.98195000000000
C           19.07184000000000       -2.40539200000000       -2.41468900000000
C           20.37152400000000       -1.91397400000000       -1.92104200000000
C           21.65120700000000       -2.41216700000000       -2.42116600000000
C           22.60695700000000       -1.77092800000000       -1.77705500000000
N           20.52514300000000       -1.00503600000000       -1.00822300000000
C           21.93643100000000       -0.85518800000000       -0.85753300000000
C           22.54516100000000       -0.00877600000000       -0.00743200000000
C           21.79734700000000        0.89715500000000        0.90230600000000
C           22.36875200000000        1.74414000000000        1.75290500000000
C           21.30666100000000        2.44149900000000        2.45330300000000
C           20.16030300000000        1.97537700000000        1.98521200000000
N           20.37277700000000        0.97875900000000        0.98428800000000
C           18.84500800000000        2.44578300000000        2.45779300000000
C           17.67813500000000        1.98836200000000        1.99846200000000
C           16.37031900000000        2.43766600000000        2.44994500000000
C           15.48929100000000        1.74303000000000        1.75233100000000
C           16.23620000000000        0.85424000000000        0.85946000000000
N           17.51754900000000        0.99102000000000        0.99668000000000
H           14.51234100000000       -0.10424100000000       -0.10317300000000
H           14.57823900000000       -1.97663600000000       -1.98392700000000
H           16.44681500000000       -3.22420200000000       -3.23708600000000
H           19.09153800000000       -3.16987700000000       -3.18253000000000
H           21.80208700000000       -3.16829800000000       -3.18046100000000
H           23.66863000000000       -1.91771300000000       -1.92425400000000
H           23.42838300000000        1.89639100000000        1.90580000000000
H           21.42646900000000        3.20060700000000        3.21571800000000
H           18.82837800000000        3.21067200000000        3.22608300000000
H           16.14658000000000        3.18474500000000        3.20041300000000
H           14.41363400000000        1.82598600000000        1.83582800000000
Cu          69.96256300000000       -0.06072300000000       -0.00484600000000
C           73.33622000000000        0.09442900000000       -0.01250400000000
C           72.66331400000000        1.24788100000000       -0.06981800000000
C           73.29201500000001        2.56498100000000       -0.13520400000000
C           72.33119200000000        3.47284100000000       -0.18030900000000
C           71.04807000000000        2.77397100000000       -0.14563700000000
N           71.24225600000000        1.36464500000000       -0.07565400000000
C           69.85983200000000        3.38390300000000       -0.17590800000000
C           68.56014700000000        2.68821400000000       -0.14132800000000
C           67.28046500000001        3.39327300000000       -0.17614200000000
C           66.32471500000000        2.48551100000000       -0.13104600000000
N           68.40652900000001        1.40161400000000       -0.07754600000000
C           66.99524099999999        1.18936900000000       -0.06688100000000
C           66.38651100000000       -0.00877600000000       -0.00743200000000
C           67.13432500000000       -1.29107800000000        0.05609300000000
C           66.56292000000001       -2.48998100000000        0.11552600000000
C           67.62501100000000       -3.47713300000000        0.16450600000000
C           68.77136900000001       -2.81735300000000        0.13181300000000
N           68.55889500000001       -1.40660800000000        0.06184200000000
C           70.08666299999999       -3.48332400000000        0.16494600000000
C           71.25353699999999       -2.83587400000000        0.13287900000000
C           72.56135300000000       -3.47203800000000        0.16460100000000
C           73.44238000000000       -2.48877500000000        0.11584700000000
C           72.69547199999998       -1.23050200000000        0.05326800000000
N           71.41412300000000       -1.42401600000000        0.06276000000000
H           74.41933100000000        0.12626600000000       -0.01403300000000
H           74.35343200000000        2.77688200000000       -0.14569200000000
H           72.48485700000001        4.54298800000000       -0.23343200000000
H           69.84013400000001        4.46609100000000       -0.22962100000000
H           67.12958500000001        4.46353200000000       -0.22915300000000
H           65.26304200000000        2.69314100000000       -0.14118900000000
H           65.50328900000000       -2.70548900000000        0.12620500000000
H           67.50520299999999       -4.55169300000000        0.21782200000000
H           70.10329400000001       -4.56611300000000        0.21871800000000
H           72.78509199999999       -4.52966100000000        0.21717200000000
H           74.51803799999999       -2.60632400000000        0.12180800000000
C           29.31198699999999       -0.00876900000000        0.00136000000000
C           28.10304800000000       -0.02222400000000       -0.00708700000000
C           26.68151900000000       -0.01340500000000       -0.01907000000000
C           25.46984900000000       -0.00596600000000       -0.00820800000000
C           30.72859100000000       -0.01544400000000        0.00189300000000
C           31.94928700000000       -0.00596600000000       -0.00820800000000
C           45.06928000000000       -0.00876900000000        0.00136000000000
C           43.86034100000000       -0.02222400000000       -0.00708700000000
C           42.43881200000000       -0.01340500000000       -0.01907000000000
C           41.22714200000000       -0.00596600000000       -0.00820800000000
C           46.48588400000000       -0.01544400000000        0.00189300000000
C           47.70658000000000       -0.00596600000000       -0.00820800000000
C           60.82657300000000       -0.00876900000000        0.00136000000000
C           59.61763400000000       -0.02222400000000       -0.00708700000000
C           58.19610500000000       -0.01340500000000       -0.01907000000000
C           56.98443500000000       -0.00596600000000       -0.00820800000000
C           62.24317700000000       -0.01544400000000        0.00189300000000
C           63.46387299999999       -0.00596600000000       -0.00820800000000
Cu          36.54470700000000       -0.04366100000000       -0.03845800000000
C           33.11125500000000        0.01056100000000        0.00975500000000
C           33.77778900000000        0.88399400000000        0.78698600000000
C           33.15347600000000        1.87598500000000        1.66967500000000
C           34.11184800000000        2.55455200000000        2.27355200000000
C           35.39305700000000        2.03432300000000        1.81068500000000
N           35.20096599999999        0.97874500000000        0.87137100000000
C           36.57544100000000        2.49937500000000        2.22456100000000
C           37.88511700000000        1.99618800000000        1.77682800000000
C           39.15176000000000        2.54111500000000        2.26183600000000
C           40.12394000000000        1.87568300000000        1.66967000000000
N           38.06109400000000        1.03674600000000        0.92297300000000
C           39.47630899999999        0.89802500000000        0.79957200000000
C           40.10535800000000        0.01056100000000        0.00975500000000
C           39.37543400000000       -0.95497500000000       -0.84955000000000
C           39.96217800000000       -1.84577400000000       -1.64242400000000
C           38.91210700000000       -2.59309900000000       -2.30743000000000
C           37.75792599999999       -2.10970800000000       -1.87709700000000
N           37.95223800000000       -1.05357800000000       -0.93716500000000
C           36.45284899999999       -2.61969300000000       -2.33077000000000
C           35.27366500000000       -2.15202200000000       -1.91452000000000
C           33.98655400000000       -2.65396900000000       -2.36104900000000
C           33.07998500000000       -1.93833400000000       -1.72425500000000
C           33.78767400000000       -0.97592700000000       -0.86799600000000
N           35.07518000000000       -1.09801000000000       -0.97670200000000
H           32.09610600000000        2.04670900000000        1.82154000000000
H           33.95658400000000        3.35488400000000        2.98572600000000
H           36.58185100000000        3.30904000000000        2.94505600000000
H           39.28290500000000        3.34353500000000        2.97595600000000
H           41.18174400000000        2.04507400000000        1.82045800000000
H           41.02448200000000       -1.99687500000000       -1.77700000000000
H           39.04469700000000       -3.39567900000000       -3.02170400000000
H           36.45437800000000       -3.42980800000000       -3.05163200000000
H           33.79205300000000       -3.44943800000000       -3.06881800000000
H           32.01062300000000       -2.05930800000000       -1.83182700000000
Cu          52.30200000000000       -0.04366100000000       -0.03845800000000
C           48.86854800000000        0.01056100000000        0.00975500000000
C           49.53508200000000        0.88399400000000        0.78698600000000
C           48.91076899999999        1.87598500000000        1.66967500000000
C           49.86913999999999        2.55455200000000        2.27355200000000
C           51.15035000000000        2.03432300000000        1.81068500000000
N           50.95825900000000        0.97874500000000        0.87137100000000
C           52.33273399999999        2.49937500000000        2.22456100000000
C           53.64240999999999        1.99618800000000        1.77682800000000
C           54.90905300000000        2.54111500000000        2.26183600000000
C           55.88123300000000        1.87568300000000        1.66967000000000
N           53.81838700000000        1.03674600000000        0.92297300000000
C           55.23360200000000        0.89802500000000        0.79957200000000
C           55.86265099999999        0.01056100000000        0.00975500000000
C           55.13272700000000       -0.95497500000000       -0.84955000000000
C           55.71947099999999       -1.84577400000000       -1.64242400000000
C           54.66940000000000       -2.59309900000000       -2.30743000000000
C           53.51521900000000       -2.10970800000000       -1.87709700000000
N           53.70953100000000       -1.05357800000000       -0.93716500000000
C           52.21014200000000       -2.61969300000000       -2.33077000000000
C           51.03095800000000       -2.15202200000000       -1.91452000000000
C           49.74384700000000       -2.65396900000000       -2.36104900000000
C           48.83727800000000       -1.93833400000000       -1.72425500000000
C           49.54496700000000       -0.97592700000000       -0.86799600000000
N           50.83247300000000       -1.09801000000000       -0.97670200000000
H           47.85339900000000        2.04670900000000        1.82154000000000
H           49.71387699999999        3.35488400000000        2.98572600000000
H           52.33914400000000        3.30904000000000        2.94505600000000
H           55.04019800000000        3.34353500000000        2.97595600000000
H           56.93903700000000        2.04507400000000        1.82045800000000
H           56.78177500000000       -1.99687500000000       -1.77700000000000
H           54.80199000000000       -3.39567900000000       -3.02170400000000
H           52.21167100000000       -3.42980800000000       -3.05163200000000
H           49.54934600000000       -3.44943800000000       -3.06881800000000
H           47.76791600000000       -2.05930800000000       -1.83182700000000
160
 energy: -297.829110868960 gnorm: 0.486222517903 xtb: 6.5.1 (b24c23e)
Cu          18.97602047564172        0.02428126738078        0.02578242581036
C           15.59597734004183       -0.07122318434136       -0.07008054073530
C           16.27411719433328       -0.89731279655506       -0.89988956258892
C           15.63864459508070       -1.82264998156849       -1.82930699419430
C           16.60667084535145       -2.46879515995970       -2.47835211832838
C           17.88237321231612       -1.97089540916042       -1.97828725934352
N           17.67515930208734       -0.98820025312624       -0.99122865337729
C           19.08560341308799       -2.40419550285318       -2.41348738717430
C           20.36454534499576       -1.92433827906852       -1.93145061007944
C           21.64129934861701       -2.41696585069051       -2.42598579554400
C           22.60687887827221       -1.76509692991524       -1.77120113952429
N           20.53128390284961       -1.00379818655191       -1.00697152239430
C           21.94057821976256       -0.85222149175020       -0.85455875921764
C           22.53517903178355        0.00137267739464        0.00270536048494
C           21.79118536732512        0.88601245910362        0.89111323448260
C           22.36944611646462        1.75630203742510        1.76511929943206
C           21.32670797169086        2.44257475542165        2.45438354971247
C           20.14741190731252        1.96841773485394        1.97822627269735
N           20.37559716689599        0.98300392659776        0.98855809631915
C           18.85871252470897        2.44046297294724        2.45244826532864
C           17.67736901949355        1.98717331248280        1.99726796121758
C           16.37580251764512        2.43678283011384        2.44905753156063
C           15.48176486238792        1.73567892237780        1.74494766977419
C           16.21936722526447        0.84813116825444        0.85332533048956
N           17.51915612494020        0.99673259520170        1.00241557409969
H           14.51281536307375       -0.10164745711177       -0.10056782014827
H           14.57819832371293       -1.97274189892199       -1.98001589188649
H           16.45234087251797       -3.22404999526987       -3.23693403028444
H           19.09519234077896       -3.16931476521977       -3.18196533006392
H           21.79725819153266       -3.16986841273060       -3.18203912688809
H           23.66806186985644       -1.91267100326752       -1.91919374342734
H           23.42864007341086        1.89799609232910        1.90741038848216
H           21.43082483947062        3.20051955806839        3.21562880822773
H           18.83411468387519        3.20818944970912        3.22358823467230
H           16.15204145851750        3.18384318721001        3.19950599108208
H           14.41117862240807        1.82258013054650        1.83240662637571
Cu          69.95563524711619       -0.05557519226356       -0.00510371180695
C           73.33569875134359        0.07956991913293       -0.01176584255996
C           72.65755373170013        1.24902492014270       -0.06987536369647
C           73.29302238677442        2.55892133478361       -0.13490296202314
C           72.32499220515678        3.47363742543672       -0.18034891424534
C           71.04928932865292        2.76884801525020       -0.14538285548905
N           71.25649282371151        1.37769146075593       -0.07629788946081
C           69.84608222408023        3.38222505863014       -0.17582382287151
C           68.56714660696795        2.70290885943857       -0.14205804628640
C           67.29039070110852        3.40006209476324       -0.17647909845030
C           66.32481849161319        2.47721595695821       -0.13063424574697
N           68.40049506973537        1.39989283277144       -0.07745749689733
C           66.99125211710977        1.18517648964185       -0.06667446575256
C           66.39699102578805       -0.02312786210993       -0.00672588964856
C           67.14062864351148       -1.27529856866546        0.05531047278939
C           66.56225690523110       -2.50716605152396        0.11637904780606
C           67.60497599323050       -3.47865483258881        0.16458163294071
C           68.78428848711053       -2.80752855978865        0.13132774174454
N           68.55617600948710       -1.41264762871729        0.06214624612796
C           70.07295936229671       -3.47580452784671        0.16457187999600
C           71.25429690080396       -2.83418960145395        0.13279517917731
C           72.55585892338675       -3.47078112166369        0.16453826175903
C           73.44990028173200       -2.47835675393537        0.11533012394578
C           72.71230537518973       -1.22184401992038        0.05283867459939
N           71.41248408735466       -1.43207662592957        0.06315956120065
H           74.41885764493023        0.12259393675045       -0.01385066866878
H           74.35347046613359        2.77136704142266       -0.14541836349388
H           72.47932921381039        4.54277050376366       -0.23342185212943
H           69.83648470033202        4.46530204133911       -0.22958189992178
H           67.13441626513679        4.46575432616576       -0.22926441767357
H           65.26361964786440        2.68599692908366       -0.14083588859370
H           65.50304859205457       -2.70775395250666        0.12631576429768
H           67.50084809679907       -4.55156734606213        0.21781465649514
H           70.09755972268373       -4.56260272940834        0.21854290100721
H           72.77962788335871       -4.52838010920788        0.21710749518549
H           74.52049011483047       -2.60149927731173        0.12156803697987
C           29.31160735161814       -0.00922223783941        0.00105131585392
C           28.08770648779063       -0.02198957146923       -0.00742094847093
C           26.68689279861112       -0.01346273093504       -0.01853784980701
C           25.46547903938437       -0.00604260320416       -0.00830544394757
C           30.67885021457526       -0.01551437532173        0.00235771136707
C           31.87854786218416       -0.00987937739471       -0.01251722420134
C           45.07693787617529       -0.00910558973745        0.00099191899913
C           43.85638661267122       -0.02228982356032       -0.00709019841020
C           42.50002100388824       -0.01508693467911       -0.02088248563055
C           41.30592014571383       -0.01388104491175       -0.01507952454483
C           46.43727920262244       -0.01547190130104        0.00246129471286
C           47.63750870694829       -0.00982785823976       -0.01249414204130
C           60.84420585569833       -0.00900103471076        0.00126007228559
C           59.61936633628449       -0.02216458089622       -0.00711080252569
C           58.25889675321369       -0.01517861670362       -0.02089715506707
C           57.06404741604613       -0.01391191596263       -0.01515275089348
C           62.23987799834757       -0.01508086511825        0.00181555308701
C           63.46488342643632       -0.00617660034664       -0.00804282420186
Cu          36.54779706168306       -0.04221444204044       -0.03716759354066
C           33.16657779340906        0.00073220118819        0.00119907068348
C           33.80517489832925        0.89409460340975        0.79599420032918
C           33.15364585206467        1.86911057641143        1.66353633135301
C           34.11944563717989        2.55595312922068        2.27480216382740
C           35.39186445214600        2.03227010048786        1.80886229130972
N           35.19359587993697        0.99265805714583        0.88378576508445
C           36.59057703347836        2.49980994589023        2.22494061940098
C           37.87480515517137        2.01195559454389        1.79085969620246
C           39.13972019491384        2.54805974646202        2.26801997764920
C           40.12033530640873        1.86931684576075        1.66400427111088
N           38.06096640412923        1.03906906550348        0.92509099296597
C           39.44585017773110        0.90945581239662        0.80980811541794
C           40.02752394201836        0.00246451301732        0.00254099480490
C           39.34570234324597       -0.95349748549492       -0.84819353818334
C           39.96068721921238       -1.85907939295459       -1.65425703283861
C           38.93109229304630       -2.59526903190464       -2.30936274121954
C           37.74404312112483       -2.10427434511830       -1.87225722889253
N           37.95023120231885       -1.06121364101062       -0.94394379355047
C           36.46627963881272       -2.61493131216977       -2.32653641499147
C           35.27418275514553       -2.15246927587736       -1.91491606076584
C           33.99217652962772       -2.65355253829895       -2.36067786693628
C           33.07324691722560       -1.92966564580176       -1.71655251193746
C           33.78878838098498       -0.97677045172402       -0.86874258991395
N           35.08336079627946       -1.10777320719018       -0.98536698545271
H           32.09602895638059        2.04061951725208        1.81612087222237
H           33.96193008025143        3.35485721582555        2.98570416561955
H           36.58542091858870        3.30911603387241        2.94512038922791
H           39.27845754855827        3.34575257555120        2.97793021346117
H           41.18003400013965        2.03887954109594        1.81494664800065
H           41.02409494889652       -1.99798384920357       -1.77798446158728
H           39.04928966287708       -3.39592103569996       -3.02192069864304
H           36.45984186900828       -3.42753336706659       -3.04961066816717
H           33.79712695798270       -3.44848788285740       -3.06797153571853
H           32.00810599232447       -2.05434181700341       -1.82740797505103
Cu          52.30518700782811       -0.04236788065788       -0.03729951798375
C           48.92425201149097        0.00046730286819        0.00097098962245
C           49.56339646818945        0.89441896357978        0.79627613236670
C           48.91088628636481        1.86959153781410        1.66396265176518
C           49.87633646700357        2.55616394984893        2.27498967820861
C           51.14946501773551        2.03280666928807        1.80934274707688
N           50.94959948769901        0.99249261988099        0.88363795470152
C           52.34656772127220        2.49975278923678        2.22488847538412
C           53.63314131036425        2.01167452247894        1.79060966492644
C           54.89682691142029        2.54809629130288        2.26805179788150
C           55.87766993063365        1.86909600937871        1.66380650410707
N           53.81872454402168        1.03965318512532        0.92560929456388
C           55.20339647636460        0.90969629736398        0.81002863664398
C           55.78543204188211        0.00253312840227        0.00259558725920
C           55.10288263481658       -0.95359525223239       -0.84827122152168
C           55.71798372554577       -1.85907346032000       -1.65425138975286
C           54.68838977620580       -2.59537670112301       -2.30945955604114
C           53.50158629600607       -2.10426993493890       -1.87225328766048
N           53.70791561704721       -1.06148044844487       -0.94418097207562
C           52.22333050573223       -2.61486954009063       -2.32648186786808
C           51.03140694301792       -2.15261291923276       -1.91504178873067
C           49.74931246337318       -2.65365291603349       -2.36076734352992
C           48.83037344405901       -1.92990296749512       -1.71676423556748
C           49.54609041101728       -0.97706953318019       -0.86901701270546
N           50.83994285936350       -1.10792810437133       -0.98550455933228
H           47.85323114616027        2.04069767287208        1.81619074611101
H           49.71907220374779        3.35495817299702        2.98579411336743
H           52.34249403868498        3.30911246757657        2.94511726741413
H           55.03567190418417        3.34575922425515        2.97793682875092
H           56.93729087353746        2.03884976965910        1.81492179281707
H           56.78136296311716       -1.99797678616623       -1.77797764665196
H           54.80658081181789       -3.39596591145526       -3.02196069952322
H           52.21707948431995       -3.42751844663837       -3.04959772406782
H           49.55436324616986       -3.44853366922787       -3.06801226105827
H           47.76529538533152       -2.05441469829027       -1.82747269242728
160
 energy: -297.961731074935 gnorm: 0.220576429693 xtb: 6.5.1 (b24c23e)
Cu          18.98762770579430        0.01698142220542        0.01843698550739
C           15.59753026176719       -0.05845925028629       -0.05725993384450
C           16.27861107719970       -0.89705805568181       -0.89963240195406
C           15.64011946267912       -1.81597063523319       -1.82259813394108
C           16.61622424744239       -2.46747599038902       -2.47702832184638
C           17.88259476526775       -1.96767692095924       -1.97505325583310
N           17.65591902183741       -1.00102176427386       -1.00409806201208
C           19.10355166163346       -2.40130024995945       -2.41057789792741
C           20.35819486441717       -1.93643978806579       -1.94359664779068
C           21.63046265116331       -2.42059403679159       -2.42962902231819
C           22.60065410199967       -1.75728534592306       -1.76336589476006
N           20.53962636866891       -1.00338911872958       -1.00653701236078
C           21.94109857333403       -0.84805913328010       -0.85040543417501
C           22.51431068552349        0.02002403545363        0.02129265627780
C           21.78382248963375        0.87858896859167        0.88363105632787
C           22.36835284146096        1.77127204478994        1.78014837522671
C           21.35283222089602        2.44101644016756        2.45282348983127
C           20.14138163756833        1.96017647633919        1.96996168330001
N           20.38026228443764        0.98919353017058        0.99479397502339
C           18.88173887486884        2.42858154289468        2.44051444718476
C           17.67819738533509        1.98162468387411        1.99169588016013
C           16.38280214155635        2.43003765555766        2.44228264625885
C           15.47370364595341        1.72570913299971        1.73493316962194
C           16.19904765595171        0.84133811245330        0.84650404471876
N           17.51888195322813        1.00224040998823        1.00794990446919
H           14.51434471216854       -0.09560676887144       -0.09449970181383
H           14.57937863483894       -1.96266493191322       -1.96989541762002
H           16.46669625008003       -3.22275921442703       -3.23564010035311
H           19.10440510680523       -3.16704238029698       -3.17968345933114
H           21.78723794060937       -3.17275582003605       -3.18494089726377
H           23.66356269294857       -1.89965860002436       -1.90613880824045
H           23.42976990511372        1.90120430494841        1.91062519022206
H           21.44174980809915        3.19945296514097        3.21455503097547
H           18.85258021309374        3.19817216213736        3.21352199937275
H           16.16592782585508        3.17854602423076        3.19418252411163
H           14.40481742642350        1.81458149099585        1.82437113154653
Cu          69.94405354904910       -0.04524614216013       -0.00563241647822
C           73.33414759586408        0.06149741405450       -0.01086714514093
C           72.65305482462207        1.24865209131772       -0.06985535724359
C           73.29153920135343        2.54944801475807       -0.13443143211851
C           72.31543427984558        3.47175781495582       -0.18025522584636
C           71.04907101477401        2.76429848811589       -0.14515514764606
N           71.27571165467825        1.39580750421666       -0.07718798830117
C           69.82817399734076        3.37818211664216       -0.17562037695920
C           68.57357523384168        2.72010777579519       -0.14290980039255
C           67.30126429886141        3.40519703202551       -0.17673359764372
C           66.33113217081815        2.46611301236805       -0.13008274220582
N           68.39237716268920        1.39937591102321       -0.07742142128813
C           66.99102535289404        1.17933492331570       -0.06638574255125
C           66.41847916667184       -0.04949935534628       -0.00542832658238
C           67.14826781493363       -1.26479156006802        0.05478970608237
C           66.56345727411913       -2.52830872920285        0.11742908318611
C           67.57889733984712       -3.47645635120314        0.16447442053636
C           68.79040370894020       -2.79594223783005        0.13075961635777
N           68.55175487169879       -1.42150055012355        0.06259743761657
C           70.04996726845144       -3.45903730298483        0.16373921093559
C           71.25346618237764       -2.82633696093870        0.13240668389073
C           72.54884778805416       -3.46121590203516        0.16406456958484
C           73.45794589441221       -2.46421974056528        0.11462883082966
C           72.73261305810932       -1.21221282753039        0.05236242437012
N           71.41272602552942       -1.43984994951112        0.06354942356623