      -----------------------------------------------------------      
     |                   =====================                   |     
     |                           x T B                           |     
     |                   =====================                   |     
     |                         S. Grimme                         |     
     |          Mulliken Center for Theoretical Chemistry        |     
     |                    University of Bonn                     |     
      -----------------------------------------------------------      

   * xtb version 6.5.1 (b24c23e) compiled by 'conda@728c89f4b128' on 2022-07-12

   xtb is free software: you can redistribute it and/or modify it under
   the terms of the GNU Lesser General Public License as published by
   the Free Software Foundation, either version 3 of the License, or
   (at your option) any later version.
   
   xtb is distributed in the hope that it will be useful,
   but WITHOUT ANY WARRANTY; without even the implied warranty of
   MERCHANTABILITY or FITNESS FOR A PARTICULAR PURPOSE.  See the
   GNU Lesser General Public License for more details.
   
   Cite this work as:
   * C. Bannwarth, E. Caldeweyher, S. Ehlert, A. Hansen, P. Pracht,
     J. Seibert, S. Spicher, S. Grimme, WIREs Comput. Mol. Sci., 2020, 11,
     e01493. DOI: 10.1002/wcms.1493
   
   for GFN2-xTB:
   * C. Bannwarth, S. Ehlert and S. Grimme., J. Chem. Theory Comput., 2019,
     15, 1652-1671. DOI: 10.1021/acs.jctc.8b01176
   for GFN1-xTB:
   * S. Grimme, C. Bannwarth, P. Shushkov, J. Chem. Theory Comput., 2017,
     13, 1989-2009. DOI: 10.1021/acs.jctc.7b00118
   for GFN0-xTB:
   * P. Pracht, E. Caldeweyher, S. Ehlert, S. Grimme, ChemRxiv, 2019, preprint.
     DOI: 10.26434/chemrxiv.8326202.v1
   for GFN-FF:
   * S. Spicher and S. Grimme, Angew. Chem. Int. Ed., 2020, 59, 15665-15673.
     DOI: 10.1002/anie.202004239
   
   for ALPB and GBSA implicit solvation:
   * S. Ehlert, M. Stahn, S. Spicher, S. Grimme, J. Chem. Theory Comput.,
     2021, 17, 4250-4261. DOI: 10.1021/acs.jctc.1c00471
   
   for DFT-D4:
   * E. Caldeweyher, C. Bannwarth and S. Grimme, J. Chem. Phys., 2017,
     147, 034112. DOI: 10.1063/1.4993215
   * E. Caldeweyher, S. Ehlert, A. Hansen, H. Neugebauer, S. Spicher,
     C. Bannwarth and S. Grimme, J. Chem. Phys., 2019, 150, 154122.
     DOI: 10.1063/1.5090222
   * E. Caldeweyher, J.-M. Mewes, S. Ehlert and S. Grimme, Phys. Chem. Chem. Phys.
     2020, 22, 8499-8512. DOI: 10.1039/D0CP00502A
   
   for sTDA-xTB:
   * S. Grimme and C. Bannwarth, J. Chem. Phys., 2016, 145, 054103.
     DOI: 10.1063/1.4959605
   
   in the mass-spec context:
   * V. Asgeirsson, C. Bauer and S. Grimme, Chem. Sci., 2017, 8, 4879.
     DOI: 10.1039/c7sc00601b
   * J. Koopman and S. Grimme, ACS Omega 2019, 4, 12, 15120-15133.
     DOI: 10.1021/acsomega.9b02011
   
   for metadynamics refer to:
   * S. Grimme, J. Chem. Theory Comput., 2019, 155, 2847-2862
     DOI: 10.1021/acs.jctc.9b00143
   
   for SPH calculations refer to:
   * S. Spicher and S. Grimme, J. Chem. Theory Comput., 2021, 17, 1701-1714
     DOI: 10.1021/acs.jctc.0c01306
   
   with help from (in alphabetical order)
   P. Atkinson, C. Bannwarth, F. Bohle, G. Brandenburg, E. Caldeweyher
   M. Checinski, S. Dohm, S. Ehlert, S. Ehrlich, I. Gerasimov, C. Hölzer
   A. Katbashev, J. Koopman, C. Lavigne, S. Lehtola, F. März, M. Müller,
   F. Musil, H. Neugebauer, J. Pisarek, C. Plett, P. Pracht, F. Pultar,
   J. Seibert, P. Shushkov, S. Spicher, M. Stahn, M. Steiner, T. Strunk,
   J. Stückrath, T. Rose, and J. Unsleber
   
 * started run on 2022/07/29 at 14:46:50.952     

           -------------------------------------------------
          |                Calculation Setup                |
           -------------------------------------------------

          program call               : xtb PhNH2_C4_7.xyz --gfn 1 --opt -T 48
          hostname                   : cx3-6-25.cx3.hpc.ic.ac.uk
          coordinate file            : PhNH2_C4_7.xyz
          omp threads                :                     1

   ID    Z sym.   atoms
    1    6 C      1-5, 7-11, 13-17, 19-24, 26-30, 32-37, 62-66, 68-72, 74-78,
                  80-85, 87-91, 93-98, 123-151, 153-157, 159-163, 165-170,
                  172-176, 178-183, 207-211, 213-217, 219-223, 225-230,
                  232-236, 238-243, 267-271, 273-277, 279-283, 285-290,
                  292-296, 298-303, 327-331, 333-337, 339-343, 345-350,
                  352-356, 358-363, 387-391, 393-397, 399-403, 405-410,
                  412-416, 418-423
    2    7 N      6, 12, 18, 25, 31, 38, 67, 73, 79, 86, 92, 99, 152, 158,
                  164, 171, 177, 184, 212, 218, 224, 231, 237, 244, 272, 278,
                  284, 291, 297, 304, 332, 338, 344, 351, 357, 364, 392, 398,
                  404, 411, 417, 424
    3    1 H      39-61, 100-122, 185-206, 245-266, 305-326, 365-386, 425-446

molecular fragmentation (1/2 indicates fragments):
111111111111111111111111111111111111111111111111111111111111122222222222
222222222222222222222222222222222222222222222222222222222222222222222222
222222222222222222222222222222222222222222222222222222222222222222222222
222222222222222222222222222222222222222222222222222222222222222222222222
222222222222222222222222222222222222222222222222222222222222222222222222
222222222222222222222222222222222222222222222222222222222222222222222222
22222222222222
# atoms in fragment 1/2:    61   385
 fragment masses (1/2) :      491.57     3232.62
CMA distance (Bohr)    :  94.655
constraining FC (au)   :  0.0500
########################################################################
[WARNING] Please study the warnings concerning your input carefully
-1- prog_main_parseArguments: Unknown option '-T' provided
########################################################################

           -------------------------------------------------
          |                 G F N 1 - x T B                 |
           -------------------------------------------------

        Reference                      10.1021/acs.jctc.7b00118
      * Hamiltonian:
        H0-scaling (s, p, d)           1.850000    2.250000    2.000000
        zeta-weighting                 0.000000
      * Dispersion:
        s8                             2.400000
        a1                             0.630000
        a2                             5.000000
        s9                             0.000000
      * Repulsion:
        kExp                           1.500000
        rExp                           1.000000
      * Coulomb:
        alpha                          2.000000
        third order                    atomic
        anisotropic                    false
      * Halogen bond correction:
        rad-scale                      1.300000
        damping                        0.440000


          ...................................................
          :                      SETUP                      :
          :.................................................:
          :  # basis functions                1472          :
          :  # atomic orbitals                1472          :
          :  # shells                          892          :
          :  # electrons                      1358          :
          :  # halogen bonds                     0          :
          :  max. iterations                   250          :
          :  Hamiltonian                  GFN1-xTB          :
          :  restarted?                      false          :
          :  GBSA solvation                  false          :
          :  PC potential                    false          :
          :  electronic temp.          300.0000000     K    :
          :  accuracy                    1.0000000          :
          :  -> integral cutoff          0.2500000E+02      :
          :  -> integral neglect         0.1000000E-07      :
          :  -> SCF convergence          0.1000000E-05 Eh   :
          :  -> wf. convergence          0.2000000E-04 e    :
          :  Broyden damping             0.4000000          :
          ...................................................

 iter      E             dE          RMSdq      gap      omega  full diag
   1   -750.8781499 -0.750878E+03  0.102E+01    0.03       0.0  T
   2   -744.8857823  0.599237E+01  0.634E+00    0.04       1.0  T
   3    931.4757195  0.167636E+04  0.114E+01    0.03       1.0  T
   4   5299.6816608  0.436821E+04  0.174E+01    0.04       1.0  T
   5    234.2141126 -0.506547E+04  0.903E+00    0.03       1.0  T
   6   -230.2230345 -0.464437E+03  0.694E+00    0.04       1.0  T
   7   -665.7003936 -0.435477E+03  0.422E+00    0.00       1.0  T
   8   -730.3108730 -0.646105E+02  0.279E+00    0.07       1.0  T
   9   -747.3114428 -0.170006E+02  0.165E+00    0.05       1.0  T
  10   -749.5651162 -0.225367E+01  0.121E+00    0.07       1.0  T
  11   -748.6290211  0.936095E+00  0.112E+00    0.02       1.0  T
  12   -750.6879664 -0.205895E+01  0.850E-01    0.08       1.0  T
  13   -749.0511064  0.163686E+01  0.780E-01    0.05       1.0  T
  14   -750.2347253 -0.118362E+01  0.510E-01    0.02       1.0  T
  15   -748.9161046  0.131862E+01  0.770E-01    0.01       1.0  T
  16   -750.3893004 -0.147320E+01  0.439E-01    0.05       1.0  T
  17   -749.0428092  0.134649E+01  0.577E-01    0.03       1.0  T
  18   -750.4141707 -0.137136E+01  0.354E-01    0.03       1.0  T
  19   -751.0620878 -0.647917E+00  0.560E-01    0.01       1.0  T
  20   -751.0207453  0.413425E-01  0.333E-01    0.02       1.0  T
  21   -751.3916253 -0.370880E+00  0.468E-01    0.00       1.0  T
  22   -751.4024254 -0.108001E-01  0.461E-01    0.00       1.0  T
  23   -751.2966450  0.105780E+00  0.561E-01    0.05       1.0  T
  24   -751.2227173  0.739277E-01  0.600E-01    0.07       1.0  T
  25   -751.3325957 -0.109878E+00  0.547E-01    0.06       1.0  T
  26   -751.5668269 -0.234231E+00  0.371E-01    0.02       1.0  T
  27   -751.5208095  0.460174E-01  0.339E-01    0.08       1.0  T
  28   -751.5151666  0.564294E-02  0.342E-01    0.09       1.0  T
  29   -751.5864684 -0.713019E-01  0.290E-01    0.07       1.0  T
  30   -751.6811467 -0.946782E-01  0.206E-01    0.02       1.0  T
  31   -751.6979022 -0.167556E-01  0.183E-01    0.01       1.0  T
  32   -751.7696634 -0.717612E-01  0.115E-01    0.04       1.0  T
  33   -751.7465149  0.231486E-01  0.126E-01    0.07       1.0  T
  34   -751.7557113 -0.919648E-02  0.107E-01    0.06       1.0  T
  35   -751.7452097  0.105016E-01  0.137E-01    0.07       1.0  T
  36   -751.7606966 -0.154869E-01  0.106E-01    0.06       1.0  T
  37   -751.7653527 -0.465604E-02  0.115E-01    0.02       1.0  T
  38   -751.7784881 -0.131355E-01  0.757E-02    0.03       1.0  T
  39   -751.7806004 -0.211229E-02  0.673E-02    0.03       1.0  T
  40   -751.7856679 -0.506749E-02  0.443E-02    0.03       1.0  T
  41   -751.7887507 -0.308275E-02  0.218E-02    0.03       1.0  T
  42   -751.7895454 -0.794716E-03  0.126E-02    0.03       1.0  T
  43   -751.7893621  0.183324E-03  0.151E-02    0.03       1.0  T
  44   -751.7892452  0.116808E-03  0.161E-02    0.03       1.0  T
  45   -751.7892082  0.370210E-04  0.168E-02    0.03       1.0  T
  46   -751.7894120 -0.203733E-03  0.131E-02    0.03       1.0  T
  47   -751.7897205 -0.308509E-03  0.457E-03    0.03       1.0  T
  48   -751.7897354 -0.149745E-04  0.369E-03    0.03       1.3  T
  49   -751.7897146  0.208473E-04  0.459E-03    0.03       1.0  T
  50   -751.7897313 -0.167082E-04  0.332E-03    0.03       1.4  T
  51   -751.7897438 -0.124850E-04  0.239E-03    0.03       2.0  T
  52   -751.7897524 -0.861413E-05  0.151E-03    0.03       3.1  T
  53   -751.7897541 -0.169303E-05  0.130E-03    0.03       3.6  T
  54   -751.7897561 -0.196602E-05  0.906E-04    0.03       5.2  T
  55   -751.7897566 -0.573997E-06  0.825E-04    0.03       5.7  T
  56   -751.7897576 -0.100271E-05  0.322E-04    0.03      14.7  T
  57   -751.7897576  0.433204E-07  0.355E-04    0.03      13.3  T
  58   -751.7897577 -0.856685E-07  0.279E-04    0.03      16.9  T
  59   -751.7897577 -0.494241E-07  0.202E-04    0.03      23.5  T
  60   -751.7897578 -0.385785E-07  0.166E-04    0.03      28.6  T
  61   -751.7897578 -0.190331E-07  0.119E-04    0.03      39.7  T

   *** convergence criteria satisfied after 61 iterations ***

         #    Occupation            Energy/Eh            Energy/eV
      -------------------------------------------------------------
         1        2.0000           -0.7950728             -21.6350
       ...           ...                  ...                  ...
       673        2.0000           -0.3813875             -10.3781
       674        2.0000           -0.3777880             -10.2801
       675        2.0000           -0.3729887             -10.1495
       676        2.0000           -0.3700932             -10.0707
       677        1.9999           -0.3687959             -10.0354
       678        1.9996           -0.3675870             -10.0026
       679        0.9631           -0.3594019              -9.7798 (HOMO)
       680        0.4281           -0.3582363              -9.7481 (LUMO)
       681        0.4099           -0.3581842              -9.7467
       682        0.1991           -0.3573798              -9.7248
       683        0.0005           -0.3515245              -9.5655
       684        0.0000           -0.3471143              -9.4455
       ...           ...                  ...                  ...
      1472                          1.2721445              34.6168
      -------------------------------------------------------------
                  HL-Gap            0.0011656 Eh            0.0317 eV
             Fermi-level           -0.3594722 Eh           -9.7817 eV

 SCC (total)                   0 d,  0 h,  1 min, 22.101 sec
 SCC setup                      ...        0 min,  0.053 sec (  0.065%)
 Dispersion                     ...        0 min,  0.030 sec (  0.036%)
 classical contributions        ...        0 min,  0.007 sec (  0.008%)
 integral evaluation            ...        0 min,  0.683 sec (  0.832%)
 iterations                     ...        1 min, 19.754 sec ( 97.141%)
 molecular gradient             ...        0 min,  1.334 sec (  1.625%)
 printout                       ...        0 min,  0.241 sec (  0.293%)

         :::::::::::::::::::::::::::::::::::::::::::::::::::::
         ::                     SUMMARY                     ::
         :::::::::::::::::::::::::::::::::::::::::::::::::::::
         :: total energy            -740.320753072491 Eh    ::
         :: gradient norm              0.921679082303 Eh/a0 ::
         :: HOMO-LUMO gap              0.031717379751 eV    ::
         ::.................................................::
         :: SCC energy              -751.789757784429 Eh    ::
         :: -> electrostatic           0.614055547032 Eh    ::
         :: repulsion energy          11.835960083814 Eh    ::
         :: dispersion energy         -0.366955371876 Eh    ::
         :: halogen bond corr.         0.000000000000 Eh    ::
         :: add. restraining           0.000000000000 Eh    ::
         :: total charge               0.000000000001 e     ::
         :::::::::::::::::::::::::::::::::::::::::::::::::::::

      ----------------------------------------------------------- 
     |                   =====================                   |
     |                        A N C O P T                        |
     |                   =====================                   |
     |               Approximate Normal Coordinate               |
     |                Rational Function Optimizer                |
      ----------------------------------------------------------- 

          ...................................................
          :                      SETUP                      :
          :.................................................:
          :   optimization level            normal          :
          :   max. optcycles                  1338          :
          :   ANC micro-cycles                  20          :
          :   degrees of freedom              1332          :
          :.................................................:
          :   RF solver                   davidson          :
          :   write xtbopt.log                true          :
          :   linear?                        false          :
          :   energy convergence         0.5000000E-05 Eh   :
          :   grad. convergence          0.1000000E-02 Eh/α :
          :   maximium RF displ.         1.0000000          :
          :   Hlow (freq-cutoff)         0.1000000E-01      :
          :   Hmax (freq-cutoff)         5.0000000          :
          :   S6 in model hess.         20.0000000          :
          ...................................................

generating ANC from model Hessian ...
Using Lindh-Hessian (1995)
 Shifting diagonal of input Hessian by    1.0012481570340742E-002
 Lowest  eigenvalues of input Hessian
    0.010000    0.010005    0.010008    0.010009    0.010010    0.010011
    0.010011    0.010012    0.010012    0.010012    0.000000    0.000000
    0.000000    0.000000    0.000000    0.000000    0.010013    0.010013
 Highest eigenvalues
    2.443620    2.552048    2.559609    2.559610    2.559611    2.559611


........................................................................
.............................. CYCLE    1 ..............................
........................................................................
   1   -751.7897578 -0.751790E+03  0.107E-04    0.03       0.0  T
   2   -751.7897548  0.296888E-05  0.116E-03    0.03       4.1  T
   3   -751.7897545  0.354171E-06  0.101E-03    0.03       4.7  T
   4   -751.7897571 -0.261599E-05  0.485E-04    0.03       9.8  T
   5   -751.7897571 -0.523039E-08  0.519E-04    0.03       9.1  T
   6   -751.7897576 -0.512782E-06  0.258E-04    0.03      18.3  T
   7   -751.7897578 -0.178108E-06  0.110E-04    0.03      43.0  T
   8   -751.7897578 -0.729881E-08  0.798E-05    0.03      59.3  T
     SCC iter.                  ...        0 min,  9.704 sec
     gradient                   ...        0 min,  1.303 sec
 * total energy  :  -740.3207531 Eh     change       -0.2319211E-08 Eh
   gradient norm :     0.9216792 Eh/α   predicted     0.0000000E+00 (-100.00%)
   displ. norm   :     0.5778180 α      lambda       -0.4839048E+00
   maximum displ.:     0.1481602 α      in ANC's #1144, #1200, #1097, ...

........................................................................
.............................. CYCLE    2 ..............................
........................................................................
   1   -751.9062767 -0.751906E+03  0.191E-01    0.01       0.0  T
   2   -748.3933077  0.351297E+01  0.110E+00    0.14       1.0  T
   3   -751.7064382 -0.331313E+01  0.382E-01    0.18       1.0  T
   4   -751.7346872 -0.282490E-01  0.319E-01    0.08       1.0  T
   5   -751.9347774 -0.200090E+00  0.134E-01    0.05       1.0  T
   6   -751.8204444  0.114333E+00  0.211E-01    0.02       1.0  T
   7   -751.9129301 -0.924857E-01  0.177E-01    0.04       1.0  T
   8   -751.9135377 -0.607583E-03  0.166E-01    0.03       1.0  T
   9   -751.8315125  0.820252E-01  0.236E-01    0.02       1.0  T
  10   -751.9356176 -0.104105E+00  0.127E-01    0.05       1.0  T
  11   -751.9415583 -0.594072E-02  0.114E-01    0.05       1.0  T
  12   -751.9473301 -0.577181E-02  0.102E-01    0.05       1.0  T
  13   -751.9626451 -0.153150E-01  0.553E-02    0.05       1.0  T
  14   -751.9649712 -0.232607E-02  0.358E-02    0.05       1.0  T
  15   -751.9624173  0.255385E-02  0.512E-02    0.05       1.0  T
  16   -751.9641780 -0.176071E-02  0.400E-02    0.05       1.0  T
  17   -751.9648604 -0.682339E-03  0.337E-02    0.05       1.0  T
  18   -751.9659395 -0.107915E-02  0.199E-02    0.05       1.0  T
  19   -751.9661942 -0.254667E-03  0.116E-02    0.05       1.0  T
  20   -751.9662693 -0.750751E-04  0.882E-03    0.06       1.0  T
  21   -751.9663386 -0.693358E-04  0.408E-03    0.05       1.2  T
  22   -751.9663305  0.806586E-05  0.534E-03    0.06       1.0  T
  23   -751.9663760 -0.454334E-04  0.175E-03    0.06       2.7  T
  24   -751.9663769 -0.969382E-06  0.163E-03    0.06       2.9  T
  25   -751.9663812 -0.424232E-05  0.939E-04    0.06       5.0  T
  26   -751.9663824 -0.120198E-05  0.245E-04    0.06      19.3  T
  27   -751.9663822  0.174778E-06  0.337E-04    0.06      14.0  T
  28   -751.9663824 -0.222333E-06  0.813E-05    0.06      58.3  T
  29   -751.9663825 -0.184742E-07  0.221E-05    0.06     213.8  T
     SCC iter.                  ...        0 min, 35.200 sec
     gradient                   ...        0 min,  1.325 sec
 * total energy  :  -740.7347929 Eh     change       -0.4140398E+00 Eh
   gradient norm :     0.6459859 Eh/α   predicted    -0.3227436E+00 ( -22.05%)
   displ. norm   :     0.7152370 α      lambda       -0.4349181E+00
   maximum displ.:     0.1821123 α      in ANC's #1144, #1200, #711, ...

........................................................................
.............................. CYCLE    3 ..............................
........................................................................
   1   -752.2845628 -0.752285E+03  0.171E-01    0.14       0.0  T
   2   -751.6896605  0.594902E+00  0.578E-01    0.02       1.0  T
   3   -752.2106250 -0.520965E+00  0.249E-01    0.30       1.0  T
   4   -752.2885257 -0.779007E-01  0.119E-01    0.10       1.0  T
   5   -752.2797454  0.878030E-02  0.114E-01    0.07       1.0  T
   6   -752.2917214 -0.119760E-01  0.785E-02    0.08       1.0  T
   7   -752.2909471  0.774346E-03  0.752E-02    0.08       1.0  T
   8   -752.3030285 -0.120814E-01  0.302E-02    0.10       1.0  T
   9   -752.3036354 -0.606926E-03  0.216E-02    0.09       1.0  T
  10   -752.3028385  0.796908E-03  0.231E-02    0.09       1.0  T
  11   -752.3030463 -0.207818E-03  0.221E-02    0.10       1.0  T
  12   -752.3042086 -0.116228E-02  0.580E-03    0.10       1.0  T
  13   -752.3042238 -0.151785E-04  0.510E-03    0.10       1.0  T
  14   -752.3042914 -0.676316E-04  0.180E-03    0.10       2.6  T
  15   -752.3042972 -0.585516E-05  0.738E-04    0.10       6.4  T
  16   -752.3042931  0.418971E-05  0.138E-03    0.10       3.4  T
  17   -752.3042972 -0.415845E-05  0.643E-04    0.10       7.4  T
  18   -752.3042981 -0.841799E-06  0.160E-04    0.10      29.7  T
  19   -752.3042981 -0.141073E-07  0.126E-04    0.10      37.6  T
     SCC iter.                  ...        0 min, 23.028 sec
     gradient                   ...        0 min,  1.356 sec
 * total energy  :  -741.0136460 Eh     change       -0.2788531E+00 Eh
   gradient norm :     0.2703532 Eh/α   predicted    -0.3287473E+00 (  17.89%)
   displ. norm   :     0.6510306 α      lambda       -0.1220697E+00
   maximum displ.:     0.2138569 α      in ANC's #136, #353, #357, ...

........................................................................
.............................. CYCLE    4 ..............................
........................................................................
   1   -752.4397304 -0.752440E+03  0.983E-02    0.15       0.0  T
   2   -751.9143973  0.525333E+00  0.537E-01    0.01       1.0  T
   3   -752.3723612 -0.457964E+00  0.252E-01    0.16       1.0  T
   4   -752.4449729 -0.726117E-01  0.611E-02    0.12       1.0  T
   5   -752.4136922  0.312808E-01  0.133E-01    0.05       1.0  T
   6   -752.4493068 -0.356146E-01  0.361E-02    0.09       1.0  T
   7   -752.4378119  0.114948E-01  0.718E-02    0.07       1.0  T
   8   -752.4494954 -0.116835E-01  0.295E-02    0.08       1.0  T
   9   -752.4465988  0.289660E-02  0.439E-02    0.08       1.0  T
  10   -752.4511498 -0.455099E-02  0.193E-02    0.12       1.0  T
  11   -752.4514575 -0.307652E-03  0.126E-02    0.12       1.0  T
  12   -752.4516342 -0.176718E-03  0.634E-03    0.11       1.0  T
  13   -752.4516988 -0.645522E-04  0.304E-03    0.11       1.6  T
  14   -752.4517129 -0.141299E-04  0.190E-03    0.11       2.5  T
  15   -752.4517182 -0.533032E-05  0.127E-03    0.11       3.7  T
  16   -752.4517197 -0.150325E-05  0.956E-04    0.11       5.0  T
  17   -752.4517218 -0.205696E-05  0.219E-04    0.11      21.6  T
  18   -752.4517218 -0.732921E-07  0.134E-04    0.11      35.3  T
  19   -752.4517219 -0.245903E-07  0.773E-05    0.11      61.2  T
     SCC iter.                  ...        0 min, 22.748 sec
     gradient                   ...        0 min,  1.325 sec
 * total energy  :  -741.0986725 Eh     change       -0.8502655E-01 Eh
   gradient norm :     0.1584419 Eh/α   predicted    -0.8690426E-01 (   2.21%)
   displ. norm   :     0.7391651 α      lambda       -0.7531440E-01
   maximum displ.:     0.3182778 α      in ANC's #136, #353, #357, ...

........................................................................
.............................. CYCLE    5 ..............................
........................................................................
   1   -752.5891745 -0.752589E+03  0.475E-02    0.11       0.0  T
   2   -752.5016919  0.874825E-01  0.217E-01    0.03       1.0  T
   3   -752.5782808 -0.765889E-01  0.864E-02    0.11       1.0  T
   4   -752.5879089 -0.962814E-02  0.438E-02    0.15       1.0  T
   5   -752.5444708  0.434381E-01  0.139E-01    0.04       1.0  T
   6   -752.5899900 -0.455192E-01  0.286E-02    0.12       1.0  T
   7   -752.5878355  0.215454E-02  0.360E-02    0.11       1.0  T
   8   -752.5898244 -0.198895E-02  0.229E-02    0.10       1.0  T
   9   -752.5892545  0.569863E-03  0.278E-02    0.10       1.0  T
  10   -752.5910411 -0.178657E-02  0.102E-02    0.11       1.0  T
  11   -752.5912702 -0.229083E-03  0.254E-03    0.11       1.9  T
  12   -752.5912928 -0.226032E-04  0.117E-03    0.11       4.1  T
  13   -752.5912939 -0.109868E-05  0.695E-04    0.11       6.8  T
  14   -752.5912945 -0.608547E-06  0.538E-04    0.11       8.8  T
  15   -752.5912949 -0.389434E-06  0.258E-04    0.11      18.3  T
  16   -752.5912950 -0.121013E-06  0.955E-05    0.11      49.6  T
  17   -752.5912950 -0.126812E-07  0.558E-05    0.11      84.9  T
     SCC iter.                  ...        0 min, 19.482 sec
     gradient                   ...        0 min,  1.323 sec
 * total energy  :  -741.1532019 Eh     change       -0.5452938E-01 Eh
   gradient norm :     0.1007944 Eh/α   predicted    -0.5823179E-01 (   6.79%)
   displ. norm   :     0.8158680 α      lambda       -0.5031204E-01
   maximum displ.:     0.4378997 α      in ANC's #136, #132, #140, ...

........................................................................
.............................. CYCLE    6 ..............................
........................................................................
   1   -752.7225546 -0.752723E+03  0.443E-02    0.09       0.0  T
   2   -752.6726111  0.499435E-01  0.189E-01    0.06       1.0  T
   3   -752.7134301 -0.408190E-01  0.835E-02    0.23       1.0  T
   4   -752.7232826 -0.985249E-02  0.376E-02    0.12       1.0  T
   5   -752.7188183  0.446428E-02  0.600E-02    0.08       1.0  T
   6   -752.7184595  0.358875E-03  0.487E-02    0.08       1.0  T
   7   -752.7197323 -0.127286E-02  0.465E-02    0.08       1.0  T
   8   -752.7247740 -0.504164E-02  0.225E-02    0.12       1.0  T
   9   -752.7249355 -0.161476E-03  0.179E-02    0.11       1.0  T
  10   -752.7255983 -0.662852E-03  0.657E-03    0.11       1.0  T
  11   -752.7256422 -0.439451E-04  0.520E-03    0.11       1.0  T
  12   -752.7257120 -0.697670E-04  0.754E-04    0.11       6.3  T
  13   -752.7257133 -0.130674E-05  0.207E-04    0.11      22.8  T
  14   -752.7257132  0.166444E-06  0.322E-04    0.11      14.7  T
  15   -752.7257133 -0.166431E-06  0.159E-04    0.11      29.9  T
  16   -752.7257134 -0.362546E-07  0.865E-05    0.11      54.7  T
     SCC iter.                  ...        0 min, 19.554 sec
     gradient                   ...        0 min,  1.322 sec
 * total energy  :  -741.1963721 Eh     change       -0.4317018E-01 Eh
   gradient norm :     0.0595257 Eh/α   predicted    -0.4190090E-01 (  -2.94%)
   displ. norm   :     0.8816585 α      lambda       -0.4098291E-01
   maximum displ.:     0.5253866 α      in ANC's #136, #140, #214, ...

........................................................................
.............................. CYCLE    7 ..............................
........................................................................
   1   -752.8442274 -0.752844E+03  0.384E-02    0.08       0.0  T
   2   -752.8187614  0.254660E-01  0.134E-01    0.32       1.0  T
   3   -752.8417306 -0.229692E-01  0.522E-02    0.16       1.0  T
   4   -752.8455786 -0.384803E-02  0.318E-02    0.11       1.0  T
   5   -752.8392248  0.635377E-02  0.552E-02    0.07       1.0  T
   6   -752.8450600 -0.583520E-02  0.284E-02    0.09       1.0  T
   7   -752.8462523 -0.119225E-02  0.131E-02    0.11       1.0  T
   8   -752.8465059 -0.253566E-03  0.113E-02    0.11       1.0  T
   9   -752.8467516 -0.245774E-03  0.555E-03    0.10       1.0  T
  10   -752.8467810 -0.294105E-04  0.441E-03    0.10       1.1  T
  11   -752.8468211 -0.400169E-04  0.132E-03    0.11       3.6  T
  12   -752.8468248 -0.378405E-05  0.285E-04    0.11      16.6  T
  13   -752.8468250 -0.108135E-06  0.171E-04    0.11      27.7  T
  14   -752.8468250 -0.643613E-07  0.630E-05    0.11      75.1  T
     SCC iter.                  ...        0 min, 16.899 sec
     gradient                   ...        0 min,  1.312 sec
 * total energy  :  -741.2323839 Eh     change       -0.3601184E-01 Eh
   gradient norm :     0.0461888 Eh/α   predicted    -0.3641993E-01 (   1.13%)
   displ. norm   :     0.9236508 α      lambda       -0.3569851E-01
   maximum displ.:     0.5542054 α      in ANC's #136, #132, #140, ...

........................................................................
.............................. CYCLE    8 ..............................
........................................................................
   1   -752.9692665 -0.752969E+03  0.344E-02    0.08       0.0  T
   2   -752.9490661  0.202004E-01  0.119E-01    0.19       1.0  T
   3   -752.9616257 -0.125596E-01  0.632E-02    0.09       1.0  T
   4   -752.9676630 -0.603736E-02  0.440E-02    0.14       1.0  T
   5   -752.9703576 -0.269455E-02  0.284E-02    0.11       1.0  T
   6   -752.9686793  0.167825E-02  0.353E-02    0.08       1.0  T
   7   -752.9706112 -0.193187E-02  0.168E-02    0.10       1.0  T
   8   -752.9705156  0.955719E-04  0.201E-02    0.11       1.0  T
   9   -752.9713509 -0.835310E-03  0.788E-03    0.10       1.0  T
  10   -752.9714195 -0.685578E-04  0.650E-03    0.10       1.0  T
  11   -752.9715149 -0.953555E-04  0.263E-03    0.10       1.8  T
  12   -752.9715198 -0.488967E-05  0.228E-03    0.10       2.1  T
  13   -752.9715277 -0.794107E-05  0.132E-03    0.10       3.6  T
  14   -752.9715317 -0.405525E-05  0.265E-04    0.10      17.9  T
  15   -752.9715318 -0.893522E-07  0.180E-04    0.10      26.4  T
  16   -752.9715319 -0.482996E-07  0.108E-04    0.10      43.7  T
     SCC iter.                  ...        0 min, 19.475 sec
     gradient                   ...        0 min,  1.371 sec
 * total energy  :  -741.2625830 Eh     change       -0.3019910E-01 Eh
   gradient norm :     0.0432001 Eh/α   predicted    -0.3307701E-01 (   9.53%)
   displ. norm   :     0.9220900 α      lambda       -0.3164239E-01
   maximum displ.:     0.5922455 α      in ANC's #136, #140, #109, ...

........................................................................
.............................. CYCLE    9 ..............................
........................................................................
   1   -753.0678925 -0.753068E+03  0.247E-02    0.09       0.0  T
   2   -753.0509695  0.169230E-01  0.103E-01    0.19       1.0  T
   3   -753.0643900 -0.134205E-01  0.448E-02    0.10       1.0  T
   4   -753.0673312 -0.294128E-02  0.298E-02    0.13       1.0  T
   5   -753.0682130 -0.881718E-03  0.264E-02    0.09       1.0  T
   6   -753.0680251  0.187849E-03  0.211E-02    0.09       1.0  T
   7   -753.0689379 -0.912755E-03  0.854E-03    0.10       1.0  T
   8   -753.0686276  0.310218E-03  0.125E-02    0.10       1.0  T
   9   -753.0690736 -0.445985E-03  0.274E-03    0.10       1.7  T
  10   -753.0690382  0.354678E-04  0.411E-03    0.10       1.2  T
  11   -753.0690871 -0.489606E-04  0.896E-04    0.10       5.3  T
  12   -753.0690887 -0.154133E-05  0.300E-04    0.10      15.8  T
  13   -753.0690889 -0.192682E-06  0.119E-04    0.10      39.7  T
  14   -753.0690889 -0.320259E-07  0.450E-05    0.10     105.3  T
     SCC iter.                  ...        0 min, 18.344 sec
     gradient                   ...        0 min,  1.340 sec
 * total energy  :  -741.2894822 Eh     change       -0.2689920E-01 Eh
   gradient norm :     0.0475944 Eh/α   predicted    -0.2927317E-01 (   8.83%)
   displ. norm   :     0.8971439 α      lambda       -0.2692189E-01
   maximum displ.:     0.5928437 α      in ANC's #136, #140, #132, ...

........................................................................
.............................. CYCLE   10 ..............................
........................................................................
   1   -753.1483952 -0.753148E+03  0.188E-02    0.10       0.0  T
   2   -752.7673238  0.381071E+00  0.387E-01    0.07       1.0  T
   3   -753.1425034 -0.375180E+00  0.598E-02    0.12       1.0  T
   4   -753.1487889 -0.628550E-02  0.146E-02    0.10       1.0  T
   5   -753.1482275  0.561405E-03  0.247E-02    0.11       1.0  T
   6   -753.1489499 -0.722389E-03  0.102E-02    0.10       1.0  T
   7   -753.1481561  0.793757E-03  0.158E-02    0.10       1.0  T
   8   -753.1489423 -0.786189E-03  0.940E-03    0.11       1.0  T
   9   -753.1490870 -0.144643E-03  0.524E-03    0.10       1.0  T
  10   -753.1491130 -0.260515E-04  0.275E-03    0.10       1.7  T
  11   -753.1491252 -0.121733E-04  0.154E-03    0.10       3.1  T
  12   -753.1491296 -0.442405E-05  0.795E-04    0.10       6.0  T
  13   -753.1491303 -0.687345E-06  0.487E-04    0.10       9.7  T
  14   -753.1491308 -0.554022E-06  0.866E-05    0.10      54.7  T
  15   -753.1491308  0.607032E-07  0.190E-04    0.10      24.9  T
     SCC iter.                  ...        0 min, 17.930 sec
     gradient                   ...        0 min,  1.393 sec
 * total energy  :  -741.3128368 Eh     change       -0.2335459E-01 Eh
   gradient norm :     0.0508824 Eh/α   predicted    -0.2429522E-01 (   4.03%)
   displ. norm   :     0.9041943 α      lambda       -0.2331582E-01
   maximum displ.:     0.5970791 α      in ANC's #136, #140, #109, ...

........................................................................
.............................. CYCLE   11 ..............................
........................................................................
   1   -753.2253319 -0.753225E+03  0.146E-02    0.11       0.0  T
   2   -753.1421698  0.831622E-01  0.188E-01    0.01       1.0  T
   3   -753.2117762 -0.696064E-01  0.770E-02    0.07       1.0  T
   4   -753.2236118 -0.118356E-01  0.340E-02    0.12       1.0  T
   5   -753.2247077 -0.109586E-02  0.202E-02    0.11       1.0  T
   6   -753.2252029 -0.495231E-03  0.144E-02    0.11       1.0  T
   7   -753.2250416  0.161314E-03  0.148E-02    0.10       1.0  T
   8   -753.2254977 -0.456114E-03  0.588E-03    0.11       1.0  T
   9   -753.2255246 -0.269280E-04  0.381E-03    0.10       1.2  T
  10   -753.2255688 -0.441852E-04  0.145E-03    0.10       3.3  T
  11   -753.2255692 -0.404068E-06  0.157E-03    0.10       3.0  T
  12   -753.2255708 -0.161641E-05  0.124E-03    0.10       3.8  T
  13   -753.2255746 -0.375023E-05  0.260E-04    0.10      18.2  T
  14   -753.2255747 -0.113090E-06  0.158E-04    0.10      30.0  T
  15   -753.2255747 -0.166233E-07  0.133E-04    0.10      35.6  T
     SCC iter.                  ...        0 min, 20.418 sec
     gradient                   ...        0 min,  1.347 sec
 * total energy  :  -741.3338170 Eh     change       -0.2098024E-01 Eh
   gradient norm :     0.0270521 Eh/α   predicted    -0.2118904E-01 (   1.00%)
   displ. norm   :     0.9374816 α      lambda       -0.2115422E-01
   maximum displ.:     0.5973486 α      in ANC's #136, #109, #132, ...

........................................................................
.............................. CYCLE   12 ..............................
........................................................................
   1   -753.2894469 -0.753289E+03  0.336E-02    0.13       0.0  T
   2   -752.8505538  0.438893E+00  0.448E-01    0.01       1.0  T
   3   -753.2741499 -0.423596E+00  0.101E-01    0.08       1.0  T
   4   -753.2856745 -0.115246E-01  0.576E-02    0.13       1.0  T
   5   -753.2888548 -0.318029E-02  0.349E-02    0.13       1.0  T
   6   -753.2893362 -0.481345E-03  0.283E-02    0.11       1.0  T
   7   -753.2906031 -0.126690E-02  0.202E-02    0.12       1.0  T
   8   -753.2909949 -0.391828E-03  0.131E-02    0.12       1.0  T
   9   -753.2913019 -0.307005E-03  0.502E-03    0.11       1.0  T
  10   -753.2913125 -0.106295E-04  0.443E-03    0.10       1.1  T
  11   -753.2913210 -0.853175E-05  0.437E-03    0.10       1.1  T
  12   -753.2913510 -0.299638E-04  0.205E-03    0.11       2.3  T
  13   -753.2913605 -0.945484E-05  0.464E-04    0.11      10.2  T
  14   -753.2913609 -0.438953E-06  0.209E-04    0.11      22.7  T
  15   -753.2913610 -0.508921E-07  0.123E-04    0.11      38.4  T
  16   -753.2913610  0.480213E-09  0.102E-04    0.11      46.6  T
     SCC iter.                  ...        0 min, 18.747 sec
     gradient                   ...        0 min,  1.358 sec
 * total energy  :  -741.3519108 Eh     change       -0.1809379E-01 Eh
   gradient norm :     0.0324338 Eh/α   predicted    -0.1987303E-01 (   9.83%)
   displ. norm   :     0.9237207 α      lambda       -0.1996750E-01
   maximum displ.:     0.5655582 α      in ANC's #136, #109, #140, ...

........................................................................
.............................. CYCLE   13 ..............................
........................................................................
   1   -753.3384590 -0.753338E+03  0.444E-02    0.15       0.0  T
   2   -752.7043155  0.634144E+00  0.541E-01    0.03       1.0  T
   3   -753.3296713 -0.625356E+00  0.106E-01    0.13       1.0  T
   4   -753.3388018 -0.913048E-02  0.431E-02    0.16       1.0  T
   5   -753.3361194  0.268238E-02  0.506E-02    0.10       1.0  T
   6   -753.3409076 -0.478817E-02  0.254E-02    0.14       1.0  T
   7   -753.3415286 -0.621036E-03  0.170E-02    0.13       1.0  T
   8   -753.3419500 -0.421378E-03  0.809E-03    0.12       1.0  T
   9   -753.3419524 -0.246615E-05  0.751E-03    0.11       1.0  T
  10   -753.3419220  0.304399E-04  0.864E-03    0.10       1.0  T
  11   -753.3420460 -0.123988E-03  0.516E-03    0.11       1.0  T
  12   -753.3420983 -0.523418E-04  0.159E-03    0.11       3.0  T
  13   -753.3421032 -0.485962E-05  0.343E-04    0.11      13.8  T
  14   -753.3421034 -0.244614E-06  0.156E-04    0.11      30.3  T
  15   -753.3421035 -0.489605E-07  0.438E-05    0.11     108.0  T
     SCC iter.                  ...        0 min, 18.055 sec
     gradient                   ...        0 min,  1.397 sec
 * total energy  :  -741.3690694 Eh     change       -0.1715854E-01 Eh
   gradient norm :     0.0314864 Eh/α   predicted    -0.1850249E-01 (   7.83%)
   displ. norm   :     0.9211182 α      lambda       -0.1761308E-01
   maximum displ.:     0.5200383 α      in ANC's #136, #109, #28, ...

........................................................................
.............................. CYCLE   14 ..............................
........................................................................
   1   -753.3666185 -0.753367E+03  0.520E-02    0.19       0.0  T
   2   -752.5657541  0.800864E+00  0.605E-01    0.08       1.0  T
   3   -753.3589459 -0.793192E+00  0.106E-01    0.21       1.0  T
   4   -753.3670943 -0.814840E-02  0.483E-02    0.20       1.0  T
   5   -753.3683366 -0.124228E-02  0.410E-02    0.18       1.0  T
   6   -753.3692733 -0.936762E-03  0.327E-02    0.17       1.0  T
   7   -753.3701667 -0.893337E-03  0.244E-02    0.16       1.0  T
   8   -753.3707253 -0.558616E-03  0.184E-02    0.14       1.0  T
   9   -753.3712739 -0.548607E-03  0.988E-03    0.14       1.0  T
  10   -753.3710274  0.246432E-03  0.137E-02    0.11       1.0  T
  11   -753.3713536 -0.326126E-03  0.644E-03    0.12       1.0  T
  12   -753.3714227 -0.690955E-04  0.359E-03    0.12       1.3  T
  13   -753.3714468 -0.240854E-04  0.170E-03    0.12       2.8  T
  14   -753.3714534 -0.665713E-05  0.426E-04    0.12      11.1  T
  15   -753.3714538 -0.388520E-06  0.145E-04    0.12      32.7  T
  16   -753.3714538 -0.127845E-07  0.122E-04    0.12      38.9  T
     SCC iter.                  ...        0 min, 18.093 sec
     gradient                   ...        0 min,  1.355 sec
 * total energy  :  -741.3857174 Eh     change       -0.1664805E-01 Eh
   gradient norm :     0.0302052 Eh/α   predicted    -0.1627857E-01 (  -2.22%)
   displ. norm   :     0.9600239 α      lambda       -0.1817823E-01
   maximum displ.:     0.4802863 α      in ANC's #136, #109, #103, ...

........................................................................
.............................. CYCLE   15 ..............................
........................................................................
   1   -753.3886313 -0.753389E+03  0.572E-02    0.27       0.0  T
   2   -752.9241421  0.464489E+00  0.459E-01    0.08       1.0  T
   3   -753.3697040 -0.445562E+00  0.128E-01    0.09       1.0  T
   4   -753.3899713 -0.202673E-01  0.503E-02    0.30       1.0  T
   5   -753.3911281 -0.115686E-02  0.393E-02    0.25       1.0  T
   6   -753.3886482  0.247994E-02  0.467E-02    0.12       1.0  T
   7   -753.3925741 -0.392593E-02  0.285E-02    0.20       1.0  T
   8   -753.3933683 -0.794204E-03  0.157E-02    0.19       1.0  T
   9   -753.3930551  0.313284E-03  0.195E-02    0.12       1.0  T
  10   -753.3931587 -0.103601E-03  0.178E-02    0.12       1.0  T
  11   -753.3938419 -0.683274E-03  0.452E-03    0.14       1.0  T
  12   -753.3938707 -0.287643E-04  0.195E-03    0.15       2.4  T
  13   -753.3938771 -0.640950E-05  0.903E-04    0.15       5.2  T
  14   -753.3938785 -0.144111E-05  0.437E-04    0.15      10.8  T
  15   -753.3938789 -0.370915E-06  0.186E-04    0.15      25.4  T
  16   -753.3938790 -0.445051E-07  0.113E-04    0.15      42.1  T
     SCC iter.                  ...        0 min, 17.850 sec
     gradient                   ...        0 min,  1.318 sec
 * total energy  :  -741.4046967 Eh     change       -0.1897933E-01 Eh
   gradient norm :     0.0368587 Eh/α   predicted    -0.1746608E-01 (  -7.97%)
   displ. norm   :     0.9352297 α      lambda       -0.2061023E-01
   maximum displ.:     0.4055962 α      in ANC's #136, #103, #28, ...

........................................................................
.............................. CYCLE   16 ..............................
........................................................................
   1   -753.3971036 -0.753397E+03  0.491E-02    0.37       0.0  T
   2   -753.3634355  0.336681E-01  0.144E-01    0.07       1.0  T
   3   -753.3974658 -0.340303E-01  0.528E-02    0.40       1.0  T
   4   -753.3998376 -0.237175E-02  0.225E-02    0.32       1.0  T
   5   -753.4002365 -0.398897E-03  0.171E-02    0.23       1.0  T
   6   -753.3996711  0.565376E-03  0.211E-02    0.16       1.0  T
   7   -753.4001776 -0.506443E-03  0.112E-02    0.18       1.0  T
   8   -753.4004058 -0.228234E-03  0.296E-03    0.20       1.6  T
   9   -753.4004131 -0.731513E-05  0.137E-03    0.20       3.5  T
  10   -753.4004167 -0.356010E-05  0.324E-04    0.21      14.6  T
  11   -753.4004168 -0.145781E-06  0.124E-04    0.21      38.3  T
  12   -753.4004168 -0.865157E-08  0.793E-05    0.21      59.7  T
     SCC iter.                  ...        0 min, 14.289 sec
     gradient                   ...        0 min,  1.365 sec
 * total energy  :  -741.4275872 Eh     change       -0.2289050E-01 Eh
   gradient norm :     0.0512691 Eh/α   predicted    -0.1931855E-01 ( -15.60%)
   displ. norm   :     0.8941460 α      lambda       -0.2619315E-01
   maximum displ.:     0.3220679 α      in ANC's #136, #103, #107, ...

........................................................................
.............................. CYCLE   17 ..............................
........................................................................
   1   -753.3953673 -0.753395E+03  0.424E-02    0.56       0.0  T
   2   -753.3949714  0.395936E-03  0.654E-02    0.40       1.0  T
   3   -753.3972504 -0.227894E-02  0.186E-02    0.43       1.0  T
   4   -753.3972010  0.493631E-04  0.134E-02    0.46       1.0  T
   5   -753.3973140 -0.113029E-03  0.534E-03    0.44       1.0  T
   6   -753.3973284 -0.143816E-04  0.213E-03    0.44       2.2  T
   7   -753.3973328 -0.435001E-05  0.645E-04    0.44       7.3  T
   8   -753.3973333 -0.516273E-06  0.314E-04    0.44      15.1  T
   9   -753.3973333 -0.726099E-07  0.888E-05    0.44      53.3  T
  10   -753.3973333 -0.198065E-08  0.470E-05    0.44     100.8  T
     SCC iter.                  ...        0 min, 11.879 sec
     gradient                   ...        0 min,  1.376 sec
 * total energy  :  -741.4569534 Eh     change       -0.2936618E-01 Eh
   gradient norm :     0.0661821 Eh/α   predicted    -0.2356725E-01 ( -19.75%)
   displ. norm   :     0.8666917 α      lambda       -0.3378328E-01
   maximum displ.:     0.2555971 α      in ANC's #103, #136, #107, ...

........................................................................
.............................. CYCLE   18 ..............................
........................................................................
   1   -753.3871883 -0.753387E+03  0.388E-02    0.63       0.0  T
   2   -753.3875310 -0.342765E-03  0.462E-02    0.64       1.0  T
   3   -753.3884524 -0.921345E-03  0.153E-02    0.64       1.0  T
   4   -753.3883930  0.593892E-04  0.958E-03    0.63       1.0  T
   5   -753.3884580 -0.650223E-04  0.450E-03    0.63       1.1  T
   6   -753.3884738 -0.157692E-04  0.149E-03    0.63       3.2  T
   7   -753.3884762 -0.245819E-05  0.408E-04    0.63      11.6  T
   8   -753.3884764 -0.138012E-06  0.253E-04    0.63      18.7  T
   9   -753.3884765 -0.639751E-07  0.106E-04    0.63      44.8  T
  10   -753.3884765 -0.120011E-07  0.389E-05    0.63     121.7  T
     SCC iter.                  ...        0 min, 11.315 sec
     gradient                   ...        0 min,  1.325 sec
 * total energy  :  -741.4934169 Eh     change       -0.3646344E-01 Eh
   gradient norm :     0.0785595 Eh/α   predicted    -0.2957989E-01 ( -18.88%)
   displ. norm   :     0.8590428 α      lambda       -0.4026850E-01
   maximum displ.:     0.2468298 α      in ANC's #103, #107, #136, ...

........................................................................
.............................. CYCLE   19 ..............................
........................................................................
   1   -753.3822256 -0.753382E+03  0.369E-02    0.63       0.0  T
   2   -753.3826523 -0.426676E-03  0.388E-02    0.63       1.0  T
   3   -753.3830734 -0.421098E-03  0.164E-02    0.63       1.0  T
   4   -753.3829488  0.124582E-03  0.109E-02    0.63       1.0  T
   5   -753.3830695 -0.120664E-03  0.346E-03    0.63       1.4  T
   6   -753.3830841 -0.145851E-04  0.131E-03    0.63       3.6  T
   7   -753.3830864 -0.231079E-05  0.546E-04    0.63       8.7  T
   8   -753.3830868 -0.423480E-06  0.163E-04    0.63      29.0  T
   9   -753.3830868 -0.110838E-07  0.946E-05    0.63      50.1  T
     SCC iter.                  ...        0 min, 13.851 sec
     gradient                   ...        0 min,  1.384 sec
 * total energy  :  -741.5340866 Eh     change       -0.4066972E-01 Eh
   gradient norm :     0.0808105 Eh/α   predicted    -0.3499243E-01 ( -13.96%)
   displ. norm   :     0.9544628 α      lambda       -0.5231635E-01
   maximum displ.:     0.2380259 α      in ANC's #103, #107, #83, ...

........................................................................
.............................. CYCLE   20 ..............................
........................................................................
   1   -753.3803231 -0.753380E+03  0.542E-02    0.65       0.0  T
   2   -753.3809920 -0.668887E-03  0.577E-02    0.65       1.0  T
   3   -753.3817545 -0.762493E-03  0.284E-02    0.65       1.0  T
   4   -753.3811932  0.561348E-03  0.226E-02    0.65       1.0  T
   5   -753.3817614 -0.568214E-03  0.437E-03    0.65       1.1  T
   6   -753.3817764 -0.149899E-04  0.172E-03    0.65       2.7  T
   7   -753.3817805 -0.414597E-05  0.776E-04    0.65       6.1  T
   8   -753.3817814 -0.908267E-06  0.210E-04    0.65      22.6  T
   9   -753.3817815 -0.240835E-07  0.116E-04    0.65      41.0  T
  10   -753.3817815 -0.132129E-07  0.540E-05    0.65      87.7  T
     SCC iter.                  ...        0 min, 11.900 sec
     gradient                   ...        0 min,  1.417 sec
 * total energy  :  -741.5703503 Eh     change       -0.3626367E-01 Eh
   gradient norm :     0.0932404 Eh/α   predicted    -0.4998830E-01 (  37.85%)
   displ. norm   :     0.7771921 α      lambda       -0.3342456E-01
   maximum displ.:     0.2733256 α      in ANC's #107, #49, #118, ...
 * RMSD in coord.:     0.6304400 α      energy gain  -0.1249597E+01 Eh

generating ANC from model Hessian ...
Using Lindh-Hessian (1995)
 Shifting diagonal of input Hessian by    1.0181957962521351E-002
 Lowest  eigenvalues of input Hessian
    0.010000    0.010140    0.010180    0.010181    0.010182    0.010182
    0.000000    0.000000    0.000000    0.000000    0.000000    0.000000
    0.010182    0.010182    0.010182    0.010183    0.010183    0.010185
 Highest eigenvalues
    2.286441    2.353830    2.770511    2.772302    2.772565    2.775957


........................................................................
.............................. CYCLE   21 ..............................
........................................................................
   1   -753.3771694 -0.753377E+03  0.237E-02    0.64       0.0  T
   2   -753.3772123 -0.428579E-04  0.269E-02    0.64       1.0  T
   3   -753.3774287 -0.216391E-03  0.121E-02    0.64       1.0  T
   4   -753.3773155  0.113161E-03  0.107E-02    0.64       1.0  T
   5   -753.3774309 -0.115373E-03  0.193E-03    0.64       2.5  T
   6   -753.3774334 -0.251440E-05  0.627E-04    0.64       7.5  T
   7   -753.3774339 -0.548411E-06  0.275E-04    0.64      17.2  T
   8   -753.3774341 -0.109521E-06  0.719E-05    0.64      65.9  T
   9   -753.3774341 -0.302430E-08  0.426E-05    0.64     111.2  T
     SCC iter.                  ...        0 min, 11.939 sec
     gradient                   ...        0 min,  1.360 sec
 * total energy  :  -741.5932678 Eh     change       -0.2291754E-01 Eh
   gradient norm :     0.0897318 Eh/α   predicted     0.0000000E+00 (-100.00%)
   displ. norm   :     0.6871493 α      lambda       -0.2980454E-01
   maximum displ.:     0.3206157 α      in ANC's #123, #138, #72, ...

........................................................................
.............................. CYCLE   22 ..............................
........................................................................
   1   -753.4435617 -0.753444E+03  0.141E-02    0.64       0.0  T
   2   -753.4435648 -0.305023E-05  0.110E-02    0.64       1.0  T
   3   -753.4435844 -0.196339E-04  0.619E-03    0.64       1.0  T
   4   -753.4435846 -0.207661E-06  0.475E-03    0.64       1.0  T
   5   -753.4436108 -0.261858E-04  0.863E-04    0.64       5.5  T
   6   -753.4436114 -0.599177E-06  0.412E-04    0.64      11.5  T
   7   -753.4436117 -0.295956E-06  0.115E-04    0.64      41.2  T
   8   -753.4436117 -0.156602E-07  0.362E-05    0.64     130.9  T
     SCC iter.                  ...        0 min, 11.102 sec
     gradient                   ...        0 min,  1.411 sec
 * total energy  :  -741.6192453 Eh     change       -0.2597748E-01 Eh
   gradient norm :     0.0503958 Eh/α   predicted    -0.2193921E-01 ( -15.55%)
   displ. norm   :     0.8801046 α      lambda       -0.3127905E-01
   maximum displ.:     0.3997836 α      in ANC's #123, #138, #72, ...

........................................................................
.............................. CYCLE   23 ..............................
........................................................................
   1   -753.5059609 -0.753506E+03  0.148E-02    0.65       0.0  T
   2   -753.5059711 -0.101338E-04  0.123E-02    0.65       1.0  T
   3   -753.5060180 -0.469204E-04  0.625E-03    0.65       1.0  T
   4   -753.5060010  0.169801E-04  0.577E-03    0.65       1.0  T
   5   -753.5060371 -0.360637E-04  0.110E-03    0.65       4.3  T
   6   -753.5060380 -0.948405E-06  0.499E-04    0.65       9.5  T
   7   -753.5060384 -0.438481E-06  0.130E-04    0.65      36.3  T
   8   -753.5060385 -0.182563E-07  0.492E-05    0.65      96.3  T
     SCC iter.                  ...        0 min,  9.141 sec
     gradient                   ...        0 min,  1.338 sec
 * total energy  :  -741.6425974 Eh     change       -0.2335208E-01 Eh
   gradient norm :     0.0494299 Eh/α   predicted    -0.2775366E-01 (  18.85%)
   displ. norm   :     0.8706636 α      lambda       -0.2750395E-01
   maximum displ.:     0.3993641 α      in ANC's #123, #72, #138, ...

........................................................................
.............................. CYCLE   24 ..............................
........................................................................
   1   -753.5423144 -0.753542E+03  0.106E-02    0.66       0.0  T
   2   -753.5423219 -0.755593E-05  0.954E-03    0.66       1.0  T
   3   -753.5423630 -0.410449E-04  0.420E-03    0.66       1.1  T
   4   -753.5423442  0.187914E-04  0.460E-03    0.66       1.0  T
   5   -753.5423679 -0.237104E-04  0.102E-03    0.66       4.6  T
   6   -753.5423686 -0.655585E-06  0.453E-04    0.66      10.4  T
   7   -753.5423689 -0.342539E-06  0.117E-04    0.66      40.5  T
   8   -753.5423689 -0.142953E-07  0.421E-05    0.66     112.4  T
     SCC iter.                  ...        0 min,  9.850 sec
     gradient                   ...        0 min,  1.365 sec
 * total energy  :  -741.6607835 Eh     change       -0.1818618E-01 Eh
   gradient norm :     0.0446788 Eh/α   predicted    -0.2417674E-01 (  32.94%)
   displ. norm   :     0.8328999 α      lambda       -0.2234672E-01
   maximum displ.:     0.3753034 α      in ANC's #123, #1, #72, ...

........................................................................
.............................. CYCLE   25 ..............................
........................................................................
   1   -753.5624653 -0.753562E+03  0.885E-03    0.65       0.0  T
   2   -753.5624648  0.509513E-06  0.666E-03    0.65       1.0  T
   3   -753.5624611  0.371243E-05  0.420E-03    0.65       1.1  T
   4   -753.5624713 -0.101967E-04  0.254E-03    0.65       1.9  T
   5   -753.5624796 -0.829725E-05  0.627E-04    0.65       7.5  T
   6   -753.5624801 -0.572409E-06  0.209E-04    0.65      22.6  T
   7   -753.5624802 -0.560805E-07  0.892E-05    0.65      53.1  T
   8   -753.5624802 -0.922728E-08  0.302E-05    0.65     156.7  T
     SCC iter.                  ...        0 min,  9.421 sec
     gradient                   ...        0 min,  1.338 sec
 * total energy  :  -741.6735424 Eh     change       -0.1275884E-01 Eh
   gradient norm :     0.0590573 Eh/α   predicted    -0.1892457E-01 (  48.33%)
   displ. norm   :     0.7545045 α      lambda       -0.2480100E-01
   maximum displ.:     0.3368426 α      in ANC's #123, #72, #138, ...

........................................................................
.............................. CYCLE   26 ..............................
........................................................................
   1   -753.6018517 -0.753602E+03  0.163E-02    0.65       0.0  T
   2   -753.6018795 -0.278203E-04  0.125E-02    0.65       1.0  T
   3   -753.6018852 -0.570803E-05  0.690E-03    0.65       1.0  T
   4   -753.6018578  0.273625E-04  0.500E-03    0.65       1.0  T
   5   -753.6018992 -0.413763E-04  0.128E-03    0.65       3.7  T
   6   -753.6019021 -0.284043E-05  0.362E-04    0.65      13.1  T
   7   -753.6019022 -0.179028E-06  0.116E-04    0.65      40.9  T
   8   -753.6019023 -0.174875E-07  0.361E-05    0.65     131.2  T
     SCC iter.                  ...        0 min,  9.788 sec
     gradient                   ...        0 min,  1.352 sec
 * total energy  :  -741.6896905 Eh     change       -0.1614816E-01 Eh
   gradient norm :     0.0499919 Eh/α   predicted    -0.1945982E-01 (  20.51%)
   displ. norm   :     0.8052172 α      lambda       -0.1735154E-01
   maximum displ.:     0.3794620 α      in ANC's #123, #72, #138, ...

........................................................................
.............................. CYCLE   27 ..............................
........................................................................
   1   -753.6402482 -0.753640E+03  0.774E-03    0.65       0.0  T
   2   -753.6402411  0.707873E-05  0.712E-03    0.65       1.0  T
   3   -753.6402676 -0.265609E-04  0.321E-03    0.65       1.5  T
   4   -753.6402583  0.931526E-05  0.325E-03    0.65       1.5  T
   5   -753.6402723 -0.139579E-04  0.439E-04    0.65      10.8  T
   6   -753.6402724 -0.124559E-06  0.257E-04    0.65      18.4  T
   7   -753.6402725 -0.106530E-06  0.734E-05    0.65      64.5  T
   8   -753.6402725 -0.456203E-08  0.310E-05    0.65     152.8  T
     SCC iter.                  ...        0 min, 10.068 sec
     gradient                   ...        0 min,  1.378 sec
 * total energy  :  -741.7034741 Eh     change       -0.1378357E-01 Eh
   gradient norm :     0.0340365 Eh/α   predicted    -0.1430093E-01 (   3.75%)
   displ. norm   :     0.8850647 α      lambda       -0.1568702E-01
   maximum displ.:     0.4063438 α      in ANC's #123, #72, #71, ...

........................................................................
.............................. CYCLE   28 ..............................
........................................................................
   1   -753.6752590 -0.753675E+03  0.780E-03    0.65       0.0  T
   2   -753.6752557  0.327119E-05  0.741E-03    0.65       1.0  T
   3   -753.6752906 -0.349140E-04  0.315E-03    0.65       1.5  T
   4   -753.6752789  0.117388E-04  0.349E-03    0.65       1.4  T
   5   -753.6752943 -0.154222E-04  0.567E-04    0.65       8.3  T
   6   -753.6752944 -0.721000E-07  0.346E-04    0.65      13.7  T
   7   -753.6752946 -0.195974E-06  0.881E-05    0.65      53.7  T
   8   -753.6752946 -0.793682E-08  0.308E-05    0.65     153.8  T
     SCC iter.                  ...        0 min,  9.060 sec
     gradient                   ...        0 min,  1.368 sec
 * total energy  :  -741.7166078 Eh     change       -0.1313365E-01 Eh
   gradient norm :     0.0255299 Eh/α   predicted    -0.1398765E-01 (   6.50%)
   displ. norm   :     0.8936229 α      lambda       -0.1313447E-01
   maximum displ.:     0.3977692 α      in ANC's #123, #72, #71, ...

........................................................................
.............................. CYCLE   29 ..............................
........................................................................
   1   -753.7108956 -0.753711E+03  0.689E-03    0.65       0.0  T
   2   -753.7108918  0.371037E-05  0.574E-03    0.65       1.0  T
   3   -753.7109068 -0.149822E-04  0.278E-03    0.65       1.7  T
   4   -753.7109053  0.152433E-05  0.260E-03    0.65       1.8  T
   5   -753.7109135 -0.817622E-05  0.476E-04    0.65       9.9  T
   6   -753.7109137 -0.210522E-06  0.227E-04    0.65      20.9  T
   7   -753.7109138 -0.803333E-07  0.713E-05    0.65      66.5  T
   8   -753.7109138 -0.454554E-08  0.281E-05    0.65     168.7  T
     SCC iter.                  ...        0 min,  9.015 sec
     gradient                   ...        0 min,  1.317 sec
 * total energy  :  -741.7276893 Eh     change       -0.1108153E-01 Eh
   gradient norm :     0.0226486 Eh/α   predicted    -0.1181158E-01 (   6.59%)
   displ. norm   :     0.9034142 α      lambda       -0.1235903E-01
   maximum displ.:     0.3767557 α      in ANC's #72, #123, #71, ...

........................................................................
.............................. CYCLE   30 ..............................
........................................................................
   1   -753.7473467 -0.753747E+03  0.600E-03    0.64       0.0  T
   2   -753.7473453  0.134623E-05  0.467E-03    0.65       1.0  T
   3   -753.7473540 -0.862703E-05  0.242E-03    0.64       2.0  T
   4   -753.7473562 -0.222752E-05  0.213E-03    0.64       2.2  T
   5   -753.7473608 -0.462605E-05  0.515E-04    0.65       9.2  T
   6   -753.7473611 -0.303934E-06  0.200E-04    0.65      23.7  T
   7   -753.7473612 -0.589896E-07  0.716E-05    0.64      66.1  T
     SCC iter.                  ...        0 min,  7.483 sec
     gradient                   ...        0 min,  1.324 sec
 * total energy  :  -741.7369930 Eh     change       -0.9303682E-02 Eh
   gradient norm :     0.0270630 Eh/α   predicted    -0.1122297E-01 (  20.63%)
   displ. norm   :     0.8460411 α      lambda       -0.1031046E-01
   maximum displ.:     0.4113842 α      in ANC's #72, #123, #28, ...

........................................................................
.............................. CYCLE   31 ..............................
........................................................................
   1   -753.7788951 -0.753779E+03  0.586E-03    0.65       0.0  T
   2   -753.7788904  0.470340E-05  0.521E-03    0.65       1.0  T
   3   -753.7789097 -0.192938E-04  0.238E-03    0.65       2.0  T
   4   -753.7789090  0.659498E-06  0.216E-03    0.65       2.2  T
   5   -753.7789137 -0.473705E-05  0.510E-04    0.65       9.3  T
   6   -753.7789140 -0.264857E-06  0.233E-04    0.65      20.3  T
   7   -753.7789141 -0.883722E-07  0.583E-05    0.65      81.2  T
   8   -753.7789141 -0.319415E-08  0.232E-05    0.65     204.1  T
     SCC iter.                  ...        0 min,  8.582 sec
     gradient                   ...        0 min,  1.323 sec
 * total energy  :  -741.7456359 Eh     change       -0.8642913E-02 Eh
   gradient norm :     0.0164496 Eh/α   predicted    -0.8845275E-02 (   2.34%)
   displ. norm   :     0.8890562 α      lambda       -0.9200599E-02
   maximum displ.:     0.4086932 α      in ANC's #72, #28, #71, ...

........................................................................
.............................. CYCLE   32 ..............................
........................................................................
   1   -753.8056248 -0.753806E+03  0.498E-03    0.65       0.0  T
   2   -753.8056222  0.261994E-05  0.467E-03    0.65       1.0  T
   3   -753.8056414 -0.191626E-04  0.180E-03    0.65       2.6  T
   4   -753.8056390  0.232802E-05  0.198E-03    0.65       2.4  T
   5   -753.8056431 -0.410810E-05  0.505E-04    0.65       9.4  T
   6   -753.8056433 -0.152181E-06  0.236E-04    0.65      20.0  T
   7   -753.8056434 -0.935879E-07  0.572E-05    0.65      82.8  T
   8   -753.8056434 -0.317880E-08  0.227E-05    0.65     208.7  T
     SCC iter.                  ...        0 min,  8.916 sec
     gradient                   ...        0 min,  1.318 sec
 * total energy  :  -741.7526941 Eh     change       -0.7058223E-02 Eh
   gradient norm :     0.0242530 Eh/α   predicted    -0.8236484E-02 (  16.69%)
   displ. norm   :     0.8525699 α      lambda       -0.8349560E-02
   maximum displ.:     0.4375697 α      in ANC's #72, #28, #71, ...

........................................................................
.............................. CYCLE   33 ..............................
........................................................................
   1   -753.8304656 -0.753830E+03  0.406E-03    0.65       0.0  T
   2   -753.8304649  0.694185E-06  0.355E-03    0.65       1.3  T
   3   -753.8304735 -0.861942E-05  0.163E-03    0.65       2.9  T
   4   -753.8304727  0.762079E-06  0.150E-03    0.65       3.2  T
   5   -753.8304752 -0.241680E-05  0.328E-04    0.65      14.4  T
   6   -753.8304752 -0.408061E-07  0.188E-04    0.65      25.2  T
   7   -753.8304753 -0.630372E-07  0.446E-05    0.65     106.3  T
     SCC iter.                  ...        0 min,  7.920 sec
     gradient                   ...        0 min,  1.349 sec
 * total energy  :  -741.7597494 Eh     change       -0.7055258E-02 Eh
   gradient norm :     0.0158674 Eh/α   predicted    -0.7209310E-02 (   2.18%)
   displ. norm   :     0.8845995 α      lambda       -0.7480922E-02
   maximum displ.:     0.4491684 α      in ANC's #72, #28, #71, ...

........................................................................
.............................. CYCLE   34 ..............................
........................................................................
   1   -753.8531827 -0.753853E+03  0.372E-03    0.65       0.0  T
   2   -753.8531832 -0.470387E-06  0.291E-03    0.65       1.6  T
   3   -753.8531868 -0.364448E-05  0.154E-03    0.65       3.1  T
   4   -753.8531869 -0.111765E-06  0.131E-03    0.65       3.6  T
   5   -753.8531889 -0.190565E-05  0.309E-04    0.65      15.3  T
   6   -753.8531889 -0.465444E-07  0.150E-04    0.65      31.7  T
   7   -753.8531889 -0.369151E-07  0.465E-05    0.65     101.8  T
     SCC iter.                  ...        0 min,  8.504 sec
     gradient                   ...        0 min,  1.329 sec
 * total energy  :  -741.7658868 Eh     change       -0.6137464E-02 Eh
   gradient norm :     0.0177494 Eh/α   predicted    -0.6667455E-02 (   8.64%)
   displ. norm   :     0.8821558 α      lambda       -0.6842291E-02
   maximum displ.:     0.4440762 α      in ANC's #72, #28, #71, ...

........................................................................
.............................. CYCLE   35 ..............................
........................................................................
   1   -753.8733198 -0.753873E+03  0.338E-03    0.65       0.0  T
   2   -753.8733203 -0.500806E-06  0.275E-03    0.65       1.7  T
   3   -753.8733241 -0.382460E-05  0.137E-03    0.65       3.4  T
   4   -753.8733239  0.230626E-06  0.121E-03    0.65       3.9  T
   5   -753.8733255 -0.167109E-05  0.308E-04    0.65      15.4  T
   6   -753.8733256 -0.504265E-07  0.133E-04    0.65      35.6  T
   7   -753.8733256 -0.227411E-07  0.547E-05    0.65      86.6  T
     SCC iter.                  ...        0 min,  8.355 sec
     gradient                   ...        0 min,  1.323 sec
 * total energy  :  -741.7719819 Eh     change       -0.6095101E-02 Eh
   gradient norm :     0.0131524 Eh/α   predicted    -0.6083486E-02 (  -0.19%)
   displ. norm   :     0.9074872 α      lambda       -0.6518875E-02
   maximum displ.:     0.4236684 α      in ANC's #72, #28, #71, ...

........................................................................
.............................. CYCLE   36 ..............................
........................................................................
   1   -753.8880262 -0.753888E+03  0.358E-03    0.65       0.0  T
   2   -753.8880292 -0.292699E-05  0.254E-03    0.65       1.9  T
   3   -753.8880316 -0.241490E-05  0.128E-03    0.65       3.7  T
   4   -753.8880312  0.389729E-06  0.115E-03    0.65       4.1  T
   5   -753.8880327 -0.146494E-05  0.369E-04    0.65      12.8  T
   6   -753.8880327 -0.886081E-07  0.141E-04    0.65      33.5  T
   7   -753.8880328 -0.192894E-07  0.578E-05    0.65      81.9  T
     SCC iter.                  ...        0 min,  8.844 sec
     gradient                   ...        0 min,  1.380 sec
 * total energy  :  -741.7773467 Eh     change       -0.5364720E-02 Eh
   gradient norm :     0.0154785 Eh/α   predicted    -0.5943699E-02 (  10.79%)
   displ. norm   :     0.8811201 α      lambda       -0.6023829E-02
   maximum displ.:     0.4349302 α      in ANC's #72, #28, #47, ...

........................................................................
.............................. CYCLE   37 ..............................
........................................................................
   1   -753.9016541 -0.753902E+03  0.345E-03    0.65       0.0  T
   2   -753.9016570 -0.285527E-05  0.211E-03    0.65       2.2  T
   3   -753.9016582 -0.125030E-05  0.116E-03    0.65       4.1  T
   4   -753.9016585 -0.210526E-06  0.911E-04    0.65       5.2  T
   5   -753.9016592 -0.753309E-06  0.358E-04    0.65      13.2  T
   6   -753.9016593 -0.124329E-06  0.120E-04    0.65      39.3  T
   7   -753.9016593 -0.122361E-07  0.555E-05    0.65      85.3  T
     SCC iter.                  ...        0 min,  8.716 sec
     gradient                   ...        0 min,  1.416 sec
 * total energy  :  -741.7827172 Eh     change       -0.5370575E-02 Eh
   gradient norm :     0.0099407 Eh/α   predicted    -0.5350291E-02 (  -0.38%)
   displ. norm   :     0.9182650 α      lambda       -0.5326844E-02
   maximum displ.:     0.4254339 α      in ANC's #28, #72, #47, ...

........................................................................
.............................. CYCLE   38 ..............................
........................................................................
   1   -753.9130533 -0.753913E+03  0.347E-03    0.65       0.0  T
   2   -753.9130563 -0.309125E-05  0.208E-03    0.65       2.3  T
   3   -753.9130576 -0.124063E-05  0.110E-03    0.65       4.3  T
   4   -753.9130576 -0.533481E-07  0.828E-04    0.65       5.7  T
   5   -753.9130581 -0.486745E-06  0.374E-04    0.65      12.7  T
   6   -753.9130583 -0.166873E-06  0.120E-04    0.65      39.4  T
   7   -753.9130583 -0.109338E-07  0.494E-05    0.65      95.9  T
     SCC iter.                  ...        0 min,  8.764 sec
     gradient                   ...        0 min,  1.392 sec
 * total energy  :  -741.7874911 Eh     change       -0.4773861E-02 Eh
   gradient norm :     0.0098171 Eh/α   predicted    -0.4909249E-02 (   2.84%)
   displ. norm   :     0.9191628 α      lambda       -0.5162033E-02
   maximum displ.:     0.4390267 α      in ANC's #28, #72, #47, ...

........................................................................
.............................. CYCLE   39 ..............................
........................................................................
   1   -753.9227199 -0.753923E+03  0.320E-03    0.65       0.0  T
   2   -753.9227225 -0.260642E-05  0.191E-03    0.65       2.5  T
   3   -753.9227237 -0.124192E-05  0.101E-03    0.65       4.7  T
   4   -753.9227239 -0.175392E-06  0.702E-04    0.65       6.7  T
   5   -753.9227241 -0.238533E-06  0.368E-04    0.65      12.9  T
   6   -753.9227243 -0.183889E-06  0.112E-04    0.65      42.1  T
   7   -753.9227243 -0.113209E-07  0.488E-05    0.65      97.0  T
     SCC iter.                  ...        0 min,  9.399 sec
     gradient                   ...        0 min,  1.411 sec
 * total energy  :  -741.7918058 Eh     change       -0.4314666E-02 Eh
   gradient norm :     0.0122397 Eh/α   predicted    -0.4761620E-02 (  10.36%)
   displ. norm   :     0.8773157 α      lambda       -0.4680132E-02
   maximum displ.:     0.4389005 α      in ANC's #28, #72, #47, ...

........................................................................
.............................. CYCLE   40 ..............................
........................................................................
   1   -753.9323858 -0.753932E+03  0.300E-03    0.65       0.0  T
   2   -753.9323880 -0.223595E-05  0.184E-03    0.65       2.6  T
   3   -753.9323891 -0.110228E-05  0.966E-04    0.65       4.9  T
   4   -753.9323892 -0.771020E-07  0.758E-04    0.65       6.2  T
   5   -753.9323897 -0.462196E-06  0.339E-04    0.65      14.0  T
   6   -753.9323898 -0.132412E-06  0.104E-04    0.65      45.5  T
   7   -753.9323898 -0.971340E-08  0.454E-05    0.65     104.4  T
     SCC iter.                  ...        0 min,  9.530 sec
     gradient                   ...        0 min,  1.437 sec
 * total energy  :  -741.7959666 Eh     change       -0.4160796E-02 Eh
   gradient norm :     0.0086948 Eh/α   predicted    -0.4141198E-02 (  -0.47%)
   displ. norm   :     0.8992195 α      lambda       -0.4101490E-02
   maximum displ.:     0.4715281 α      in ANC's #28, #72, #47, ...

........................................................................
.............................. CYCLE   41 ..............................
........................................................................
   1   -753.9439347 -0.753944E+03  0.259E-03    0.65       0.0  T
   2   -753.9439362 -0.144101E-05  0.160E-03    0.65       3.0  T
   3   -753.9439370 -0.815039E-06  0.878E-04    0.65       5.4  T
   4   -753.9439371 -0.164281E-06  0.677E-04    0.65       7.0  T
   5   -753.9439375 -0.404707E-06  0.269E-04    0.65      17.6  T
   6   -753.9439376 -0.754326E-07  0.944E-05    0.65      50.2  T
   7   -753.9439376 -0.804141E-08  0.473E-05    0.65     100.0  T
     SCC iter.                  ...        0 min,  7.907 sec
     gradient                   ...        0 min,  1.340 sec
 * total energy  :  -741.7998159 Eh     change       -0.3849318E-02 Eh
   gradient norm :     0.0070096 Eh/α   predicted    -0.3708979E-02 (  -3.65%)
   displ. norm   :     0.9108843 α      lambda       -0.3987218E-02
   maximum displ.:     0.4969073 α      in ANC's #28, #47, #72, ...

........................................................................
.............................. CYCLE   42 ..............................
........................................................................
   1   -753.9557482 -0.753956E+03  0.244E-03    0.65       0.0  T
   2   -753.9557493 -0.114792E-05  0.152E-03    0.65       3.1  T
   3   -753.9557500 -0.616579E-06  0.894E-04    0.65       5.3  T
   4   -753.9557502 -0.226934E-06  0.665E-04    0.65       7.1  T
   5   -753.9557506 -0.433178E-06  0.243E-04    0.65      19.5  T
   6   -753.9557507 -0.560282E-07  0.905E-05    0.65      52.3  T
   7   -753.9557507 -0.839293E-08  0.426E-05    0.65     111.2  T
     SCC iter.                  ...        0 min,  7.717 sec
     gradient                   ...        0 min,  1.334 sec
 * total energy  :  -741.8033058 Eh     change       -0.3489897E-02 Eh
   gradient norm :     0.0092350 Eh/α   predicted    -0.3647729E-02 (   4.52%)
   displ. norm   :     0.8708218 α      lambda       -0.3868144E-02
   maximum displ.:     0.4907705 α      in ANC's #28, #47, #41, ...
 * RMSD in coord.:     0.7774547 α      energy gain  -0.2329555E+00 Eh

generating ANC from model Hessian ...
Using Lindh-Hessian (1995)
 Shifting diagonal of input Hessian by    1.0000805556211169E-002
 Lowest  eigenvalues of input Hessian
    0.010000    0.010000    0.010000    0.010000    0.010001    0.010001
    0.000000    0.000000    0.000000    0.000000    0.000000    0.000000
    0.010001    0.010001    0.010002    0.010003    0.010004    0.010006
 Highest eigenvalues
    2.754038    2.754144    2.760918    2.761307    2.797135    2.799863


........................................................................
.............................. CYCLE   43 ..............................
........................................................................
   1   -753.9677897 -0.753968E+03  0.225E-03    0.65       0.0  T
   2   -753.9677908 -0.109593E-05  0.137E-03    0.65       3.4  T
   3   -753.9677912 -0.422666E-06  0.816E-04    0.65       5.8  T
   4   -753.9677913 -0.688435E-07  0.585E-04    0.65       8.1  T
   5   -753.9677917 -0.341613E-06  0.224E-04    0.65      21.1  T
   6   -753.9677917 -0.517731E-07  0.797E-05    0.65      59.4  T
   7   -753.9677917 -0.722366E-08  0.349E-05    0.65     135.5  T
     SCC iter.                  ...        0 min,  8.017 sec
     gradient                   ...        0 min,  1.418 sec
 * total energy  :  -741.8068285 Eh     change       -0.3522765E-02 Eh
   gradient norm :     0.0061606 Eh/α   predicted     0.0000000E+00 (-100.00%)
   displ. norm   :     0.3353647 α      lambda       -0.1351618E-02
   maximum displ.:     0.2090378 α      in ANC's #28, #29, #45, ...

........................................................................
.............................. CYCLE   44 ..............................
........................................................................
   1   -753.9701219 -0.753970E+03  0.858E-04    0.65       0.0  T
   2   -753.9701220 -0.143274E-06  0.572E-04    0.65       8.3  T
   3   -753.9701221 -0.140294E-06  0.293E-04    0.65      16.2  T
   4   -753.9701222 -0.845739E-08  0.209E-04    0.65      22.6  T
   5   -753.9701222 -0.335206E-07  0.819E-05    0.65      57.8  T
   6   -753.9701222 -0.718603E-08  0.280E-05    0.65     169.1  T
     SCC iter.                  ...        0 min,  7.712 sec
     gradient                   ...        0 min,  1.401 sec
 * total energy  :  -741.8081381 Eh     change       -0.1309528E-02 Eh
   gradient norm :     0.0046582 Eh/α   predicted    -0.7523718E-03 ( -42.55%)
   displ. norm   :     0.7644360 α      lambda       -0.2977024E-02
   maximum displ.:     0.4257907 α      in ANC's #28, #29, #45, ...

........................................................................
.............................. CYCLE   45 ..............................
........................................................................
   1   -753.9748478 -0.753975E+03  0.204E-03    0.65       0.0  T
   2   -753.9748486 -0.791690E-06  0.136E-03    0.65       3.5  T
   3   -753.9748494 -0.774469E-06  0.718E-04    0.65       6.6  T
   4   -753.9748495 -0.826698E-07  0.495E-04    0.65       9.6  T
   5   -753.9748496 -0.167543E-06  0.198E-04    0.65      23.9  T
   6   -753.9748497 -0.463413E-07  0.650E-05    0.65      72.9  T
     SCC iter.                  ...        0 min,  7.437 sec
     gradient                   ...        0 min,  1.387 sec
 * total energy  :  -741.8109061 Eh     change       -0.2768080E-02 Eh
   gradient norm :     0.0073705 Eh/α   predicted    -0.2358351E-02 ( -14.80%)
   displ. norm   :     0.8906888 α      lambda       -0.3449434E-02
   maximum displ.:     0.4961439 α      in ANC's #28, #29, #45, ...

........................................................................
.............................. CYCLE   46 ..............................
........................................................................
   1   -753.9827095 -0.753983E+03  0.205E-03    0.65       0.0  T
   2   -753.9827103 -0.748386E-06  0.132E-03    0.65       3.6  T
   3   -753.9827109 -0.644603E-06  0.792E-04    0.65       6.0  T
   4   -753.9827111 -0.188893E-06  0.489E-04    0.65       9.7  T
   5   -753.9827113 -0.150925E-06  0.207E-04    0.65      22.9  T
   6   -753.9827113 -0.608926E-07  0.635E-05    0.65      74.5  T
   7   -753.9827113 -0.475211E-08  0.251E-05    0.65     188.3  T
     SCC iter.                  ...        0 min,  8.227 sec
     gradient                   ...        0 min,  1.401 sec
 * total energy  :  -741.8141229 Eh     change       -0.3216714E-02 Eh
   gradient norm :     0.0086777 Eh/α   predicted    -0.3092981E-02 (  -3.85%)
   displ. norm   :     0.9187610 α      lambda       -0.3355238E-02
   maximum displ.:     0.5191830 α      in ANC's #28, #29, #45, ...

........................................................................
.............................. CYCLE   47 ..............................
........................................................................
   1   -753.9945855 -0.753995E+03  0.175E-03    0.65       0.0  T
   2   -753.9945862 -0.677277E-06  0.116E-03    0.65       4.1  T
[...]
   217   6 C      219   6 C                                       1.3972384
   214   6 C      220   6 C                                       1.3971002
   219   6 C      220   6 C                                       1.3836271
   213   6 C      221   6 C                                       1.3962888
   221   6 C      222   6 C                                       1.4513979
   222   6 C      223   6 C                                       1.3496923
   221   6 C      224   7 N                                       1.3622711
   223   6 C      225   6 C                                       1.4489036
   224   7 N      225   6 C                                       1.3480109
   225   6 C      226   6 C                                       1.4101249
   226   6 C      227   6 C                                       1.4091793
   227   6 C      228   6 C                                       1.4181439
   228   6 C      229   6 C                                       1.3688069
   229   6 C      230   6 C                                       1.4208026
   227   6 C      231   7 N                                       1.3626778
   230   6 C      231   7 N                                       1.3698050
   230   6 C      232   6 C                                       1.4014281
   233   6 C      234   6 C                                       1.3972153
   234   6 C      235   6 C                                       1.3835768
   235   6 C      236   6 C                                       1.3972519
   236   6 C      237   7 N                                       1.3840572
   236   6 C      238   6 C                                       1.3973268
   233   6 C      239   6 C                                       1.3973182
   238   6 C      239   6 C                                       1.3833351
   232   6 C      240   6 C                                       1.3965079
   240   6 C      241   6 C                                       1.4514189
   241   6 C      242   6 C                                       1.3497130
   207   6 C      243   6 C                                       1.4101097
   242   6 C      243   6 C                                       1.4488688
   240   6 C      244   7 N                                       1.3622388
   243   6 C      244   7 N                                       1.3480798
   209   6 C      245   1 H                                       1.0780782
   210   6 C      246   1 H                                       1.0777339
   212   7 N      247   1 H                                       1.0145254
   215   6 C      248   1 H                                       1.0844734
   216   6 C      249   1 H                                       1.0845476
   218   7 N      250   1 H                                       1.0075406
   218   7 N      251   1 H                                       1.0075318
   219   6 C      252   1 H                                       1.0845897
   220   6 C      253   1 H                                       1.0846300
   222   6 C      254   1 H                                       1.0780272
   223   6 C      255   1 H                                       1.0783873
   228   6 C      256   1 H                                       1.0780733
   229   6 C      257   1 H                                       1.0777160
   231   7 N      258   1 H                                       1.0145223
   234   6 C      259   1 H                                       1.0846329
   235   6 C      260   1 H                                       1.0845850
   237   7 N      261   1 H                                       1.0075283
   237   7 N      262   1 H                                       1.0075055
   238   6 C      263   1 H                                       1.0845465
   239   6 C      264   1 H                                       1.0844688
   241   6 C      265   1 H                                       1.0780209
   242   6 C      266   1 H                                       1.0783921
   267   6 C      268   6 C                                       1.4091815
   268   6 C      269   6 C                                       1.4181839
   269   6 C      270   6 C                                       1.3688240
   270   6 C      271   6 C                                       1.4207550
   268   6 C      272   7 N                                       1.3626126
   271   6 C      272   7 N                                       1.3698031
   271   6 C      273   6 C                                       1.4012945
   274   6 C      275   6 C                                       1.3972282
   275   6 C      276   6 C                                       1.3833739
   276   6 C      277   6 C                                       1.3972920
   277   6 C      278   7 N                                       1.3842364
   277   6 C      279   6 C                                       1.3972196
   274   6 C      280   6 C                                       1.3971049
   279   6 C      280   6 C                                       1.3836308
   273   6 C      281   6 C                                       1.3963653
   281   6 C      282   6 C                                       1.4513918
   282   6 C      283   6 C                                       1.3496910
   281   6 C      284   7 N                                       1.3622993
   283   6 C      285   6 C                                       1.4489624
   284   7 N      285   6 C                                       1.3479925
   285   6 C      286   6 C                                       1.4101319
   286   6 C      287   6 C                                       1.4091889
   287   6 C      288   6 C                                       1.4181432
   288   6 C      289   6 C                                       1.3688191
   289   6 C      290   6 C                                       1.4207913
   287   6 C      291   7 N                                       1.3626615
   290   6 C      291   7 N                                       1.3697881
   290   6 C      292   6 C                                       1.4013563
   293   6 C      294   6 C                                       1.3971981
   294   6 C      295   6 C                                       1.3835706
   295   6 C      296   6 C                                       1.3972605
   296   6 C      297   7 N                                       1.3841598
   296   6 C      298   6 C                                       1.3972825
   293   6 C      299   6 C                                       1.3972653
   298   6 C      299   6 C                                       1.3833809
   292   6 C      300   6 C                                       1.3964810
   300   6 C      301   6 C                                       1.4513953
   301   6 C      302   6 C                                       1.3496883
   267   6 C      303   6 C                                       1.4101400
   302   6 C      303   6 C                                       1.4488768
   300   6 C      304   7 N                                       1.3622352
   303   6 C      304   7 N                                       1.3480898
   269   6 C      305   1 H                                       1.0780707
   270   6 C      306   1 H                                       1.0777329
   272   7 N      307   1 H                                       1.0145300
   275   6 C      308   1 H                                       1.0844704
   276   6 C      309   1 H                                       1.0845398
   278   7 N      310   1 H                                       1.0075705
   278   7 N      311   1 H                                       1.0075574
   279   6 C      312   1 H                                       1.0845839
   280   6 C      313   1 H                                       1.0846216
   282   6 C      314   1 H                                       1.0780320
   283   6 C      315   1 H                                       1.0783888
   288   6 C      316   1 H                                       1.0780808
   289   6 C      317   1 H                                       1.0777195
   291   7 N      318   1 H                                       1.0145261
   294   6 C      319   1 H                                       1.0846245
   295   6 C      320   1 H                                       1.0845845
   297   7 N      321   1 H                                       1.0075515
   297   7 N      322   1 H                                       1.0075499
   298   6 C      323   1 H                                       1.0845428
   299   6 C      324   1 H                                       1.0844746
   301   6 C      325   1 H                                       1.0780177
   302   6 C      326   1 H                                       1.0783776
   327   6 C      328   6 C                                       1.4091813
   328   6 C      329   6 C                                       1.4181461
   329   6 C      330   6 C                                       1.3688080
   330   6 C      331   6 C                                       1.4208035
   328   6 C      332   7 N                                       1.3626611
   331   6 C      332   7 N                                       1.3697624
   331   6 C      333   6 C                                       1.4012742
   334   6 C      335   6 C                                       1.3972099
   335   6 C      336   6 C                                       1.3833773
   336   6 C      337   6 C                                       1.3972447
   337   6 C      338   7 N                                       1.3842743
   337   6 C      339   6 C                                       1.3972533
   334   6 C      340   6 C                                       1.3971503
   339   6 C      340   6 C                                       1.3836073
   333   6 C      341   6 C                                       1.3964284
   341   6 C      342   6 C                                       1.4513800
   342   6 C      343   6 C                                       1.3496974
   341   6 C      344   7 N                                       1.3622361
   343   6 C      345   6 C                                       1.4488865
   344   7 N      345   6 C                                       1.3480985
   345   6 C      346   6 C                                       1.4100931
   346   6 C      347   6 C                                       1.4091508
   347   6 C      348   6 C                                       1.4181758
   348   6 C      349   6 C                                       1.3688276
   349   6 C      350   6 C                                       1.4207943
   347   6 C      351   7 N                                       1.3626877
   350   6 C      351   7 N                                       1.3697660
   350   6 C      352   6 C                                       1.4013626
   353   6 C      354   6 C                                       1.3971216
   354   6 C      355   6 C                                       1.3836528
   355   6 C      356   6 C                                       1.3972277
   356   6 C      357   7 N                                       1.3842624
   356   6 C      358   6 C                                       1.3972879
   353   6 C      359   6 C                                       1.3973074
   358   6 C      359   6 C                                       1.3833177
   352   6 C      360   6 C                                       1.3964449
   360   6 C      361   6 C                                       1.4514457
   361   6 C      362   6 C                                       1.3496764
   327   6 C      363   6 C                                       1.4100936
   362   6 C      363   6 C                                       1.4489089
   360   6 C      364   7 N                                       1.3622872
   363   6 C      364   7 N                                       1.3480177
   329   6 C      365   1 H                                       1.0780811
   330   6 C      366   1 H                                       1.0777237
   332   7 N      367   1 H                                       1.0145298
   335   6 C      368   1 H                                       1.0844619
   336   6 C      369   1 H                                       1.0845340
   338   7 N      370   1 H                                       1.0075895
   338   7 N      371   1 H                                       1.0075649
   339   6 C      372   1 H                                       1.0845853
   340   6 C      373   1 H                                       1.0846291
   342   6 C      374   1 H                                       1.0780240
   343   6 C      375   1 H                                       1.0783821
   348   6 C      376   1 H                                       1.0780817
   349   6 C      377   1 H                                       1.0777361
   351   7 N      378   1 H                                       1.0145300
   354   6 C      379   1 H                                       1.0846324
   355   6 C      380   1 H                                       1.0845921
   357   7 N      381   1 H                                       1.0075751
   357   7 N      382   1 H                                       1.0075612
   358   6 C      383   1 H                                       1.0845383
   359   6 C      384   1 H                                       1.0844646
   361   6 C      385   1 H                                       1.0780163
   362   6 C      386   1 H                                       1.0783881
   387   6 C      388   6 C                                       1.4090007
   388   6 C      389   6 C                                       1.4182648
   389   6 C      390   6 C                                       1.3687289
   390   6 C      391   6 C                                       1.4209041
   388   6 C      392   7 N                                       1.3626806
   391   6 C      392   7 N                                       1.3698334
   391   6 C      393   6 C                                       1.4011091
   394   6 C      395   6 C                                       1.3971748
   395   6 C      396   6 C                                       1.3834152
   396   6 C      397   6 C                                       1.3972767
   397   6 C      398   7 N                                       1.3842221
   397   6 C      399   6 C                                       1.3972159
   394   6 C      400   6 C                                       1.3971382
   399   6 C      400   6 C                                       1.3835987
   393   6 C      401   6 C                                       1.3966307
   401   6 C      402   6 C                                       1.4515587
   402   6 C      403   6 C                                       1.3495781
   401   6 C      404   7 N                                       1.3618336
   403   6 C      405   6 C                                       1.4489784
   404   7 N      405   6 C                                       1.3485015
   405   6 C      406   6 C                                       1.4094651
   406   6 C      407   6 C                                       1.4086487
   407   6 C      408   6 C                                       1.4183883
   408   6 C      409   6 C                                       1.3686752
   409   6 C      410   6 C                                       1.4209093
   407   6 C      411   7 N                                       1.3628498
   410   6 C      411   7 N                                       1.3697023
   410   6 C      412   6 C                                       1.4012048
   413   6 C      414   6 C                                       1.3970427
   414   6 C      415   6 C                                       1.3836810
   415   6 C      416   6 C                                       1.3972297
   416   6 C      417   7 N                                       1.3841854
   416   6 C      418   6 C                                       1.3972861
   413   6 C      419   6 C                                       1.3972640
   418   6 C      419   6 C                                       1.3833343
   412   6 C      420   6 C                                       1.3964142
   420   6 C      421   6 C                                       1.4514872
   421   6 C      422   6 C                                       1.3496165
   387   6 C      423   6 C                                       1.4100984
   422   6 C      423   6 C                                       1.4489643
   420   6 C      424   7 N                                       1.3621854
   423   6 C      424   7 N                                       1.3480656
   389   6 C      425   1 H                                       1.0780833
   390   6 C      426   1 H                                       1.0777376
   392   7 N      427   1 H                                       1.0145359
   395   6 C      428   1 H                                       1.0844656
   396   6 C      429   1 H                                       1.0845406
   398   7 N      430   1 H                                       1.0075396
   398   7 N      431   1 H                                       1.0075353
   399   6 C      432   1 H                                       1.0845801
   400   6 C      433   1 H                                       1.0846253
   402   6 C      434   1 H                                       1.0780102
   403   6 C      435   1 H                                       1.0783771
   408   6 C      436   1 H                                       1.0780793
   409   6 C      437   1 H                                       1.0777358
   411   7 N      438   1 H                                       1.0145340
   414   6 C      439   1 H                                       1.0846299
   415   6 C      440   1 H                                       1.0845845
   417   7 N      441   1 H                                       1.0075480
   417   7 N      442   1 H                                       1.0075140
   418   6 C      443   1 H                                       1.0845422
   419   6 C      444   1 H                                       1.0844678
   421   6 C      445   1 H                                       1.0780144
   422   6 C      446   1 H                                       1.0783798

 * 4 distinct bonds (by element types)

   Z      Z             #   av. dist./Å        max./Å        min./Å
   1 H    6 C         114     1.0814070     1.0855073     1.0777160
   6 C    6 C         234     1.3920543     1.4518207     1.2224572
   1 H    7 N          42     1.0098791     1.0147235     1.0074960
   6 C    7 N          70     1.3654075     1.3842889     1.3479849


optimized geometry written to: xtbopt.xyz


           -------------------------------------------------
          | TOTAL ENERGY             -741.908434400905 Eh   |
          | GRADIENT NORM               0.000542063529 Eh/α |
          | HOMO-LUMO GAP               0.626619719612 eV   |
           -------------------------------------------------

------------------------------------------------------------------------
 * finished run on 2022/07/29 at 15:14:12.951     
------------------------------------------------------------------------
 total:
 * wall-time:     0 d,  0 h, 27 min, 21.999 sec
 *  cpu-time:     0 d,  0 h, 27 min, 13.108 sec
 * ratio c/w:     0.995 speedup
 SCF:
 * wall-time:     0 d,  0 h,  1 min, 22.105 sec
 *  cpu-time:     0 d,  0 h,  1 min, 21.704 sec
 * ratio c/w:     0.995 speedup
 ANC optimizer:
 * wall-time:     0 d,  0 h, 25 min, 59.262 sec
 *  cpu-time:     0 d,  0 h, 25 min, 50.807 sec
 * ratio c/w:     0.995 speedup

