      -----------------------------------------------------------      
     |                   =====================                   |     
     |                           x T B                           |     
     |                   =====================                   |     
     |                         S. Grimme                         |     
     |          Mulliken Center for Theoretical Chemistry        |     
     |                    University of Bonn                     |     
      -----------------------------------------------------------      

   * xtb version 6.5.1 (b24c23e) compiled by 'conda@728c89f4b128' on 2022-07-12

   xtb is free software: you can redistribute it and/or modify it under
   the terms of the GNU Lesser General Public License as published by
   the Free Software Foundation, either version 3 of the License, or
   (at your option) any later version.
   
   xtb is distributed in the hope that it will be useful,
   but WITHOUT ANY WARRANTY; without even the implied warranty of
   MERCHANTABILITY or FITNESS FOR A PARTICULAR PURPOSE.  See the
   GNU Lesser General Public License for more details.
   
   Cite this work as:
   * C. Bannwarth, E. Caldeweyher, S. Ehlert, A. Hansen, P. Pracht,
     J. Seibert, S. Spicher, S. Grimme, WIREs Comput. Mol. Sci., 2020, 11,
     e01493. DOI: 10.1002/wcms.1493
   
   for GFN2-xTB:
   * C. Bannwarth, S. Ehlert and S. Grimme., J. Chem. Theory Comput., 2019,
     15, 1652-1671. DOI: 10.1021/acs.jctc.8b01176
   for GFN1-xTB:
   * S. Grimme, C. Bannwarth, P. Shushkov, J. Chem. Theory Comput., 2017,
     13, 1989-2009. DOI: 10.1021/acs.jctc.7b00118
   for GFN0-xTB:
   * P. Pracht, E. Caldeweyher, S. Ehlert, S. Grimme, ChemRxiv, 2019, preprint.
     DOI: 10.26434/chemrxiv.8326202.v1
   for GFN-FF:
   * S. Spicher and S. Grimme, Angew. Chem. Int. Ed., 2020, 59, 15665-15673.
     DOI: 10.1002/anie.202004239
   
   for ALPB and GBSA implicit solvation:
   * S. Ehlert, M. Stahn, S. Spicher, S. Grimme, J. Chem. Theory Comput.,
     2021, 17, 4250-4261. DOI: 10.1021/acs.jctc.1c00471
   
   for DFT-D4:
   * E. Caldeweyher, C. Bannwarth and S. Grimme, J. Chem. Phys., 2017,
     147, 034112. DOI: 10.1063/1.4993215
   * E. Caldeweyher, S. Ehlert, A. Hansen, H. Neugebauer, S. Spicher,
     C. Bannwarth and S. Grimme, J. Chem. Phys., 2019, 150, 154122.
     DOI: 10.1063/1.5090222
   * E. Caldeweyher, J.-M. Mewes, S. Ehlert and S. Grimme, Phys. Chem. Chem. Phys.
     2020, 22, 8499-8512. DOI: 10.1039/D0CP00502A
   
   for sTDA-xTB:
   * S. Grimme and C. Bannwarth, J. Chem. Phys., 2016, 145, 054103.
     DOI: 10.1063/1.4959605
   
   in the mass-spec context:
   * V. Asgeirsson, C. Bauer and S. Grimme, Chem. Sci., 2017, 8, 4879.
     DOI: 10.1039/c7sc00601b
   * J. Koopman and S. Grimme, ACS Omega 2019, 4, 12, 15120-15133.
     DOI: 10.1021/acsomega.9b02011
   
   for metadynamics refer to:
   * S. Grimme, J. Chem. Theory Comput., 2019, 155, 2847-2862
     DOI: 10.1021/acs.jctc.9b00143
   
   for SPH calculations refer to:
   * S. Spicher and S. Grimme, J. Chem. Theory Comput., 2021, 17, 1701-1714
     DOI: 10.1021/acs.jctc.0c01306
   
   with help from (in alphabetical order)
   P. Atkinson, C. Bannwarth, F. Bohle, G. Brandenburg, E. Caldeweyher
   M. Checinski, S. Dohm, S. Ehlert, S. Ehrlich, I. Gerasimov, C. Hölzer
   A. Katbashev, J. Koopman, C. Lavigne, S. Lehtola, F. März, M. Müller,
   F. Musil, H. Neugebauer, J. Pisarek, C. Plett, P. Pracht, F. Pultar,
   J. Seibert, P. Shushkov, S. Spicher, M. Stahn, M. Steiner, T. Strunk,
   J. Stückrath, T. Rose, and J. Unsleber
   
 * started run on 2022/07/27 at 08:17:39.931     

           -------------------------------------------------
          |                Calculation Setup                |
           -------------------------------------------------

          program call               : xtb xtbopt.xyz --gfn 1 --vipea
          hostname                   : cx3-6-14.cx3.hpc.ic.ac.uk
          coordinate file            : xtbopt.xyz
          omp threads                :                     1

   ID    Z sym.   atoms
    1    6 C      1-5, 7-10, 12-16, 18-23, 25-28, 30-35, 56-60, 62-65, 67-71,
                  73-78, 80-83, 85-90, 111-145, 147-150, 152-156, 158-163,
                  165-168, 170-175, 195-199, 201-204, 206-210, 212-217,
                  219-222, 224-229, 249-253, 255-258, 260-264, 266-271,
                  273-276, 278-283, 303-307, 309-312, 314-318, 320-325,
                  327-330, 332-337
    2    7 N      6, 11, 17, 24, 29, 36, 61, 66, 72, 79, 84, 91, 146, 151,
                  157, 164, 169, 176, 200, 205, 211, 218, 223, 230, 254, 259,
                  265, 272, 277, 284, 308, 313, 319, 326, 331, 338
    3    1 H      37-55, 92-110, 177-194, 231-248, 285-302, 339-356

           -------------------------------------------------
          |                 I P E A - x T B                 |
           -------------------------------------------------

        Reference                      10.1039/c7sc00601b
      * Hamiltonian:
        H0-scaling (s, p, d)           2.150000    2.300000    2.000000
        zeta-weighting                 0.000000
      * Dispersion:
        s8                             2.400000
        a1                             0.630000
        a2                             5.000000
        s9                             0.000000
      * Repulsion:
        kExp                           1.500000
        rExp                           1.000000
      * Coulomb:
        alpha                          1.000000
        third order                    atomic
        anisotropic                    false
      * Halogen bond correction:
        rad-scale                      1.300000
        damping                        0.440000


          ...................................................
          :                      SETUP                      :
          :.................................................:
          :  # basis functions                1450          :
          :  # atomic orbitals                1450          :
          :  # shells                          958          :
          :  # electrons                      1130          :
          :  # halogen bonds                     0          :
          :  max. iterations                   250          :
          :  Hamiltonian                  GFN1-xTB          :
          :  restarted?                      false          :
          :  GBSA solvation                  false          :
          :  PC potential                    false          :
          :  electronic temp.          300.0000000     K    :
          :  accuracy                    1.0000000          :
          :  -> integral cutoff          0.2500000E+02      :
          :  -> integral neglect         0.1000000E-07      :
          :  -> SCF convergence          0.1000000E-05 Eh   :
          :  -> wf. convergence          0.2000000E-04 e    :
          :  Broyden damping             0.4000000          :
          ...................................................

 iter      E             dE          RMSdq      gap      omega  full diag
   1   -716.0393768 -0.716039E+03  0.103E+01    0.62       0.0  T
   2   -716.2748206 -0.235444E+00  0.641E+00    1.13       1.0  T
   3   -702.1961157  0.140787E+02  0.518E+00    0.18       1.0  T
   4   -718.5799918 -0.163839E+02  0.996E-01    1.04       1.0  T
   5   -719.3587732 -0.778781E+00  0.269E-01    0.96       1.0  T
   6   -719.4107079 -0.519347E-01  0.107E-01    0.96       1.0  T
   7   -719.4167666 -0.605871E-02  0.536E-02    0.96       1.0  T
   8   -719.4179542 -0.118760E-02  0.325E-02    0.95       1.0  T
   9   -719.4182210 -0.266736E-03  0.214E-02    0.95       1.0  T
  10   -719.4184593 -0.238345E-03  0.514E-03    0.96       1.0  T
  11   -719.4184722 -0.128776E-04  0.250E-03    0.96       2.1  T
  12   -719.4184758 -0.358625E-05  0.114E-03    0.96       4.6  T
  13   -719.4184765 -0.724220E-06  0.492E-04    0.96      10.8  T
  14   -719.4184766 -0.999659E-07  0.244E-04    0.96      21.8  T
  15   -719.4184766 -0.257039E-07  0.122E-04    0.96      43.4  T
  16   -719.4184766 -0.956572E-08  0.514E-05    0.96     103.0  T

   *** convergence criteria satisfied after 16 iterations ***

         #    Occupation            Energy/Eh            Energy/eV
      -------------------------------------------------------------
         1        2.0000           -1.0518773             -28.6230
       ...           ...                  ...                  ...
       559        2.0000           -0.3971321             -10.8065
       560        2.0000           -0.3904132             -10.6237
       561        2.0000           -0.3866338             -10.5208
       562        2.0000           -0.3821326             -10.3984
       563        2.0000           -0.3771596             -10.2630
       564        2.0000           -0.3723104             -10.1311
       565        2.0000           -0.3689319             -10.0391 (HOMO)
       566                         -0.3338143              -9.0836 (LUMO)
       567                         -0.3291531              -8.9567
       568                         -0.3235707              -8.8048
       569                         -0.3181860              -8.6583
       570                         -0.3147830              -8.5657
       ...                                ...                  ...
      1450                        551.1196008           14996.7277
      -------------------------------------------------------------
                  HL-Gap            0.0351176 Eh            0.9556 eV
             Fermi-level           -0.3513632 Eh           -9.5611 eV

 SCC (total)                   0 d,  0 h,  0 min, 17.109 sec
 SCC setup                      ...        0 min,  0.014 sec (  0.079%)
 Dispersion                     ...        0 min,  0.017 sec (  0.101%)
 classical contributions        ...        0 min,  0.004 sec (  0.026%)
 integral evaluation            ...        0 min,  1.042 sec (  6.091%)
 iterations                     ...        0 min, 13.948 sec ( 81.522%)
 molecular gradient             ...        0 min,  1.913 sec ( 11.179%)
 printout                       ...        0 min,  0.171 sec (  1.002%)

         :::::::::::::::::::::::::::::::::::::::::::::::::::::
         ::                     SUMMARY                     ::
         :::::::::::::::::::::::::::::::::::::::::::::::::::::
         :: total energy            -704.552352094509 Eh    ::
         :: gradient norm              0.105302018226 Eh/a0 ::
         :: HOMO-LUMO gap              0.955598175408 eV    ::
         ::.................................................::
         :: SCC energy              -719.418476620786 Eh    ::
         :: -> electrostatic           0.548059411698 Eh    ::
         :: repulsion energy          15.173899528204 Eh    ::
         :: dispersion energy         -0.307775001927 Eh    ::
         :: halogen bond corr.         0.000000000000 Eh    ::
         :: add. restraining           0.000000000000 Eh    ::
         :: total charge               0.000000000399 e     ::
         :::::::::::::::::::::::::::::::::::::::::::::::::::::

           ------------------------------------------------- 
          |        vertical delta SCC IP calculation        |
           ------------------------------------------------- 
   1   -719.0279320 -0.719028E+03  0.572E-02    0.96       0.0  T
   2   -719.0261859  0.174611E-02  0.625E-02    0.90       1.0  T
   3   -719.0315206 -0.533473E-02  0.314E-02    0.95       1.0  T
   4   -719.0319472 -0.426608E-03  0.236E-02    0.94       1.0  T
   5   -719.0306496  0.129761E-02  0.266E-02    0.94       1.0  T
   6   -719.0320655 -0.141587E-02  0.148E-02    0.95       1.0  T
   7   -719.0325751 -0.509639E-03  0.602E-03    0.95       1.0  T
   8   -719.0326001 -0.249924E-04  0.245E-03    0.95       2.2  T
   9   -719.0326046 -0.453288E-05  0.104E-03    0.95       5.1  T
  10   -719.0326052 -0.569943E-06  0.453E-04    0.95      11.7  T
  11   -719.0326054 -0.156445E-06  0.168E-04    0.95      31.6  T
  12   -719.0326054 -0.217426E-07  0.670E-05    0.95      79.1  T
     SCC iter.                  ...        0 min, 10.495 sec
     gradient                   ...        0 min,  2.002 sec
------------------------------------------------------------------------
empirical IP shift (eV):    4.8455
delta SCC IP (eV):    5.6546
------------------------------------------------------------------------
           ------------------------------------------------- 
          |        vertical delta SCC EA calculation        |
           ------------------------------------------------- 
   1   -719.7187264 -0.719719E+03  0.102E-01    0.14       0.0  T
   2   -719.7247053 -0.597891E-02  0.897E-02    0.04       1.0  T
   3   -719.7320564 -0.735115E-02  0.519E-02    0.10       1.0  T
   4   -719.7333371 -0.128072E-02  0.379E-02    0.07       1.0  T
   5   -719.7327041  0.633036E-03  0.280E-02    0.08       1.0  T
   6   -719.7294763  0.322783E-02  0.383E-02    0.10       1.0  T
   7   -719.7339913 -0.451501E-02  0.127E-02    0.08       1.0  T
   8   -719.7342134 -0.222161E-03  0.412E-03    0.07       1.3  T
   9   -719.7342286 -0.151400E-04  0.209E-03    0.07       2.5  T
  10   -719.7342327 -0.414489E-05  0.550E-04    0.07       9.6  T
  11   -719.7342328 -0.931254E-07  0.351E-04    0.07      15.1  T
  12   -719.7342329 -0.126821E-06  0.131E-04    0.07      40.6  T
  13   -719.7342330 -0.104358E-07  0.598E-05    0.07      88.6  T
     SCC iter.                  ...        0 min, 15.146 sec
     gradient                   ...        0 min,  1.935 sec
------------------------------------------------------------------------
empirical EA shift (eV):    4.8455
delta SCC EA (eV):    3.7467
------------------------------------------------------------------------
           -------------------------------------------------
          |                Property Printout                |
           -------------------------------------------------

    * Orbital Energies and Occupations

         #    Occupation            Energy/Eh            Energy/eV
      -------------------------------------------------------------
         1        2.0000           -1.0217543             -27.8033
       ...           ...                  ...                  ...
       554        2.0000           -0.3695784             -10.0567
       555        2.0000           -0.3695535             -10.0561
       556        2.0000           -0.3641062              -9.9078
       557        2.0000           -0.3640908              -9.9074
       558        2.0000           -0.3628619              -9.8740
       559        2.0000           -0.3628265              -9.8730
       560        2.0000           -0.3566247              -9.7043
       561        2.0000           -0.3550371              -9.6611
       562        2.0000           -0.3496009              -9.5131
       563        2.0000           -0.3439633              -9.3597
       564        2.0000           -0.3382047              -9.2030
       565        2.0000           -0.3330768              -9.0635
       566        0.8017           -0.2980339              -8.1099 (HOMO)
       567        0.1965           -0.2953689              -8.0374 (LUMO)
       568        0.0017           -0.2906761              -7.9097
       569        0.0000           -0.2866295              -7.7996
       570        0.0000           -0.2855311              -7.7697
       571        0.0000           -0.2843679              -7.7380
       572                         -0.2812074              -7.6520
       573                         -0.2800164              -7.6196
       574                         -0.2789695              -7.5911
       575                         -0.2787506              -7.5852
       576                         -0.2781505              -7.5689
       577                         -0.2749143              -7.4808
       ...                                ...                  ...
      1450                        551.1549815           14997.6904
      -------------------------------------------------------------
                  HL-Gap            0.0026650 Eh            0.0725 eV
             Fermi-level           -0.3061440 Eh           -8.3306 eV

  Mulliken/CM5 charges         n(s)   n(p)   n(d)
     1C    -0.02132 -0.06215   1.088  2.933  0.000
     2C     0.06312  0.12352   1.105  2.832  0.000
     3C    -0.03341 -0.07873   1.080  2.953  0.000
     4C    -0.03088 -0.07580   1.075  2.956  0.000
     5C     0.06436  0.12839   1.099  2.836  0.000
     6N    -0.15803 -0.51100   1.311  3.847  0.000
     7C     0.01068  0.01659   1.089  2.900  0.000
     8C     0.02363  0.01714   1.099  2.877  0.000
     9C    -0.01493 -0.06265   1.080  2.935  0.000
    10C     0.05540  0.08008   1.128  2.816  0.000
    11N    -0.25438 -0.45028   1.376  3.879  0.000
    12C     0.05469  0.07942   1.128  2.817  0.000
    13C    -0.01659 -0.06421   1.078  2.939  0.000
    14C     0.06084  0.12892   1.116  2.823  0.000
    15C    -0.03590 -0.08187   1.083  2.953  0.000
    16C    -0.03664 -0.08209   1.090  2.947  0.000
    17N    -0.28394 -0.47054   1.293  3.991  0.000
    18C     0.06560  0.13647   1.130  2.805  0.000
    19C     0.01832  0.02552   1.085  2.897  0.000
    20C     0.06744  0.13238   1.109  2.824  0.000
    21C    -0.03194 -0.07637   1.079  2.953  0.000
    22C    -0.03100 -0.07593   1.073  2.958  0.000
    23C     0.06358  0.12698   1.097  2.839  0.000
    24N    -0.15572 -0.50794   1.313  3.842  0.000
    25C     0.00977  0.01574   1.089  2.902  0.000
    26C     0.02348  0.01701   1.099  2.877  0.000
    27C    -0.01622 -0.06386   1.078  2.938  0.000
    28C     0.05486  0.07957   1.128  2.817  0.000
    29N    -0.25475 -0.45060   1.376  3.879  0.000
    30C     0.05487  0.07955   1.128  2.817  0.000
    31C    -0.01557 -0.06328   1.080  2.936  0.000
    32C     0.06227  0.13172   1.119  2.818  0.000
    33C    -0.03606 -0.08202   1.085  2.951  0.000
    34C    -0.03824 -0.08463   1.091  2.947  0.000
    35C     0.06013  0.12582   1.125  2.815  0.000
    36N    -0.28666 -0.47367   1.292  3.995  0.000
    37H     0.03047  0.08949   0.970  0.000  0.000
    38H     0.04170  0.09838   0.958  0.000  0.000
    39H     0.03442  0.09317   0.966  0.000  0.000
    40H     0.16500  0.37330   0.835  0.000  0.000
    41H     0.02976  0.08788   0.970  0.000  0.000
    42H     0.03270  0.09863   0.967  0.000  0.000
    43H     0.03158  0.09750   0.968  0.000  0.000
    44H     0.02905  0.08717   0.971  0.000  0.000
    45H     0.02547  0.08428   0.975  0.000  0.000
    46H     0.02758  0.08567   0.972  0.000  0.000
    47H     0.03728  0.09539   0.963  0.000  0.000
    48H     0.03479  0.09362   0.965  0.000  0.000
    49H     0.16372  0.37198   0.836  0.000  0.000
    50H     0.02965  0.08778   0.970  0.000  0.000
    51H     0.03209  0.09800   0.968  0.000  0.000
    52H     0.03167  0.09760   0.968  0.000  0.000
    53H     0.02873  0.08686   0.971  0.000  0.000
    54H     0.02481  0.08352   0.975  0.000  0.000
    55H     0.03174  0.08818   0.968  0.000  0.000
    56C    -0.02133 -0.06216   1.088  2.933  0.000
    57C     0.06312  0.12352   1.105  2.832  0.000
    58C    -0.03342 -0.07874   1.080  2.953  0.000
    59C    -0.03089 -0.07581   1.075  2.956  0.000
    60C     0.06436  0.12838   1.099  2.836  0.000
    61N    -0.15804 -0.51101   1.311  3.847  0.000
    62C     0.01066  0.01657   1.089  2.900  0.000
    63C     0.02362  0.01713   1.099  2.877  0.000
    64C    -0.01493 -0.06264   1.080  2.935  0.000
    65C     0.05538  0.08006   1.128  2.816  0.000
    66N    -0.25436 -0.45026   1.376  3.879  0.000
    67C     0.05471  0.07945   1.128  2.817  0.000
    68C    -0.01657 -0.06420   1.078  2.939  0.000
    69C     0.06082  0.12890   1.116  2.823  0.000
    70C    -0.03588 -0.08186   1.083  2.953  0.000
    71C    -0.03666 -0.08211   1.090  2.947  0.000
    72N    -0.28392 -0.47054   1.293  3.991  0.000
    73C     0.06559  0.13647   1.130  2.805  0.000
    74C     0.01834  0.02554   1.085  2.897  0.000
    75C     0.06742  0.13236   1.109  2.824  0.000
    76C    -0.03196 -0.07640   1.079  2.953  0.000
    77C    -0.03100 -0.07594   1.073  2.958  0.000
    78C     0.06357  0.12696   1.097  2.839  0.000
    79N    -0.15572 -0.50795   1.313  3.842  0.000
    80C     0.00975  0.01573   1.089  2.902  0.000
    81C     0.02347  0.01700   1.099  2.877  0.000
    82C    -0.01621 -0.06385   1.078  2.938  0.000
    83C     0.05485  0.07956   1.128  2.817  0.000
    84N    -0.25475 -0.45060   1.376  3.879  0.000
    85C     0.05487  0.07955   1.128  2.817  0.000
    86C    -0.01557 -0.06328   1.080  2.936  0.000
    87C     0.06228  0.13172   1.119  2.818  0.000
    88C    -0.03605 -0.08202   1.085  2.951  0.000
    89C    -0.03824 -0.08463   1.091  2.947  0.000
    90C     0.06012  0.12581   1.125  2.815  0.000
    91N    -0.28667 -0.47368   1.292  3.995  0.000
    92H     0.03046  0.08948   0.970  0.000  0.000
    93H     0.04169  0.09837   0.958  0.000  0.000
    94H     0.03440  0.09315   0.966  0.000  0.000
    95H     0.16498  0.37329   0.835  0.000  0.000
    96H     0.02966  0.08780   0.970  0.000  0.000
    97H     0.03264  0.09857   0.967  0.000  0.000
    98H     0.03162  0.09754   0.968  0.000  0.000
    99H     0.02909  0.08720   0.971  0.000  0.000
   100H     0.02548  0.08428   0.975  0.000  0.000
   101H     0.02763  0.08571   0.972  0.000  0.000
   102H     0.03730  0.09541   0.963  0.000  0.000
   103H     0.03479  0.09361   0.965  0.000  0.000
   104H     0.16370  0.37198   0.836  0.000  0.000
   105H     0.02969  0.08782   0.970  0.000  0.000
   106H     0.03207  0.09799   0.968  0.000  0.000
   107H     0.03168  0.09760   0.968  0.000  0.000
   108H     0.02869  0.08683   0.971  0.000  0.000
   109H     0.02480  0.08352   0.975  0.000  0.000
   110H     0.03174  0.08818   0.968  0.000  0.000
   111C    -0.01393 -0.01403   1.077  2.937  0.000
   112C    -0.01665 -0.01675   1.075  2.942  0.000
   113C    -0.01832 -0.01909   1.062  2.956  0.000
   114C    -0.01783 -0.01946   1.090  2.927  0.000
   115C    -0.02073 -0.02147   1.060  2.961  0.000
   116C    -0.01506 -0.01665   1.094  2.921  0.000
   117C    -0.01524 -0.01534   1.076  2.939  0.000
   118C    -0.01575 -0.01585   1.076  2.940  0.000
   119C    -0.01950 -0.02024   1.061  2.958  0.000
   120C    -0.01688 -0.01846   1.092  2.925  0.000
   121C    -0.01987 -0.02061   1.061  2.959  0.000
   122C    -0.01624 -0.01783   1.092  2.924  0.000
   123C    -0.01536 -0.01546   1.076  2.940  0.000
   124C    -0.01536 -0.01546   1.076  2.940  0.000
   125C    -0.01960 -0.02034   1.061  2.959  0.000
   126C    -0.01640 -0.01798   1.092  2.924  0.000
   127C    -0.01960 -0.02034   1.061  2.959  0.000
   128C    -0.01640 -0.01799   1.092  2.924  0.000
   129C    -0.01574 -0.01584   1.076  2.940  0.000
   130C    -0.01527 -0.01537   1.076  2.939  0.000
   131C    -0.01985 -0.02060   1.061  2.959  0.000
   132C    -0.01627 -0.01786   1.092  2.924  0.000
   133C    -0.01952 -0.02026   1.061  2.958  0.000
   134C    -0.01686 -0.01845   1.092  2.925  0.000
   135C    -0.01660 -0.01670   1.075  2.942  0.000
   136C    -0.01392 -0.01402   1.077  2.937  0.000
   137C    -0.02069 -0.02143   1.060  2.961  0.000
   138C    -0.01505 -0.01663   1.094  2.921  0.000
   139C    -0.01831 -0.01908   1.062  2.956  0.000
   140C    -0.01777 -0.01940   1.090  2.927  0.000
   141C     0.01516  0.02240   1.082  2.903  0.000
   142C     0.06686  0.13178   1.109  2.824  0.000
   143C    -0.03422 -0.07866   1.078  2.957  0.000
   144C    -0.03175 -0.07666   1.073  2.958  0.000
   145C     0.06189  0.12535   1.095  2.843  0.000
   146N    -0.15542 -0.50783   1.313  3.843  0.000
   147C     0.01272  0.01855   1.090  2.897  0.000
   148C     0.02417  0.01763   1.100  2.876  0.000
   149C    -0.01476 -0.06249   1.080  2.935  0.000
   150C     0.05522  0.07990   1.128  2.816  0.000
   151N    -0.25472 -0.45062   1.376  3.879  0.000
   152C     0.05478  0.07949   1.128  2.817  0.000
   153C    -0.01600 -0.06365   1.078  2.938  0.000
   154C     0.05966  0.12770   1.115  2.826  0.000
   155C    -0.03633 -0.08231   1.084  2.953  0.000
   156C    -0.03783 -0.08329   1.089  2.948  0.000
   157N    -0.28384 -0.47007   1.292  3.992  0.000
   158C     0.06525  0.13614   1.130  2.805  0.000
   159C     0.01667  0.02392   1.083  2.900  0.000
   160C     0.06706  0.13202   1.109  2.824  0.000
   161C    -0.03341 -0.07785   1.078  2.956  0.000
   162C    -0.03149 -0.07640   1.073  2.958  0.000
   163C     0.06215  0.12558   1.095  2.843  0.000
   164N    -0.15505 -0.50749   1.313  3.842  0.000
   165C     0.01264  0.01847   1.090  2.897  0.000
   166C     0.02416  0.01761   1.100  2.876  0.000
   167C    -0.01485 -0.06259   1.080  2.935  0.000
   168C     0.05519  0.07987   1.128  2.816  0.000
   169N    -0.25465 -0.45055   1.376  3.879  0.000
   170C     0.05493  0.07965   1.128  2.817  0.000
   171C    -0.01588 -0.06352   1.078  2.938  0.000
   172C     0.05977  0.12784   1.115  2.826  0.000
   173C    -0.03626 -0.08225   1.084  2.953  0.000
   174C    -0.03815 -0.08361   1.089  2.949  0.000
   175C     0.06514  0.13598   1.130  2.805  0.000
   176N    -0.28436 -0.47055   1.292  3.993  0.000
   177H     0.03496  0.09303   0.965  0.000  0.000
   178H     0.03313  0.09200   0.967  0.000  0.000
   179H     0.16376  0.37173   0.836  0.000  0.000
   180H     0.02932  0.08746   0.971  0.000  0.000
   181H     0.03193  0.09785   0.968  0.000  0.000
   182H     0.03136  0.09729   0.969  0.000  0.000
   183H     0.02934  0.08745   0.971  0.000  0.000
   184H     0.02420  0.08306   0.976  0.000  0.000
   185H     0.02608  0.08412   0.974  0.000  0.000
   186H     0.03624  0.09431   0.964  0.000  0.000
   187H     0.03372  0.09260   0.966  0.000  0.000
   188H     0.16368  0.37165   0.836  0.000  0.000
   189H     0.02914  0.08726   0.971  0.000  0.000
   190H     0.03175  0.09768   0.968  0.000  0.000
   191H     0.03168  0.09760   0.968  0.000  0.000
   192H     0.02959  0.08771   0.970  0.000  0.000
   193H     0.02404  0.08290   0.976  0.000  0.000
   194H     0.02550  0.08355   0.974  0.000  0.000
   195C     0.01634  0.02358   1.083  2.901  0.000
   196C     0.06705  0.13200   1.109  2.824  0.000
   197C    -0.03354 -0.07798   1.078  2.956  0.000
   198C    -0.03146 -0.07638   1.073  2.958  0.000
   199C     0.06215  0.12560   1.095  2.843  0.000
   200N    -0.15512 -0.50755   1.313  3.842  0.000
   201C     0.01280  0.01863   1.090  2.897  0.000
   202C     0.02416  0.01761   1.100  2.876  0.000
   203C    -0.01478 -0.06251   1.080  2.935  0.000
   204C     0.05524  0.07992   1.128  2.816  0.000
   205N    -0.25463 -0.45052   1.376  3.879  0.000
   206C     0.05491  0.07962   1.128  2.817  0.000
   207C    -0.01589 -0.06354   1.078  2.938  0.000
   208C     0.05982  0.12784   1.115  2.826  0.000
   209C    -0.03623 -0.08222   1.084  2.953  0.000
   210C    -0.03783 -0.08329   1.089  2.948  0.000
   211N    -0.28387 -0.47010   1.292  3.992  0.000
   212C     0.06525  0.13614   1.130  2.805  0.000
   213C     0.01652  0.02376   1.083  2.900  0.000
   214C     0.06711  0.13207   1.109  2.824  0.000
   215C    -0.03339 -0.07783   1.078  2.955  0.000
   216C    -0.03138 -0.07629   1.073  2.958  0.000
   217C     0.06220  0.12564   1.095  2.843  0.000
   218N    -0.15510 -0.50754   1.313  3.842  0.000
   219C     0.01281  0.01865   1.090  2.897  0.000
   220C     0.02417  0.01762   1.100  2.876  0.000
   221C    -0.01480 -0.06253   1.080  2.935  0.000
   222C     0.05522  0.07991   1.128  2.816  0.000
   223N    -0.25461 -0.45051   1.376  3.879  0.000
   224C     0.05494  0.07966   1.128  2.817  0.000
   225C    -0.01587 -0.06352   1.078  2.938  0.000
   226C     0.05978  0.12781   1.115  2.826  0.000
   227C    -0.03629 -0.08228   1.084  2.953  0.000
   228C    -0.03796 -0.08341   1.089  2.949  0.000
   229C     0.06519  0.13608   1.130  2.805  0.000
   230N    -0.28391 -0.47013   1.292  3.992  0.000
   231H     0.03594  0.09403   0.964  0.000  0.000
   232H     0.03359  0.09247   0.966  0.000  0.000
   233H     0.16378  0.37174   0.836  0.000  0.000
   234H     0.02924  0.08738   0.971  0.000  0.000
   235H     0.03187  0.09779   0.968  0.000  0.000
   236H     0.03158  0.09751   0.968  0.000  0.000
   237H     0.02953  0.08765   0.970  0.000  0.000
   238H     0.02421  0.08307   0.976  0.000  0.000
   239H     0.02595  0.08398   0.974  0.000  0.000
   240H     0.03615  0.09423   0.964  0.000  0.000
   241H     0.03372  0.09259   0.966  0.000  0.000
   242H     0.16378  0.37175   0.836  0.000  0.000
   243H     0.02922  0.08735   0.971  0.000  0.000
   244H     0.03182  0.09775   0.968  0.000  0.000
   245H     0.03165  0.09758   0.968  0.000  0.000
   246H     0.02959  0.08770   0.970  0.000  0.000
   247H     0.02412  0.08297   0.976  0.000  0.000
   248H     0.02575  0.08378   0.974  0.000  0.000
   249C     0.01652  0.02376   1.083  2.900  0.000
   250C     0.06711  0.13207   1.109  2.824  0.000
   251C    -0.03339 -0.07783   1.078  2.955  0.000
   252C    -0.03138 -0.07629   1.073  2.958  0.000
   253C     0.06220  0.12564   1.095  2.843  0.000
   254N    -0.15510 -0.50754   1.313  3.842  0.000
   255C     0.01281  0.01865   1.090  2.897  0.000
   256C     0.02416  0.01762   1.100  2.876  0.000
   257C    -0.01480 -0.06253   1.080  2.935  0.000
   258C     0.05522  0.07990   1.128  2.816  0.000
   259N    -0.25462 -0.45052   1.376  3.879  0.000
   260C     0.05494  0.07966   1.128  2.817  0.000
   261C    -0.01587 -0.06352   1.078  2.938  0.000
   262C     0.05977  0.12780   1.115  2.826  0.000
   263C    -0.03629 -0.08228   1.084  2.953  0.000
   264C    -0.03796 -0.08341   1.089  2.949  0.000
   265N    -0.28391 -0.47012   1.292  3.992  0.000
   266C     0.06518  0.13607   1.130  2.805  0.000
   267C     0.01634  0.02358   1.083  2.901  0.000
   268C     0.06705  0.13200   1.109  2.824  0.000
   269C    -0.03354 -0.07798   1.078  2.956  0.000
   270C    -0.03146 -0.07638   1.073  2.958  0.000
   271C     0.06215  0.12560   1.095  2.843  0.000
   272N    -0.15511 -0.50755   1.313  3.842  0.000
   273C     0.01280  0.01863   1.090  2.897  0.000
   274C     0.02416  0.01762   1.100  2.876  0.000
   275C    -0.01478 -0.06251   1.080  2.935  0.000
   276C     0.05524  0.07993   1.128  2.816  0.000
   277N    -0.25463 -0.45052   1.376  3.879  0.000
   278C     0.05491  0.07962   1.128  2.817  0.000
   279C    -0.01589 -0.06354   1.078  2.938  0.000
   280C     0.05981  0.12785   1.115  2.826  0.000
   281C    -0.03624 -0.08222   1.084  2.953  0.000
   282C    -0.03783 -0.08329   1.089  2.948  0.000
   283C     0.06524  0.13614   1.130  2.805  0.000
   284N    -0.28388 -0.47010   1.292  3.992  0.000
   285H     0.03615  0.09423   0.964  0.000  0.000
   286H     0.03372  0.09259   0.966  0.000  0.000
   287H     0.16377  0.37174   0.836  0.000  0.000
   288H     0.02921  0.08734   0.971  0.000  0.000
   289H     0.03181  0.09774   0.968  0.000  0.000
   290H     0.03166  0.09758   0.968  0.000  0.000
   291H     0.02959  0.08770   0.970  0.000  0.000
   292H     0.02411  0.08297   0.976  0.000  0.000
   293H     0.02574  0.08377   0.974  0.000  0.000
   294H     0.03595  0.09403   0.964  0.000  0.000
   295H     0.03360  0.09247   0.966  0.000  0.000
   296H     0.16378  0.37175   0.836  0.000  0.000
   297H     0.02925  0.08738   0.971  0.000  0.000
   298H     0.03187  0.09780   0.968  0.000  0.000
   299H     0.03158  0.09751   0.968  0.000  0.000
   300H     0.02953  0.08765   0.970  0.000  0.000
   301H     0.02421  0.08307   0.976  0.000  0.000
   302H     0.02594  0.08398   0.974  0.000  0.000
   303C     0.01666  0.02390   1.083  2.900  0.000
   304C     0.06706  0.13202   1.109  2.824  0.000
   305C    -0.03342 -0.07786   1.078  2.956  0.000
   306C    -0.03148 -0.07640   1.073  2.958  0.000
   307C     0.06214  0.12558   1.095  2.843  0.000
   308N    -0.15506 -0.50751   1.313  3.842  0.000
   309C     0.01261  0.01845   1.090  2.897  0.000
   310C     0.02414  0.01760   1.100  2.876  0.000
   311C    -0.01485 -0.06258   1.080  2.935  0.000
   312C     0.05516  0.07985   1.128  2.816  0.000
   313N    -0.25463 -0.45053   1.376  3.879  0.000
   314C     0.05496  0.07967   1.128  2.817  0.000
   315C    -0.01585 -0.06350   1.078  2.938  0.000
   316C     0.05976  0.12783   1.115  2.826  0.000
   317C    -0.03625 -0.08223   1.084  2.952  0.000
   318C    -0.03816 -0.08362   1.089  2.949  0.000
   319N    -0.28433 -0.47056   1.292  3.993  0.000
   320C     0.06513  0.13596   1.130  2.805  0.000
   321C     0.01519  0.02244   1.082  2.903  0.000
   322C     0.06683  0.13175   1.109  2.824  0.000
   323C    -0.03424 -0.07868   1.078  2.957  0.000
   324C    -0.03175 -0.07666   1.073  2.958  0.000
   325C     0.06187  0.12534   1.095  2.843  0.000
   326N    -0.15540 -0.50783   1.313  3.843  0.000
   327C     0.01271  0.01855   1.090  2.897  0.000
   328C     0.02416  0.01762   1.100  2.876  0.000
   329C    -0.01475 -0.06249   1.080  2.935  0.000
   330C     0.05523  0.07991   1.128  2.816  0.000
   331N    -0.25472 -0.45061   1.376  3.879  0.000
   332C     0.05477  0.07949   1.128  2.817  0.000
   333C    -0.01599 -0.06363   1.078  2.938  0.000
   334C     0.05967  0.12770   1.115  2.826  0.000
   335C    -0.03632 -0.08231   1.084  2.953  0.000
   336C    -0.03783 -0.08328   1.089  2.948  0.000
   337C     0.06526  0.13616   1.130  2.805  0.000
   338N    -0.28385 -0.47008   1.292  3.992  0.000
   339H     0.03623  0.09430   0.964  0.000  0.000
   340H     0.03370  0.09257   0.966  0.000  0.000
   341H     0.16367  0.37165   0.836  0.000  0.000
   342H     0.02904  0.08718   0.971  0.000  0.000
   343H     0.03169  0.09762   0.968  0.000  0.000
   344H     0.03172  0.09765   0.968  0.000  0.000
   345H     0.02963  0.08775   0.970  0.000  0.000
   346H     0.02405  0.08290   0.976  0.000  0.000
   347H     0.02556  0.08361   0.974  0.000  0.000
   348H     0.03498  0.09305   0.965  0.000  0.000
   349H     0.03312  0.09199   0.967  0.000  0.000
   350H     0.16375  0.37173   0.836  0.000  0.000
   351H     0.02930  0.08743   0.971  0.000  0.000
   352H     0.03194  0.09787   0.968  0.000  0.000
   353H     0.03136  0.09728   0.969  0.000  0.000
   354H     0.02937  0.08749   0.971  0.000  0.000
   355H     0.02420  0.08306   0.976  0.000  0.000
   356H     0.02609  0.08413   0.974  0.000  0.000

Wiberg/Mayer (AO) data.
largest (>0.10) Wiberg bond orders for each atom

 ---------------------------------------------------------------------------
     #   Z sym  total        # sym  WBO       # sym  WBO       # sym  WBO
 ---------------------------------------------------------------------------
     1   6 C    3.814 --    35 C    1.385     2 C    1.373    37 H    0.995
     2   6 C    3.924 --     1 C    1.373     3 C    1.239     6 N    1.229
     3   6 C    3.837 --     4 C    1.599     2 C    1.239    38 H    0.992
     4   6 C    3.823 --     3 C    1.599     5 C    1.250    39 H    0.997
     5   6 C    3.897 --     7 C    1.341     4 C    1.250     6 N    1.230
     6   7 N    3.247 --     5 C    1.230     2 C    1.229    40 H    0.960
     7   6 C    3.842 --    14 C    1.368     5 C    1.341     8 C    1.050
     8   6 C    3.908 --     9 C    1.426    13 C    1.425     7 C    1.050
     9   6 C    3.870 --    10 C    1.447     8 C    1.426    41 H    0.987
                            12 C    0.101
    10   6 C    3.999 --    11 N    1.479     9 C    1.447    42 H    0.983
                            13 C    0.101
    11   7 N    2.941 --    12 C    1.479    10 C    1.479
    12   6 C    4.000 --    11 N    1.479    13 C    1.447    43 H    0.983
                             9 C    0.101
    13   6 C    3.866 --    12 C    1.447     8 C    1.425    44 H    0.987
                            10 C    0.101
    14   6 C    3.923 --     7 C    1.368    17 N    1.354    15 C    1.160
    15   6 C    3.837 --    16 C    1.694    14 C    1.160    45 H    0.997
    16   6 C    3.850 --    15 C    1.694    18 C    1.165    46 H    0.999
    17   7 N    2.566 --    18 C    1.414    14 C    1.354
    18   6 C    3.941 --    17 N    1.414    19 C    1.286    16 C    1.165
    19   6 C    3.847 --    20 C    1.286    18 C    1.286   114 C    1.221
    20   6 C    3.902 --    19 C    1.286    21 C    1.266    24 N    1.249
    21   6 C    3.832 --    22 C    1.584    20 C    1.266    47 H    0.998
    22   6 C    3.814 --    21 C    1.584    23 C    1.257    48 H    0.996
    23   6 C    3.891 --    25 C    1.342    22 C    1.257    24 N    1.222
    24   7 N    3.259 --    20 C    1.249    23 C    1.222    49 H    0.959
    25   6 C    3.827 --    32 C    1.357    23 C    1.342    26 C    1.052
    26   6 C    3.907 --    31 C    1.425    27 C    1.425    25 C    1.052
    27   6 C    3.865 --    28 C    1.448    26 C    1.425    50 H    0.987
                            30 C    0.101
    28   6 C    3.999 --    29 N    1.479    27 C    1.448    51 H    0.983
                            31 C    0.101
    29   7 N    2.940 --    28 C    1.479    30 C    1.478
    30   6 C    3.999 --    29 N    1.478    31 C    1.448    52 H    0.983
                            27 C    0.101
    31   6 C    3.869 --    30 C    1.448    26 C    1.425    53 H    0.988
                            28 C    0.101
    32   6 C    3.944 --    36 N    1.380    25 C    1.357    33 C    1.151
    33   6 C    3.842 --    34 C    1.708    32 C    1.151    54 H    0.998
    34   6 C    3.862 --    33 C    1.708    35 C    1.146    55 H    0.993
    35   6 C    3.967 --     1 C    1.385    36 N    1.374    34 C    1.146
    36   7 N    2.551 --    32 C    1.380    35 C    1.374
    37   1 H    1.032 --     1 C    0.995
    38   1 H    1.015 --     3 C    0.992
    39   1 H    1.030 --     4 C    0.997
    40   1 H    1.081 --     6 N    0.960
    41   1 H    1.053 --     9 C    0.987
    42   1 H    1.054 --    10 C    0.983
    43   1 H    1.054 --    12 C    0.983
    44   1 H    1.050 --    13 C    0.987
    45   1 H    1.034 --    15 C    0.997
    46   1 H    1.031 --    16 C    0.999
    47   1 H    1.027 --    21 C    0.998
    48   1 H    1.030 --    22 C    0.996
    49   1 H    1.085 --    24 N    0.959
    50   1 H    1.050 --    27 C    0.987
    51   1 H    1.054 --    28 C    0.983
    52   1 H    1.054 --    30 C    0.983
    53   1 H    1.053 --    31 C    0.988
    54   1 H    1.034 --    33 C    0.998
    55   1 H    1.018 --    34 C    0.993
    56   6 C    3.814 --    90 C    1.385    57 C    1.373    92 H    0.995
    57   6 C    3.924 --    56 C    1.373    58 C    1.239    61 N    1.229
    58   6 C    3.837 --    59 C    1.599    57 C    1.239    93 H    0.992
    59   6 C    3.823 --    58 C    1.599    60 C    1.250    94 H    0.997
    60   6 C    3.897 --    62 C    1.341    59 C    1.250    61 N    1.230
    61   7 N    3.247 --    60 C    1.230    57 C    1.229    95 H    0.960
    62   6 C    3.842 --    69 C    1.367    60 C    1.341    63 C    1.050
    63   6 C    3.908 --    64 C    1.426    68 C    1.425    62 C    1.050
    64   6 C    3.870 --    65 C    1.447    63 C    1.426    96 H    0.988
                            67 C    0.101
    65   6 C    3.999 --    66 N    1.479    64 C    1.447    97 H    0.983
                            68 C    0.101
    66   7 N    2.941 --    67 C    1.479    65 C    1.479
    67   6 C    4.000 --    66 N    1.479    68 C    1.447    98 H    0.983
                            64 C    0.101
    68   6 C    3.866 --    67 C    1.447    63 C    1.425    99 H    0.987
                            65 C    0.101
    69   6 C    3.923 --    62 C    1.367    72 N    1.354    70 C    1.160
    70   6 C    3.837 --    71 C    1.693    69 C    1.160   100 H    0.997
    71   6 C    3.850 --    70 C    1.693    73 C    1.165   101 H    0.999
    72   7 N    2.566 --    73 C    1.414    69 C    1.354
    73   6 C    3.941 --    72 N    1.414    74 C    1.286    71 C    1.165
    74   6 C    3.847 --    75 C    1.286    73 C    1.286   140 C    1.222
    75   6 C    3.902 --    74 C    1.286    76 C    1.266    79 N    1.249
    76   6 C    3.832 --    77 C    1.584    75 C    1.266   102 H    0.998
    77   6 C    3.814 --    76 C    1.584    78 C    1.257   103 H    0.996
    78   6 C    3.891 --    80 C    1.342    77 C    1.257    79 N    1.222
    79   7 N    3.259 --    75 C    1.249    78 C    1.222   104 H    0.959
    80   6 C    3.827 --    87 C    1.357    78 C    1.342    81 C    1.052
    81   6 C    3.907 --    86 C    1.425    82 C    1.424    80 C    1.052
    82   6 C    3.865 --    83 C    1.448    81 C    1.424   105 H    0.987
                            85 C    0.101
    83   6 C    3.999 --    84 N    1.479    82 C    1.448   106 H    0.983
                            86 C    0.101
    84   7 N    2.940 --    83 C    1.479    85 C    1.478
    85   6 C    3.999 --    84 N    1.478    86 C    1.448   107 H    0.983
                            82 C    0.101
    86   6 C    3.869 --    85 C    1.448    81 C    1.425   108 H    0.988
                            83 C    0.101
    87   6 C    3.944 --    91 N    1.380    80 C    1.357    88 C    1.151
    88   6 C    3.842 --    89 C    1.708    87 C    1.151   109 H    0.998
    89   6 C    3.862 --    88 C    1.708    90 C    1.146   110 H    0.993
    90   6 C    3.967 --    56 C    1.385    91 N    1.374    89 C    1.146
    91   7 N    2.551 --    87 C    1.380    90 C    1.374
    92   1 H    1.032 --    56 C    0.995
    93   1 H    1.015 --    58 C    0.992
    94   1 H    1.030 --    59 C    0.997
    95   1 H    1.081 --    61 N    0.960
    96   1 H    1.053 --    64 C    0.988
    97   1 H    1.054 --    65 C    0.983
    98   1 H    1.054 --    67 C    0.983
    99   1 H    1.050 --    68 C    0.987
   100   1 H    1.034 --    70 C    0.997
   101   1 H    1.031 --    71 C    0.999
   102   1 H    1.027 --    76 C    0.998
   103   1 H    1.030 --    77 C    0.996
   104   1 H    1.085 --    79 N    0.959
   105   1 H    1.050 --    82 C    0.987
   106   1 H    1.054 --    83 C    0.983
   107   1 H    1.054 --    85 C    0.983
   108   1 H    1.053 --    86 C    0.988
   109   1 H    1.034 --    88 C    0.998
   110   1 H    1.018 --    89 C    0.993
   111   6 C    3.836 --   112 C    2.374   115 C    1.358   114 C    0.171
   112   6 C    3.833 --   111 C    2.374   113 C    1.356   116 C    0.170
   113   6 C    3.808 --   114 C    2.472   112 C    1.356
   114   6 C    3.767 --   113 C    2.472    19 C    1.221   111 C    0.171
   115   6 C    3.803 --   116 C    2.468   111 C    1.358
   116   6 C    3.769 --   115 C    2.468   141 C    1.226   112 C    0.170
   117   6 C    3.834 --   118 C    2.367   121 C    1.363   120 C    0.170
   118   6 C    3.834 --   117 C    2.367   119 C    1.363   122 C    0.170
   119   6 C    3.803 --   120 C    2.463   118 C    1.363
   120   6 C    3.767 --   119 C    2.463   159 C    1.230   117 C    0.170
   121   6 C    3.803 --   122 C    2.463   117 C    1.363
   122   6 C    3.767 --   121 C    2.463   195 C    1.230   118 C    0.170
   123   6 C    3.834 --   124 C    2.368   127 C    1.362   126 C    0.170
   124   6 C    3.834 --   123 C    2.368   125 C    1.362   128 C    0.170
   125   6 C    3.804 --   126 C    2.463   124 C    1.362
   126   6 C    3.768 --   125 C    2.463   213 C    1.229   123 C    0.170
   127   6 C    3.804 --   128 C    2.463   123 C    1.362
   128   6 C    3.768 --   127 C    2.463   249 C    1.229   124 C    0.170
   129   6 C    3.834 --   130 C    2.367   133 C    1.363   132 C    0.170
   130   6 C    3.834 --   129 C    2.367   131 C    1.363   134 C    0.170
   131   6 C    3.803 --   132 C    2.463   130 C    1.363
   132   6 C    3.767 --   131 C    2.463   267 C    1.230   129 C    0.170
   133   6 C    3.803 --   134 C    2.463   129 C    1.363
   134   6 C    3.767 --   133 C    2.463   303 C    1.230   130 C    0.170
   135   6 C    3.833 --   136 C    2.373   139 C    1.357   138 C    0.170
   136   6 C    3.836 --   135 C    2.373   137 C    1.358   140 C    0.171
   137   6 C    3.803 --   138 C    2.467   136 C    1.358
   138   6 C    3.769 --   137 C    2.467   321 C    1.226   135 C    0.170
   139   6 C    3.808 --   140 C    2.472   135 C    1.357
   140   6 C    3.767 --   139 C    2.472    74 C    1.222   136 C    0.171
   141   6 C    3.828 --   175 C    1.282   142 C    1.280   116 C    1.226
   142   6 C    3.903 --   141 C    1.280   143 C    1.271   146 N    1.251
   143   6 C    3.826 --   144 C    1.577   142 C    1.271   177 H    0.998
   144   6 C    3.817 --   143 C    1.577   145 C    1.263   178 H    0.997
   145   6 C    3.884 --   147 C    1.335   144 C    1.263   146 N    1.220
   146   7 N    3.249 --   142 C    1.251   145 C    1.220   179 H    0.960
   147   6 C    3.831 --   154 C    1.373   145 C    1.335   148 C    1.050
   148   6 C    3.908 --   149 C    1.426   153 C    1.426   147 C    1.050
   149   6 C    3.869 --   150 C    1.447   148 C    1.426   180 H    0.988
                           152 C    0.101
   150   6 C    3.999 --   151 N    1.479   149 C    1.447   181 H    0.983
                           153 C    0.101
   151   7 N    2.940 --   152 C    1.479   150 C    1.479
   152   6 C    3.999 --   151 N    1.479   153 C    1.447   182 H    0.983
                           149 C    0.101
   153   6 C    3.865 --   152 C    1.447   148 C    1.426   183 H    0.987
                           150 C    0.101
   154   6 C    3.923 --   147 C    1.373   157 N    1.350   155 C    1.160
   155   6 C    3.837 --   156 C    1.692   154 C    1.160   184 H    0.998
   156   6 C    3.848 --   155 C    1.692   158 C    1.167   185 H    0.999
   157   7 N    2.549 --   158 C    1.417   154 C    1.350
   158   6 C    3.942 --   157 N    1.417   159 C    1.281   156 C    1.167
   159   6 C    3.828 --   158 C    1.281   160 C    1.278   120 C    1.230
   160   6 C    3.903 --   159 C    1.278   161 C    1.272   164 N    1.251
   161   6 C    3.826 --   162 C    1.576   160 C    1.272   186 H    0.998
   162   6 C    3.816 --   161 C    1.576   163 C    1.264   187 H    0.997
   163   6 C    3.884 --   165 C    1.334   162 C    1.264   164 N    1.221
   164   7 N    3.251 --   160 C    1.251   163 C    1.221   188 H    0.960
   165   6 C    3.831 --   172 C    1.375   163 C    1.334   166 C    1.050
   166   6 C    3.908 --   167 C    1.426   171 C    1.426   165 C    1.050
   167   6 C    3.869 --   168 C    1.447   166 C    1.426   189 H    0.988
                           170 C    0.101
   168   6 C    3.999 --   169 N    1.479   167 C    1.447   190 H    0.983
                           171 C    0.101
   169   7 N    2.940 --   170 C    1.479   168 C    1.479
   170   6 C    3.999 --   169 N    1.479   171 C    1.447   191 H    0.983
                           167 C    0.101
   171   6 C    3.865 --   170 C    1.447   166 C    1.426   192 H    0.987
                           168 C    0.101
   172   6 C    3.923 --   165 C    1.375   176 N    1.349   173 C    1.160
   173   6 C    3.838 --   174 C    1.693   172 C    1.160   193 H    0.998
   174   6 C    3.848 --   173 C    1.693   175 C    1.166   194 H    0.999
   175   6 C    3.943 --   176 N    1.416   141 C    1.282   174 C    1.166
   176   7 N    2.548 --   175 C    1.416   172 C    1.349
   177   1 H    1.028 --   143 C    0.998
   178   1 H    1.031 --   144 C    0.997
   179   1 H    1.083 --   146 N    0.960
   180   1 H    1.053 --   149 C    0.988
   181   1 H    1.054 --   150 C    0.983
   182   1 H    1.054 --   152 C    0.983
   183   1 H    1.050 --   153 C    0.987
   184   1 H    1.036 --   155 C    0.998
   185   1 H    1.032 --   156 C    0.999
   186   1 H    1.027 --   161 C    0.998
   187   1 H    1.031 --   162 C    0.997
   188   1 H    1.083 --   164 N    0.960
   189   1 H    1.053 --   167 C    0.988
   190   1 H    1.054 --   168 C    0.983
   191   1 H    1.054 --   170 C    0.983
   192   1 H    1.050 --   171 C    0.987
   193   1 H    1.036 --   173 C    0.998
   194   1 H    1.032 --   174 C    0.999
   195   6 C    3.830 --   229 C    1.281   196 C    1.279   122 C    1.230
   196   6 C    3.903 --   195 C    1.279   197 C    1.272   200 N    1.251
   197   6 C    3.827 --   198 C    1.577   196 C    1.272   231 H    0.998
   198   6 C    3.817 --   197 C    1.577   199 C    1.263   232 H    0.997
   199   6 C    3.885 --   201 C    1.334   198 C    1.263   200 N    1.221
   200   7 N    3.250 --   196 C    1.251   199 C    1.221   233 H    0.960
   201   6 C    3.831 --   208 C    1.373   199 C    1.334   202 C    1.050
   202   6 C    3.908 --   203 C    1.426   207 C    1.426   201 C    1.050
   203   6 C    3.869 --   204 C    1.447   202 C    1.426   234 H    0.988
                           206 C    0.101
   204   6 C    3.999 --   205 N    1.479   203 C    1.447   235 H    0.983
                           207 C    0.101
   205   7 N    2.940 --   206 C    1.479   204 C    1.479
   206   6 C    3.999 --   205 N    1.479   207 C    1.447   236 H    0.983
                           203 C    0.101
   207   6 C    3.865 --   206 C    1.447   202 C    1.426   237 H    0.987
                           204 C    0.101
   208   6 C    3.923 --   201 C    1.373   211 N    1.349   209 C    1.160
   209   6 C    3.837 --   210 C    1.692   208 C    1.160   238 H    0.998
   210   6 C    3.848 --   209 C    1.692   212 C    1.166   239 H    0.999
   211   7 N    2.549 --   212 C    1.417   208 C    1.349
   212   6 C    3.942 --   211 N    1.417   213 C    1.282   210 C    1.166
   213   6 C    3.830 --   212 C    1.282   214 C    1.279   126 C    1.229
   214   6 C    3.903 --   213 C    1.279   215 C    1.271   218 N    1.251
   215   6 C    3.827 --   216 C    1.577   214 C    1.271   240 H    0.998
   216   6 C    3.817 --   215 C    1.577   217 C    1.263   241 H    0.997
   217   6 C    3.885 --   219 C    1.335   216 C    1.263   218 N    1.221
   218   7 N    3.250 --   214 C    1.251   217 C    1.221   242 H    0.960
   219   6 C    3.831 --   226 C    1.373   217 C    1.335   220 C    1.050
   220   6 C    3.908 --   221 C    1.426   225 C    1.426   219 C    1.050
   221   6 C    3.869 --   222 C    1.447   220 C    1.426   243 H    0.988
                           224 C    0.101
   222   6 C    3.999 --   223 N    1.479   221 C    1.447   244 H    0.983
                           225 C    0.101
   223   7 N    2.940 --   224 C    1.479   222 C    1.479
   224   6 C    3.999 --   223 N    1.479   225 C    1.447   245 H    0.983
                           221 C    0.101
   225   6 C    3.865 --   224 C    1.447   220 C    1.426   246 H    0.987
                           222 C    0.101
   226   6 C    3.923 --   219 C    1.373   230 N    1.349   227 C    1.160
   227   6 C    3.837 --   228 C    1.692   226 C    1.160   247 H    0.998
   228   6 C    3.848 --   227 C    1.692   229 C    1.167   248 H    0.999
   229   6 C    3.942 --   230 N    1.417   195 C    1.281   228 C    1.167
   230   7 N    2.549 --   229 C    1.417   226 C    1.349
   231   1 H    1.027 --   197 C    0.998
   232   1 H    1.031 --   198 C    0.997
   233   1 H    1.083 --   200 N    0.960
   234   1 H    1.053 --   203 C    0.988
   235   1 H    1.054 --   204 C    0.983
   236   1 H    1.054 --   206 C    0.983
   237   1 H    1.050 --   207 C    0.987
   238   1 H    1.036 --   209 C    0.998
   239   1 H    1.032 --   210 C    0.999
   240   1 H    1.027 --   215 C    0.998
   241   1 H    1.031 --   216 C    0.997
   242   1 H    1.083 --   218 N    0.960
   243   1 H    1.053 --   221 C    0.988
   244   1 H    1.054 --   222 C    0.983
   245   1 H    1.054 --   224 C    0.983
   246   1 H    1.050 --   225 C    0.987
   247   1 H    1.036 --   227 C    0.998
   248   1 H    1.032 --   228 C    0.999
   249   6 C    3.830 --   283 C    1.282   250 C    1.279   128 C    1.229
   250   6 C    3.903 --   249 C    1.279   251 C    1.271   254 N    1.251
   251   6 C    3.827 --   252 C    1.577   250 C    1.271   285 H    0.998
   252   6 C    3.817 --   251 C    1.577   253 C    1.263   286 H    0.997
   253   6 C    3.885 --   255 C    1.335   252 C    1.263   254 N    1.221
   254   7 N    3.250 --   250 C    1.251   253 C    1.221   287 H    0.960
   255   6 C    3.831 --   262 C    1.373   253 C    1.335   256 C    1.050
   256   6 C    3.908 --   257 C    1.426   261 C    1.426   255 C    1.050
   257   6 C    3.869 --   258 C    1.447   256 C    1.426   288 H    0.988
                           260 C    0.101
   258   6 C    3.999 --   259 N    1.479   257 C    1.447   289 H    0.983
                           261 C    0.101
   259   7 N    2.940 --   260 C    1.479   258 C    1.479
   260   6 C    3.999 --   259 N    1.479   261 C    1.447   290 H    0.983
                           257 C    0.101
   261   6 C    3.865 --   260 C    1.447   256 C    1.426   291 H    0.987
                           258 C    0.101
   262   6 C    3.923 --   255 C    1.373   265 N    1.349   263 C    1.160
   263   6 C    3.837 --   264 C    1.692   262 C    1.160   292 H    0.998
   264   6 C    3.848 --   263 C    1.692   266 C    1.167   293 H    0.999
   265   7 N    2.549 --   266 C    1.417   262 C    1.349
   266   6 C    3.942 --   265 N    1.417   267 C    1.281   264 C    1.167
   267   6 C    3.830 --   266 C    1.281   268 C    1.279   132 C    1.230
   268   6 C    3.903 --   267 C    1.279   269 C    1.272   272 N    1.251
   269   6 C    3.827 --   270 C    1.577   268 C    1.272   294 H    0.998
   270   6 C    3.817 --   269 C    1.577   271 C    1.263   295 H    0.997
   271   6 C    3.885 --   273 C    1.335   270 C    1.263   272 N    1.221
   272   7 N    3.250 --   268 C    1.251   271 C    1.221   296 H    0.960
   273   6 C    3.831 --   280 C    1.373   271 C    1.335   274 C    1.050
   274   6 C    3.908 --   275 C    1.426   279 C    1.426   273 C    1.050
   275   6 C    3.869 --   276 C    1.447   274 C    1.426   297 H    0.988
                           278 C    0.101
   276   6 C    3.999 --   277 N    1.479   275 C    1.447   298 H    0.983
                           279 C    0.101
   277   7 N    2.940 --   278 C    1.479   276 C    1.479
   278   6 C    3.999 --   277 N    1.479   279 C    1.447   299 H    0.983
                           275 C    0.101
   279   6 C    3.865 --   278 C    1.447   274 C    1.426   300 H    0.987
                           276 C    0.101
   280   6 C    3.923 --   273 C    1.373   284 N    1.349   281 C    1.160
   281   6 C    3.837 --   282 C    1.692   280 C    1.160   301 H    0.998
   282   6 C    3.848 --   281 C    1.692   283 C    1.166   302 H    0.999
   283   6 C    3.942 --   284 N    1.417   249 C    1.282   282 C    1.166
   284   7 N    2.549 --   283 C    1.417   280 C    1.349
   285   1 H    1.027 --   251 C    0.998
   286   1 H    1.031 --   252 C    0.997
   287   1 H    1.083 --   254 N    0.960
   288   1 H    1.053 --   257 C    0.988
   289   1 H    1.054 --   258 C    0.983
   290   1 H    1.054 --   260 C    0.983
   291   1 H    1.050 --   261 C    0.987
   292   1 H    1.036 --   263 C    0.998
   293   1 H    1.032 --   264 C    0.999
   294   1 H    1.027 --   269 C    0.998
   295   1 H    1.031 --   270 C    0.997
   296   1 H    1.083 --   272 N    0.960
   297   1 H    1.053 --   275 C    0.988
   298   1 H    1.054 --   276 C    0.983
   299   1 H    1.054 --   278 C    0.983
   300   1 H    1.050 --   279 C    0.987
   301   1 H    1.036 --   281 C    0.998
   302   1 H    1.032 --   282 C    0.999
   303   6 C    3.828 --   337 C    1.281   304 C    1.278   134 C    1.230
   304   6 C    3.903 --   303 C    1.278   305 C    1.272   308 N    1.251
   305   6 C    3.826 --   306 C    1.576   304 C    1.272   339 H    0.998
   306   6 C    3.816 --   305 C    1.576   307 C    1.264   340 H    0.997
   307   6 C    3.884 --   309 C    1.333   306 C    1.264   308 N    1.221
   308   7 N    3.251 --   304 C    1.251   307 C    1.221   341 H    0.960
   309   6 C    3.831 --   316 C    1.374   307 C    1.333   310 C    1.050
   310   6 C    3.908 --   311 C    1.426   315 C    1.426   309 C    1.050
   311   6 C    3.869 --   312 C    1.447   310 C    1.426   342 H    0.988
                           314 C    0.101
   312   6 C    3.999 --   313 N    1.479   311 C    1.447   343 H    0.983
                           315 C    0.101
   313   7 N    2.940 --   314 C    1.479   312 C    1.479
   314   6 C    3.999 --   313 N    1.479   315 C    1.447   344 H    0.983
                           311 C    0.101
   315   6 C    3.865 --   314 C    1.447   310 C    1.426   345 H    0.987
                           312 C    0.101
   316   6 C    3.923 --   309 C    1.374   319 N    1.349   317 C    1.160
   317   6 C    3.838 --   318 C    1.693   316 C    1.160   346 H    0.998
   318   6 C    3.848 --   317 C    1.693   320 C    1.166   347 H    0.999
   319   7 N    2.548 --   320 C    1.416   316 C    1.349
   320   6 C    3.943 --   319 N    1.416   321 C    1.282   318 C    1.166
   321   6 C    3.828 --   320 C    1.282   322 C    1.279   138 C    1.226
   322   6 C    3.903 --   321 C    1.279   323 C    1.271   326 N    1.251
   323   6 C    3.826 --   324 C    1.577   322 C    1.271   348 H    0.998
   324   6 C    3.817 --   323 C    1.577   325 C    1.263   349 H    0.997
   325   6 C    3.884 --   327 C    1.335   324 C    1.263   326 N    1.221
   326   7 N    3.249 --   322 C    1.251   325 C    1.221   350 H    0.960
   327   6 C    3.831 --   334 C    1.373   325 C    1.335   328 C    1.050
   328   6 C    3.908 --   329 C    1.426   333 C    1.426   327 C    1.050
   329   6 C    3.869 --   330 C    1.447   328 C    1.426   351 H    0.988
                           332 C    0.101
   330   6 C    3.999 --   331 N    1.479   329 C    1.447   352 H    0.983
                           333 C    0.101
   331   7 N    2.940 --   332 C    1.479   330 C    1.479
   332   6 C    3.999 --   331 N    1.479   333 C    1.447   353 H    0.983
                           329 C    0.101
   333   6 C    3.865 --   332 C    1.447   328 C    1.426   354 H    0.987
                           330 C    0.101
   334   6 C    3.923 --   327 C    1.373   338 N    1.349   335 C    1.160
   335   6 C    3.837 --   336 C    1.692   334 C    1.160   355 H    0.998
   336   6 C    3.848 --   335 C    1.692   337 C    1.167   356 H    0.999
   337   6 C    3.942 --   338 N    1.417   303 C    1.281   336 C    1.167
   338   7 N    2.549 --   337 C    1.417   334 C    1.349
   339   1 H    1.027 --   305 C    0.998
   340   1 H    1.031 --   306 C    0.997
   341   1 H    1.083 --   308 N    0.960
   342   1 H    1.053 --   311 C    0.988
   343   1 H    1.054 --   312 C    0.983
   344   1 H    1.054 --   314 C    0.983
   345   1 H    1.050 --   315 C    0.987
   346   1 H    1.036 --   317 C    0.998
   347   1 H    1.032 --   318 C    0.999
   348   1 H    1.028 --   323 C    0.998
   349   1 H    1.031 --   324 C    0.997
   350   1 H    1.083 --   326 N    0.960
   351   1 H    1.053 --   329 C    0.988
   352   1 H    1.054 --   330 C    0.983
   353   1 H    1.054 --   332 C    0.983
   354   1 H    1.050 --   333 C    0.987
   355   1 H    1.036 --   335 C    0.998
   356   1 H    1.032 --   336 C    0.999
 ---------------------------------------------------------------------------

Topologies differ in total number of bonds
Writing topology from bond orders to xtbtopo.mol

 dipole moment from electron density (au)
     X       Y       Z   
-188.8030  -0.0685  -0.1428  total (Debye):  479.890


           -------------------------------------------------
          | TOTAL ENERGY             -704.868108431017 Eh   |
          | GRADIENT NORM               0.106702760549 Eh/α |
          | HOMO-LUMO GAP               0.072517571402 eV   |
           -------------------------------------------------
########################################################################
[WARNING] Runtime exception occurred
-1- restart_readRestart: Dimension missmatch in restart file.
########################################################################

------------------------------------------------------------------------
 * finished run on 2022/07/27 at 08:18:29.956     
------------------------------------------------------------------------
 total:
 * wall-time:     0 d,  0 h,  0 min, 50.024 sec
 *  cpu-time:     0 d,  0 h,  0 min, 49.765 sec
 * ratio c/w:     0.995 speedup
 SCF:
 * wall-time:     0 d,  0 h,  0 min, 49.195 sec
 *  cpu-time:     0 d,  0 h,  0 min, 48.944 sec
 * ratio c/w:     0.995 speedup

