183
 energy: -312.199413779346 gnorm: 1.367341938720 xtb: 6.5.1 (b24c23e)
Co          33.99988200000000       -0.03404000000000        0.03330800000000
C           30.65828900000000        0.10924800000000        0.02380600000000
C           31.32055700000000        1.14832200000000       -0.49298400000000
C           30.67000900000000        2.29617800000000       -1.11316900000000
C           31.61022400000000        3.14466300000000       -1.48561300000000
C           32.91514700000000        2.58379900000000       -1.10874700000000
N           32.73799300000000        1.31029400000000       -0.48698400000000
C           34.10726900000000        3.18591300000000       -1.30138400000000
C           34.15699200000000        4.53144600000000       -1.91810500000000
C           34.71393300000000        4.69942500000000       -3.19478700000000
C           34.77719100000000        5.97043000000000       -3.77344400000000
C           34.28818299999999        7.08696800000000       -3.08051400000000
N           34.35309300000000        8.38678500000000       -3.67302300000000
C           33.73713400000000        6.92106300000000       -1.80196000000000
C           33.67421900000000        5.65071100000000       -1.22194600000000
C           35.39845700000000        2.56078500000000       -0.91131600000000
C           36.68191300000000        3.27342600000000       -0.90514600000000
C           37.61642599999999        2.41805600000000       -0.54325900000000
N           35.54111899999999        1.31889500000000       -0.56239800000000
C           36.93631200000000        1.14966400000000       -0.31173000000000
C           37.53051000000000       -0.00847100000000        0.01867600000000
C           36.76692700000000       -1.25448300000000        0.25148100000000
C           37.29744800000000       -2.47066800000000        0.23162900000000
C           36.25455199999999       -3.40226700000000        0.61537400000000
C           35.15691799999999       -2.69218800000000        0.84914300000000
N           35.39076500000000       -1.30034600000000        0.62871700000000
C           33.87830500000000       -3.26321200000000        1.34465300000000
C           33.90112499999999       -4.60119900000000        1.98456300000000
C           34.64007699999999       -4.80516400000000        3.16009200000000
C           34.68105300000000       -6.06881800000000        3.75655300000000
C           33.98887000000000       -7.14388800000000        3.18161300000000
N           34.03126800000000       -8.43624400000000        3.79222100000000
C           33.25741000000000       -6.94432800000000        2.00240700000000
C           33.21635800000000       -5.68137600000000        1.40459500000000
C           32.71624800000000       -2.59210200000000        1.22856400000000
C           31.40891600000000       -3.03473600000000        1.71050900000000
C           30.54725400000000       -2.10815200000000        1.33780200000000
C           31.29571100000000       -1.06932200000000        0.63215700000000
N           32.56057100000000       -1.34078200000000        0.56237100000000
H           29.57492600000000        0.12721100000000        0.00034700000000
H           29.60669800000000        2.43972000000000       -1.25641800000000
H           31.42242400000000        4.08653200000000       -1.98420700000000
H           35.09699400000000        3.84580600000000       -3.74058100000000
H           35.20753900000000        6.08535300000000       -4.76030400000000
H           34.76242200000000        8.52073100000000       -4.62453500000000
H           33.99210200000000        9.22468800000000       -3.16461600000000
H           33.35894000000000        7.77549700000000       -1.25496300000000
H           33.25154200000000        5.53774900000000       -0.23107700000000
H           36.85283100000000        4.31382500000000       -1.14859600000000
H           38.67020099999999        2.64330400000000       -0.44711900000000
H           38.32312900000000       -2.72591500000000        0.00122200000000
H           36.36329899999999       -4.47424300000000        0.71754100000000
H           35.18105900000000       -3.98440200000000        3.61508300000000
H           35.25243300000000       -6.21036900000000        4.66529500000000
H           34.57425700000000       -8.59515300000000        4.67015800000000
H           33.51976800000000       -9.24357700000000        3.37097200000000
H           32.72234600000000       -7.76731900000000        1.54556600000000
H           32.65492100000000       -5.54480700000000        0.48843000000000
H           31.16707900000000       -3.93278700000000        2.26347300000000
H           29.48270100000000       -2.12439600000000        1.53119300000000
Co          56.24942800000000        0.01785100000000        0.00544900000000
C           59.59102200000000       -0.06923900000000        0.11962900000000
C           58.92875300000000       -1.07409600000000        0.70015200000000
C           59.57930099999999       -2.22523800000000        1.31421700000000
C           58.63908700000000       -3.00447900000000        1.81564100000000
C           57.33416300000000       -2.38047000000000        1.55639100000000
N           57.51131699999999       -1.15858900000000        0.83847100000000
C           56.14204099999999       -2.87371600000000        1.95181400000000
C           56.09231800000000       -4.13119200000000        2.73255500000000
C           55.53537800000000       -5.28811400000000        2.16716500000000
C           55.47211999999999       -6.47268600000000        2.90681900000000
C           55.96112700000000       -6.51204800000000        4.22031100000000
N           55.89621700000000       -7.72408400000000        4.97632600000000
C           56.51217700000000       -5.35471200000000        4.78846300000000
C           56.57509099999999       -4.16937000000000        4.05010400000000
C           54.85085399999999       -2.20319700000000        1.64629500000000
C           53.56739800000000       -2.59180700000000        2.24368700000000
C           52.63288399999999       -1.81756200000000        1.73069200000000
N           54.70819100000000       -1.22619900000000        0.80397200000000
C           53.31299799999999       -0.92376300000000        0.80141900000000
C           52.71879999999999       -0.00847100000000        0.01867600000000
C           53.48238300000000        0.87402400000000       -0.89123800000000
C           52.95186200000000        1.52945200000000       -1.91589100000000
C           53.99475800000000        2.36403500000000       -2.48034700000000
C           55.09239199999999        2.16654200000000       -1.75933600000000
N           54.85854600000000        1.21379000000000       -0.72103200000000
C           56.37100599999999        2.89505300000000       -1.96149900000000
C           56.34818600000000        4.16768800000000       -2.72313800000000
C           55.60923400000000        5.26018300000000       -2.24363200000000
C           55.56825700000000        6.45553300000000       -2.96732200000000
C           56.26044000000000        6.57032700000000       -4.18105700000000
N           56.21804199999999        7.79332600000000       -4.92085400000000
C           56.99190000000000        5.47720100000000       -4.66626700000000
C           57.03295200000000        4.28111400000000       -3.94390900000000
C           57.53306300000000        2.42748800000000       -1.46627400000000
C           58.84039400000000        3.07375400000000       -1.56892100000000
C           59.70205700000000        2.25114200000000       -1.00254700000000
C           58.95359900000000        1.08901000000000       -0.52657400000000
N           57.68873900000000        1.18083200000000       -0.79139300000000
H           60.67438400000000       -0.09871700000000        0.12163900000000
H           60.64261199999999       -2.42394600000000        1.35471000000000
H           58.82688600000000       -3.94046100000000        2.32519800000000
H           55.15231600000000       -5.27138400000000        1.15411200000000
H           55.04177200000000       -7.35872700000000        2.45734000000000
H           55.48688799999999       -8.59117400000000        4.56223400000000
H           56.25720800000000       -7.76329200000000        5.95562300000000
H           56.89036999999999       -5.37088900000000        5.80286100000000
H           56.99776900000000       -3.28107100000000        4.50343100000000
H           53.39647899999999       -3.36956800000000        2.97634300000000
H           51.57911000000000       -1.86188400000000        1.97155500000000
H           51.92618100000000        1.47843900000000       -2.25594500000000
H           53.88601200000000        3.04148500000000       -3.31738400000000
H           55.06825199999999        5.18592300000000       -1.30813700000000
H           54.99687800000000        7.29117500000000       -2.58320000000000
H           55.67505300000000        8.61288400000000       -4.56822100000000
H           56.72954300000000        7.88828900000000       -5.82651300000000
H           57.52696400000000        5.55115100000000       -5.60464300000000
H           57.59439000000000        3.44203600000000       -4.33628500000000
H           59.08223100000000        4.03084400000000       -2.01191500000000
H           60.76661000000000        2.42130800000000       -0.90923300000000
C           39.35168199999999       -0.00847100000000        0.01867600000000
C           40.57360000000000       -0.00847100000000        0.01867600000000
C           49.67571100000000       -0.00847100000000        0.01867600000000
C           50.89762799999999       -0.00847100000000        0.01867600000000
Co          45.16013100000000       -0.03850000000000        0.04259200000000
C           41.67594600000000        0.01780400000000       -0.03925200000000
C           42.33280599999999        1.12769900000000       -0.42319900000000
C           41.68808100000000        2.35978500000000       -0.88331800000000
C           42.62610400000000        3.25538300000000       -1.11782700000000
C           43.92895300000000        2.64759300000000       -0.82805900000000
N           43.75253500000000        1.29757300000000       -0.39055000000000
C           45.11298900000000        3.28995300000000       -0.91507000000000
C           45.13436700000000        4.71004800000000       -1.32918600000000
C           45.00069500000000        5.05334200000000       -2.68300700000000
C           45.01772100000000        6.39608300000000       -3.07213000000000
C           45.17131000000000        7.40747100000000       -2.11245600000000
N           45.18923700000000        8.78079800000000       -2.51124500000000
C           45.30696300000000        7.06338100000000       -0.75939000000000
C           45.28785900000000        5.72112600000000       -0.36901700000000
C           46.41647800000000        2.64614300000000       -0.61091200000000
C           47.69539199999999        3.36724800000000       -0.57645800000000
C           48.64687899999999        2.49050100000000       -0.33057900000000
N           46.57992000000000        1.37617900000000       -0.40245100000000
C           47.98416800000000        1.19801700000000       -0.21451900000000
C           48.59925900000000        0.01780400000000       -0.03925200000000
C           47.85390100000000       -1.25662400000000        0.05587900000000
C           48.40240200000000       -2.45625600000000       -0.08946600000000
C           47.36987900000000       -3.43676300000000        0.18071600000000
C           46.25997800000000       -2.77012600000000        0.47590300000000
N           46.47450299999999       -1.36043900000000        0.40793700000000
C           44.99476200000000       -3.40639200000000        0.91804300000000
C           45.04794600000000       -4.79440700000000        1.43780600000000
C           44.40298400000000       -5.83732900000000        0.75160200000000
C           44.46913200000000       -7.14645000000000        1.23789000000000
C           45.18477700000000       -7.42839400000000        2.41114400000000
N           45.24894200000000       -8.76703800000000        2.91076200000000
C           45.83801600000000       -6.38935800000000        3.09139600000000
C           45.77372400000000       -5.08023600000000        2.60478500000000
C           43.81881499999999       -2.75081100000000        0.87535000000000
C           42.53621999999999       -3.26465800000000        1.34497200000000
C           41.64795300000000       -2.32883500000000        1.08151200000000
C           42.35138900000000       -1.20846000000000        0.44678500000000
N           43.62113899999999       -1.44724300000000        0.32624000000000
H           40.62871799999999        2.54159600000000       -1.00719800000000
H           42.43670800000000        4.26603200000000       -1.45721600000000
H           44.88155900000000        4.28104200000000       -3.43353100000000
H           44.91177100000000        6.64824300000000       -4.11994400000000
H           45.09013000000000        9.04682300000000       -3.51633800000000
H           45.30673300000000        9.54100800000000       -1.80428200000000
H           45.42743600000000        7.83485400000000       -0.00886000000000
H           45.39335199999999        5.46813000000000        0.67917700000000
H           47.85436800000000        4.42636800000000       -0.72986500000000
H           49.70194200000000        2.71531000000000       -0.25006200000000
H           49.43371400000000       -2.67236800000000       -0.33320200000000
H           47.49559699999999       -4.51192700000000        0.17910200000000
H           43.85181399999999       -5.63509100000000       -0.15921400000000
H           43.96452699999999       -7.94073100000000        0.70025400000000
H           45.77885300000000       -8.98715900000000        3.78394100000000
H           44.76358500000000       -9.54750000000000        2.41389600000000
H           46.39654199999999       -6.59391500000000        3.99746500000000
H           46.28434800000000       -4.28784300000000        3.13994500000000
H           42.32860100000000       -4.21223500000000        1.82486800000000
H           40.59351299999999       -2.39588200000000        1.31281300000000
183
 energy: -312.589232905147 gnorm: 0.432093072392 xtb: 6.5.1 (b24c23e)
Co          34.00687375127935       -0.02876619345854        0.03287933991319
C           30.65918781366993        0.09694497733359        0.03062906584856
C           31.32733508394308        1.14850087353787       -0.49303592323598
C           30.66991869729458        2.29053705236472       -1.11057171565584
C           31.61890452104426        3.14573345422188       -1.48556097336404
C           32.91492217605110        2.57622267126825       -1.10565467501726
N           32.72854964948650        1.31478591619101       -0.49217373671250
C           34.12009369397120        3.18350209179364       -1.29884252825849
C           34.16035766227137        4.53310376861494       -1.91748685147960
C           34.71369383418778        4.70506529842060       -3.19305131590273
C           34.77597173138874        5.97186778564273       -3.77162267652444
C           34.28859454097069        7.09538723468768       -3.08436291741453
N           34.35290492721955        8.38259006784758       -3.67109700560922
C           33.73807105017403        6.92039316853771       -1.80435345477768
C           33.67503941803527        5.65271682232074       -1.22735889401214
C           35.39134314076841        2.57074286117409       -0.91644527806636
C           36.67060654658601        3.28009486226053       -0.90991769471117
C           37.61527548940818        2.41227595589745       -0.54186967108509
N           35.54705563578764        1.31227549448014       -0.55278054018885
C           36.94245889117801        1.14752023301566       -0.31083788484770
C           37.55158798513013       -0.02106714082985        0.01893118358195
C           36.76645326142911       -1.23902288655129        0.25573591349280
C           37.29883200485173       -2.48782385348617        0.23539185997822
C           36.27090014125454       -3.40415105279694        0.61365197004996
C           35.14643199883699       -2.67911760211455        0.85335863776335
N           35.39000653690766       -1.30061612014529        0.61783348533620
C           33.88920219353972       -3.25785037983807        1.34186793534929
C           33.90570563126873       -4.60105749701180        1.98195108861875
C           34.63939778120127       -4.81037946561693        3.15824893454801
C           34.67929705453327       -6.06972633048437        3.75487482225192
C           33.98912910048675       -7.15230369641876        3.18560470227753
N           34.03112098802769       -8.43188565947016        3.79014044767734
C           33.25879219192664       -6.94324719604336        2.00443235080153
C           33.21784088824144       -5.68254443090271        1.40979364434362
C           32.71628945365559       -2.58920026452415        1.22737254663837
C           31.41622985357254       -3.03465012071834        1.70906702664506
C           30.54069891326223       -2.09914883361900        1.33283438257288
C           31.28203530860544       -1.06148243708379        0.62815146223342
N           32.56679085444186       -1.34129407365020        0.56758879164544
H           29.57539483463126        0.12440962834442        0.00243026041565
H           29.60713941220086        2.43486455478981       -1.25394939387449
H           31.42923667100250        4.08684699963191       -1.98380001408071
H           35.09617419381126        3.84742931674170       -3.73934878196186
H           35.20719677135791        6.08566909552235       -4.76000650786494
H           34.75621657257644        8.51685995909222       -4.60947158967306
H           33.99740860285293        9.21030782040830       -3.17136026653636
H           33.35928128580262        7.77541583637930       -1.25539122250336
H           33.25255231686545        5.53772943460506       -0.23306960146115
H           36.84724738017537        4.31618306969955       -1.15020165977886
H           38.66861698627433        2.63768998019761       -0.44541759602003
H           38.32327024307534       -2.72963908132372        0.00132873125496
H           36.36626103522655       -4.47435663238119        0.71628950932864
H           35.18001015551889       -3.98588218654612        3.61405315499394
H           35.25194181314193       -6.21051798467349        4.66498233991149
H           34.56607751965294       -8.59087126293418        4.65613132724927
H           33.52734853432878       -9.22961880771322        3.37636125893752
H           32.72280724899568       -7.76706490362364        1.54586622988395
H           32.65620957821844       -5.54475695279546        0.49016698665683
H           31.17341080572510       -3.93245266804945        2.26226449765884
H           29.48063599300907       -2.12007012152483        1.52911963428215
Co          56.24247797341495        0.01463687804829        0.00957871403181
C           59.59013395587309       -0.05669286093066        0.11309922405578
C           58.92192817097283       -1.07424081609323        0.70024389915642
C           59.57937439970664       -2.21995341388378        1.31095567532733
C           58.63040028879251       -3.00503546291690        1.81657274901914
C           57.33436041372944       -2.37373693571772        1.55170756035520
N           57.52096311374105       -1.16546485485401        0.83956959292252
C           56.12916628610981       -2.87025068440792        1.95118479403913
C           56.08892535070660       -4.13161322188087        2.73429960620256
C           55.53564021277128       -5.28978736190698        2.17282401482671
C           55.47334073399494       -6.47196835933580        2.90903316578890
C           55.96071563239533       -6.51989390609447        4.22519523870094
N           55.89640813868371       -7.72017658542894        4.97390294979547
C           56.51124265998581       -5.35634604302471        4.78658327209093
C           56.57424602241394       -4.17498766798905        4.04878763387772
C           54.85812481086172       -2.21287038407785        1.65172238413238
C           53.57841637296700       -2.59930843534825        2.24656411181609
C           52.63350019670203       -1.81337879074089        1.72665838598244
N           54.70264860077972       -1.21453019180041        0.80378545132364
C           53.30702024584505       -0.92184082117516        0.79978043335536
C           52.70004208995851       -0.00072613755927        0.00830836875243
C           53.48311643587110        0.86930447419601       -0.87596198720015
C           52.95039838670663        1.54226304566418       -1.92825329780276
C           53.97826374039757        2.36359528441226       -2.48288523637521
C           55.10289400652380        2.16281097123108       -1.74614174646368
N           54.85934293824802        1.20497215073265       -0.72724212301797
C           56.36006080144436        2.88973984922738       -1.95854866307180
C           56.34359241869254        4.16543433138981       -2.72447749403015
C           55.60993016258513        5.26152692453405       -2.24899482604672
C           55.57001791762475        6.45464059178080       -2.96900978351839
C           56.26017842369144        6.57830257412558       -4.18586862525157
N           56.21820555640782        7.78919388255640       -4.91836092995635
C           56.99052048257714        5.47829802671653       -4.66424293168083
C           57.03145621806788        4.28609094302588       -3.94201358468387
C           57.53297473289280        2.42487557765545       -1.46444844469604
C           58.83307938891605        3.07248299113067       -1.56964001316379
C           59.70859928686912        2.24201671764372       -0.99778246288064
C           58.96731511119617        1.08124278811269       -0.52221299061813
N           57.68244939569678        1.18544996631728       -0.78895909260159
H           60.67391993492993       -0.09541111050053        0.12046525213903
H           60.64216645156920       -2.41920785791685        1.35202594746287
H           58.82007204271570       -3.94030169044803        2.32569128090715
H           55.15313597914774       -5.27125274681898        1.15614800949118
H           55.04210949361377       -7.35865706827742        2.45777196473007
H           55.49309338830895       -8.57648020561432        4.56733430687808
H           56.25189936799872       -7.76096816669880        5.93991497382805
H           56.89003170016908       -5.37120502206128        5.80255821429796
H           56.99675745872953       -3.28272101105525        4.50231205385937
H           53.40202896397381       -3.37216476487058        2.97737616561272
H           51.58000591672295       -1.85746791363154        1.96753733178367
H           51.92597924451561        1.48061609590475       -2.25894435680276
H           53.88301537722434        3.04049541456727       -3.31815223990069
H           55.06929921258092        5.18588167281343       -1.30993779444097
H           54.99736551259880        7.29099938947021       -2.58349726933303
H           55.68322551826067        8.59882367549482       -4.57240912829675
H           56.72195429649221        7.88506579844638       -5.81190450429423
H           57.52650352621831        5.55126319426718       -5.60426237206589
H           57.59309942548634        3.44345755110744       -4.33528128900180
H           59.07589441445617        4.02964638910009       -2.01230005414383
H           60.76867002030060        2.41719104034477       -0.90677329366336
C           39.25461081405780       -0.00896492479871        0.01787787897804
C           40.45954709166978       -0.01559750401038        0.02453500521949
C           49.79893186866200       -0.02114863766075        0.02500384490206
C           50.99976831852097       -0.01003262966470        0.01916424575385
Co          45.15203603775417       -0.03551972688852        0.03852141337143
C           41.74685109298068        0.00766917143676       -0.03451128116537
C           42.36850203767300        1.14092422663074       -0.42891646074684
C           41.69061748553025        2.35125028578938       -0.88048310253668
C           42.63598890423072        3.25790959473304       -1.11813092128202
C           43.92973457249634        2.64291488395943       -0.82710292778856
N           43.75315367926432        1.30907804768830       -0.39582253612443
C           45.12550773442079        3.28906140183453       -0.91338594894911
C           45.13667666016401        4.71284178939706       -1.32971624479589
C           45.00051815112725        5.05860969146700       -2.68032352446200
C           45.01794534815082        6.39739313099757       -3.06965864100078
C           45.17148371119548        7.41631752510424       -2.11504047815153
N           45.18915278639090        8.77631989105201       -2.50988047358023
C           45.30662779751636        7.06341889715166       -0.76214969422165
C           45.28852036922832        5.72460603775813       -0.37390012751196
C           46.40634175218253        2.66281810493571       -0.61505563493802
C           47.68230254856199        3.37616801627178       -0.58034137841745
C           48.64235955931921        2.48264983811339       -0.32990289881718
N           46.57454772008157        1.37560709535296       -0.39752008934330
C           47.95066077617287        1.21343175425127       -0.21681061838016
C           48.51254439459716        0.00923219182965       -0.04023595839822
C           47.82202570106849       -1.25449838509868        0.05890832460276
C           48.40063870341310       -2.47272759959390       -0.08740717609493
C           47.38520356010633       -3.43967480521607        0.17962199037827
C           46.24756709010534       -2.76108700029505        0.48219753629882
N           46.46608702121001       -1.36493751230075        0.40086274102444
C           45.00508290426350       -3.40238767136671        0.91642427284989
C           45.05237358150468       -4.79477138286827        1.43542153290877
C           44.40436469535924       -5.83910923279499        0.75688811440462
C           44.47054114969617       -7.14557247241785        1.24021658199634
C           45.18512181477304       -7.43708443368145        2.41452157786138
N           45.24876282215630       -8.76241073481187        2.90901383784282
C           45.83622972270339       -6.39035333391772        3.08949244774213
C           45.77313369130169       -5.08545363628796        2.60252660815589
C           43.81999111826136       -2.75106707770446        0.87543805500715
C           42.54364621653812       -3.26529904036871        1.34363485505517
C           41.64264412854958       -2.31821517453983        1.07666075112815
C           42.36036446485587       -1.21017111234424        0.44833148474267
N           43.63719051348286       -1.45427877955715        0.33430041186106
H           40.63007453982939        2.53352484449866       -1.00485893742469
H           42.44314577161582        4.26632681712868       -1.45709066525362
H           44.88198026355696        4.28254886233268       -3.43169373267613
H           44.91193120374768        6.64850375041821       -4.11937196159180
H           45.09164868827343        9.04086845832493       -3.50071479249131
H           45.30497649964678        9.52761133628977       -1.81434134821174
H           45.42722325018340        7.83483329691703       -0.00947402143422
H           45.39305600631391        5.46856140698483        0.67690276952547
H           47.84899882733613        4.42943467453645       -0.73093684087850
H           49.69977676701336        2.70722105153604       -0.24892555291883
H           49.43293936491380       -2.67389402949933       -0.33352302790577
H           47.49875976133556       -4.51224784355047        0.17786582510803
H           43.85320531878700       -5.63518023236530       -0.15723251261703
H           43.96518546621829       -7.94025299336292        0.70084727615483
H           45.77076240144219       -8.98184300030831        3.77005321628271
H           44.77079220621997       -9.53375050956862        2.42060780158532
H           46.39583902934833       -6.59408195981982        3.99674333055826
H           46.28319102808332       -4.28945354515688        3.13858570191483
H           42.33436676255651       -4.21179208275684        1.82352340643619
H           40.59151906111840       -2.38962521579509        1.31008732739692
183
 energy: -312.730351642855 gnorm: 0.228984678451 xtb: 6.5.1 (b24c23e)
Co          34.02125830899676       -0.01795704127914        0.03295957825647
C           30.66211580352937        0.08207392996709        0.03900390084816
C           31.33558661187840        1.14513475665425       -0.49320692702941
C           30.67556170979541        2.28132021779710       -1.10632401446949
C           31.63398146265840        3.14257437220502       -1.48313989761657
C           32.91865077088153        2.56556774726450       -1.10247331837952
N           32.71704263901397        1.31950826862874       -0.50030182416214
C           34.13814480263565        3.17744749903991       -1.29387538453223
C           34.16853086706838        4.53362266922961       -1.91414485422023
C           34.71551893618334        4.71340819779347       -3.18936416999831
C           34.77422173597586        5.97518033904002       -3.76956183179040
C           34.28884207667027        7.10289896454292       -3.08786148655407
N           34.35233557427743        8.37081517302317       -3.66566618515859
C           33.73888821784477        6.92013891894907       -1.80865786678581
C           33.67642929481879        5.65493054098417       -1.23524872085566