      -----------------------------------------------------------      
     |                   =====================                   |     
     |                           x T B                           |     
     |                   =====================                   |     
     |                         S. Grimme                         |     
     |          Mulliken Center for Theoretical Chemistry        |     
     |                    University of Bonn                     |     
      -----------------------------------------------------------      

   * xtb version 6.5.1 (b24c23e) compiled by 'conda@728c89f4b128' on 2022-07-12

   xtb is free software: you can redistribute it and/or modify it under
   the terms of the GNU Lesser General Public License as published by
   the Free Software Foundation, either version 3 of the License, or
   (at your option) any later version.
   
   xtb is distributed in the hope that it will be useful,
   but WITHOUT ANY WARRANTY; without even the implied warranty of
   MERCHANTABILITY or FITNESS FOR A PARTICULAR PURPOSE.  See the
   GNU Lesser General Public License for more details.
   
   Cite this work as:
   * C. Bannwarth, E. Caldeweyher, S. Ehlert, A. Hansen, P. Pracht,
     J. Seibert, S. Spicher, S. Grimme, WIREs Comput. Mol. Sci., 2020, 11,
     e01493. DOI: 10.1002/wcms.1493
   
   for GFN2-xTB:
   * C. Bannwarth, S. Ehlert and S. Grimme., J. Chem. Theory Comput., 2019,
     15, 1652-1671. DOI: 10.1021/acs.jctc.8b01176
   for GFN1-xTB:
   * S. Grimme, C. Bannwarth, P. Shushkov, J. Chem. Theory Comput., 2017,
     13, 1989-2009. DOI: 10.1021/acs.jctc.7b00118
   for GFN0-xTB:
   * P. Pracht, E. Caldeweyher, S. Ehlert, S. Grimme, ChemRxiv, 2019, preprint.
     DOI: 10.26434/chemrxiv.8326202.v1
   for GFN-FF:
   * S. Spicher and S. Grimme, Angew. Chem. Int. Ed., 2020, 59, 15665-15673.
     DOI: 10.1002/anie.202004239
   
   for ALPB and GBSA implicit solvation:
   * S. Ehlert, M. Stahn, S. Spicher, S. Grimme, J. Chem. Theory Comput.,
     2021, 17, 4250-4261. DOI: 10.1021/acs.jctc.1c00471
   
   for DFT-D4:
   * E. Caldeweyher, C. Bannwarth and S. Grimme, J. Chem. Phys., 2017,
     147, 034112. DOI: 10.1063/1.4993215
   * E. Caldeweyher, S. Ehlert, A. Hansen, H. Neugebauer, S. Spicher,
     C. Bannwarth and S. Grimme, J. Chem. Phys., 2019, 150, 154122.
     DOI: 10.1063/1.5090222
   * E. Caldeweyher, J.-M. Mewes, S. Ehlert and S. Grimme, Phys. Chem. Chem. Phys.
     2020, 22, 8499-8512. DOI: 10.1039/D0CP00502A
   
   for sTDA-xTB:
   * S. Grimme and C. Bannwarth, J. Chem. Phys., 2016, 145, 054103.
     DOI: 10.1063/1.4959605
   
   in the mass-spec context:
   * V. Asgeirsson, C. Bauer and S. Grimme, Chem. Sci., 2017, 8, 4879.
     DOI: 10.1039/c7sc00601b
   * J. Koopman and S. Grimme, ACS Omega 2019, 4, 12, 15120-15133.
     DOI: 10.1021/acsomega.9b02011
   
   for metadynamics refer to:
   * S. Grimme, J. Chem. Theory Comput., 2019, 155, 2847-2862
     DOI: 10.1021/acs.jctc.9b00143
   
   for SPH calculations refer to:
   * S. Spicher and S. Grimme, J. Chem. Theory Comput., 2021, 17, 1701-1714
     DOI: 10.1021/acs.jctc.0c01306
   
   with help from (in alphabetical order)
   P. Atkinson, C. Bannwarth, F. Bohle, G. Brandenburg, E. Caldeweyher
   M. Checinski, S. Dohm, S. Ehlert, S. Ehrlich, I. Gerasimov, C. Hölzer
   A. Katbashev, J. Koopman, C. Lavigne, S. Lehtola, F. März, M. Müller,
   F. Musil, H. Neugebauer, J. Pisarek, C. Plett, P. Pracht, F. Pultar,
   J. Seibert, P. Shushkov, S. Spicher, M. Stahn, M. Steiner, T. Strunk,
   J. Stückrath, T. Rose, and J. Unsleber
   
 * started run on 2022/07/30 at 10:59:27.685     

           -------------------------------------------------
          |                Calculation Setup                |
           -------------------------------------------------

          program call               : xtb Ni_BSA_C4_4.xyz --gfn 1 --opt -T 48
          hostname                   : cx3-15-13.cx3.hpc.ic.ac.uk
          coordinate file            : Ni_BSA_C4_4.xyz
          omp threads                :                     1

   ID    Z sym.   atoms
    1   28 Ni     1, 65, 141, 204
    2    6 C      2-6, 8-12, 17-21, 23-28, 30-34, 39-44, 66-70, 72-76, 81-85,
                  87-92, 94-98, 103-108, 129-140, 142-146, 148-152, 157-161,
                  163-168, 170-174, 179-184, 205-209, 211-215, 220-224,
                  226-231, 233-237, 242-247
    3    7 N      7, 22, 29, 45, 71, 86, 93, 109, 147, 162, 169, 185, 210,
                  225, 232, 248
    4   16 S      13, 35, 77, 99, 153, 175, 216, 238
    5    8 O      14-16, 36-38, 78-80, 100-102, 154-156, 176-178, 217-219,
                  239-241
    6    1 H      46-64, 110-128, 186-203, 249-266

molecular fragmentation (1/2 indicates fragments):
111111111111111111111111111111111111111111111111111111111111111122222222
222222222222222222222222222222222222222222222222222222222222222222222222
222222222222222222222222222222222222222222222222222222222222222222222222
22222222222222222222222222222222222222222222222222
# atoms in fragment 1/2:    64   202
 fragment masses (1/2) :      678.34     2177.13
CMA distance (Bohr)    :  52.204
constraining FC (au)   :  0.0500
########################################################################
[WARNING] Please study the warnings concerning your input carefully
-1- prog_main_parseArguments: Unknown option '-T' provided
########################################################################

           -------------------------------------------------
          |                 G F N 1 - x T B                 |
           -------------------------------------------------

        Reference                      10.1021/acs.jctc.7b00118
      * Hamiltonian:
        H0-scaling (s, p, d)           1.850000    2.250000    2.000000
        zeta-weighting                 0.000000
      * Dispersion:
        s8                             2.400000
        a1                             0.630000
        a2                             5.000000
        s9                             0.000000
      * Repulsion:
        kExp                           1.500000
        rExp                           1.000000
      * Coulomb:
        alpha                          2.000000
        third order                    atomic
        anisotropic                    false
      * Halogen bond correction:
        rad-scale                      1.300000
        damping                        0.440000


          ...................................................
          :                      SETUP                      :
          :.................................................:
          :  # basis functions                 988          :
          :  # atomic orbitals                 976          :
          :  # shells                          544          :
          :  # electrons                       946          :
          :  # halogen bonds                     0          :
          :  max. iterations                   250          :
          :  Hamiltonian                  GFN1-xTB          :
          :  restarted?                      false          :
          :  GBSA solvation                  false          :
          :  PC potential                    false          :
          :  electronic temp.          300.0000000     K    :
          :  accuracy                    1.0000000          :
          :  -> integral cutoff          0.2500000E+02      :
          :  -> integral neglect         0.1000000E-07      :
          :  -> SCF convergence          0.1000000E-05 Eh   :
          :  -> wf. convergence          0.2000000E-04 e    :
          :  Broyden damping             0.4000000          :
          ...................................................

 iter      E             dE          RMSdq      gap      omega  full diag
   1   -548.9479098 -0.548948E+03  0.104E+01    0.19       0.0  T
   2   -474.6169792  0.743309E+02  0.100E+01    0.11       1.0  T
   3   -292.6431683  0.181974E+03  0.102E+01    0.00       1.0  T
   4   2562.6277146  0.285527E+04  0.196E+01    0.04       1.0  T
   5   3125.2868374  0.562659E+03  0.207E+01    0.02       1.0  T
   6    371.4094734 -0.275388E+04  0.134E+01    0.10       1.0  T
   7    336.2623683 -0.351471E+02  0.131E+01    0.00       1.0  T
   8   -462.8299288 -0.799092E+03  0.633E+00    0.02       1.0  T
   9   -491.4764468 -0.286465E+02  0.606E+00    0.13       1.0  T
  10   -523.1146406 -0.316382E+02  0.415E+00    0.03       1.0  T
  11   -537.6219863 -0.145073E+02  0.367E+00    0.12       1.0  T
  12   -544.4349460 -0.681296E+01  0.321E+00    0.07       1.0  T
  13   -546.1197897 -0.168484E+01  0.308E+00    0.01       1.0  T
  14   -547.1093348 -0.989545E+00  0.278E+00    0.08       1.0  T
  15   -546.8841791  0.225156E+00  0.291E+00    0.26       1.0  T
  16   -547.3795571 -0.495378E+00  0.259E+00    0.20       1.0  T
  17   -549.6495835 -0.227003E+01  0.205E+00    0.07       1.0  T
  18   -549.4706731  0.178910E+00  0.199E+00    0.04       1.0  T
  19   -549.6889261 -0.218253E+00  0.186E+00    0.03       1.0  T
  20   -549.8461521 -0.157226E+00  0.151E+00    0.09       1.0  T
  21   -549.7993339  0.468181E-01  0.138E+00    0.02       1.0  T
  22   -549.9090227 -0.109689E+00  0.114E+00    0.04       1.0  T
  23   -550.3173476 -0.408325E+00  0.805E-01    0.07       1.0  T
  24   -550.0852506  0.232097E+00  0.773E-01    0.00       1.0  T
  25   -550.3956763 -0.310426E+00  0.537E-01    0.09       1.0  T
  26   -550.4602107 -0.645344E-01  0.445E-01    0.16       1.0  T
  27   -550.3962416  0.639691E-01  0.407E-01    0.05       1.0  T
  28   -550.5173410 -0.121099E+00  0.319E-01    0.19       1.0  T
  29   -550.5419559 -0.246149E-01  0.274E-01    0.23       1.0  T
  30   -550.5551779 -0.132220E-01  0.240E-01    0.26       1.0  T
  31   -550.5700581 -0.148803E-01  0.195E-01    0.35       1.0  T
  32   -550.5761528 -0.609463E-02  0.168E-01    0.43       1.0  T
  33   -550.5833953 -0.724255E-02  0.124E-01    0.38       1.0  T
  34   -550.5851399 -0.174455E-02  0.990E-02    0.37       1.0  T
  35   -550.5873690 -0.222915E-02  0.778E-02    0.36       1.0  T
  36   -550.5887409 -0.137183E-02  0.654E-02    0.37       1.0  T
  37   -550.5894248 -0.683977E-03  0.602E-02    0.37       1.0  T
  38   -550.5898579 -0.433057E-03  0.515E-02    0.37       1.0  T
  39   -550.5907666 -0.908708E-03  0.406E-02    0.37       1.0  T
  40   -550.5911667 -0.400067E-03  0.373E-02    0.38       1.0  T
  41   -550.5915054 -0.338679E-03  0.341E-02    0.38       1.0  T
  42   -550.5917986 -0.293200E-03  0.296E-02    0.38       1.0  T
  43   -550.5920579 -0.259367E-03  0.257E-02    0.39       1.0  T
  44   -550.5923107 -0.252727E-03  0.205E-02    0.39       1.0  T
  45   -550.5924317 -0.121049E-03  0.166E-02    0.39       1.0  T
  46   -550.5924983 -0.665747E-04  0.138E-02    0.39       1.0  T
  47   -550.5925413 -0.430653E-04  0.115E-02    0.39       1.0  T
  48   -550.5925692 -0.278792E-04  0.995E-03    0.39       1.0  T
  49   -550.5926121 -0.429168E-04  0.761E-03    0.39       1.0  T
  50   -550.5926348 -0.227039E-04  0.650E-03    0.39       1.0  T
  51   -550.5926540 -0.191580E-04  0.516E-03    0.39       1.2  T
  52   -550.5926741 -0.200746E-04  0.362E-03    0.39       1.7  T
  53   -550.5926839 -0.981051E-05  0.277E-03    0.39       2.2  T
  54   -550.5926899 -0.606586E-05  0.169E-03    0.39       3.6  T
  55   -550.5926923 -0.230901E-05  0.114E-03    0.39       5.4  T
  56   -550.5926929 -0.634170E-06  0.849E-04    0.39       7.2  T
  57   -550.5926931 -0.231938E-06  0.710E-04    0.39       8.6  T
  58   -550.5926933 -0.212751E-06  0.560E-04    0.39      11.0  T
  59   -550.5926934 -0.103526E-06  0.443E-04    0.39      13.8  T
  60   -550.5926935 -0.312191E-07  0.353E-04    0.39      17.4  T
  61   -550.5926935 -0.221993E-07  0.295E-04    0.39      20.8  T
  62   -550.5926935 -0.245805E-07  0.223E-04    0.39      27.5  T
  63   -550.5926935 -0.287517E-07  0.149E-04    0.39      41.2  T
  64   -550.5926936 -0.122312E-07  0.102E-04    0.39      60.1  T

   *** convergence criteria satisfied after 64 iterations ***

         #    Occupation            Energy/Eh            Energy/eV
      -------------------------------------------------------------
         1        2.0000           -1.0330173             -28.1098
       ...           ...                  ...                  ...
       467        2.0000           -0.4172319             -11.3535
       468        2.0000           -0.4167109             -11.3393
       469        2.0000           -0.4151269             -11.2962
       470        2.0000           -0.4146382             -11.2829
       471        2.0000           -0.4123346             -11.2202
       472        2.0000           -0.4069726             -11.0743
       473        1.9989           -0.3929388             -10.6924 (HOMO)
       474        0.0011           -0.3787020             -10.3050 (LUMO)
       475                         -0.3697876             -10.0624
       476                         -0.3681573             -10.0181
       477                         -0.3676461             -10.0042
       478                         -0.3669685              -9.9857
       ...                                ...                  ...
       976                          1.5509453              42.2034
      -------------------------------------------------------------
                  HL-Gap            0.0142368 Eh            0.3874 eV
             Fermi-level           -0.3858205 Eh          -10.4987 eV

 SCC (total)                   0 d,  0 h,  0 min, 22.799 sec
 SCC setup                      ...        0 min,  0.020 sec (  0.086%)
 Dispersion                     ...        0 min,  0.012 sec (  0.053%)
 classical contributions        ...        0 min,  0.004 sec (  0.016%)
 integral evaluation            ...        0 min,  0.326 sec (  1.432%)
 iterations                     ...        0 min, 21.615 sec ( 94.807%)
 molecular gradient             ...        0 min,  0.754 sec (  3.306%)
 printout                       ...        0 min,  0.068 sec (  0.299%)

         :::::::::::::::::::::::::::::::::::::::::::::::::::::
         ::                     SUMMARY                     ::
         :::::::::::::::::::::::::::::::::::::::::::::::::::::
         :: total energy            -543.712507593304 Eh    ::
         :: gradient norm              1.126538369279 Eh/a0 ::
         :: HOMO-LUMO gap              0.387404031437 eV    ::
         ::.................................................::
         :: SCC energy              -550.592693559944 Eh    ::
         :: -> electrostatic           1.082016532107 Eh    ::
         :: repulsion energy           7.124984596420 Eh    ::
         :: dispersion energy         -0.244798629780 Eh    ::
         :: halogen bond corr.         0.000000000000 Eh    ::
         :: add. restraining           0.000000000000 Eh    ::
         :: total charge              -0.000000000000 e     ::
         :::::::::::::::::::::::::::::::::::::::::::::::::::::

      ----------------------------------------------------------- 
     |                   =====================                   |
     |                        A N C O P T                        |
     |                   =====================                   |
     |               Approximate Normal Coordinate               |
     |                Rational Function Optimizer                |
      ----------------------------------------------------------- 

          ...................................................
          :                      SETUP                      :
          :.................................................:
          :   optimization level            normal          :
          :   max. optcycles                   798          :
          :   ANC micro-cycles                  20          :
          :   degrees of freedom               792          :
          :.................................................:
          :   RF solver                   davidson          :
          :   write xtbopt.log                true          :
          :   linear?                        false          :
          :   energy convergence         0.5000000E-05 Eh   :
          :   grad. convergence          0.1000000E-02 Eh/α :
          :   maximium RF displ.         1.0000000          :
          :   Hlow (freq-cutoff)         0.1000000E-01      :
          :   Hmax (freq-cutoff)         5.0000000          :
          :   S6 in model hess.         20.0000000          :
          ...................................................

generating ANC from model Hessian ...
Using Lindh-Hessian (1995)
 Shifting diagonal of input Hessian by    1.0032829653593296E-002
 Lowest  eigenvalues of input Hessian
    0.010000    0.010006    0.010010    0.010016    0.010018    0.010022
    0.010023    0.010023    0.010025    0.010026    0.010031    0.000000
    0.000000    0.000000    0.000000    0.000000    0.000000    0.010033
 Highest eigenvalues
    2.702255    2.702255    2.703953    2.703958    3.024330    3.028383


........................................................................
.............................. CYCLE    1 ..............................
........................................................................
   1   -550.5926936 -0.550593E+03  0.713E-05    0.39       0.0  T
   2   -550.5926935  0.199524E-07  0.226E-04    0.39      27.2  T
   3   -550.5926936 -0.199403E-07  0.132E-04    0.39      46.6  T
   4   -550.5926936  0.121918E-08  0.143E-04    0.39      43.0  T
     SCC iter.                  ...        0 min,  1.367 sec
     gradient                   ...        0 min,  0.755 sec
 * total energy  :  -543.7125076 Eh     change       -0.6189680E-08 Eh
   gradient norm :     1.1265375 Eh/α   predicted     0.0000000E+00 (-100.00%)
   displ. norm   :     0.5508826 α      lambda       -0.5576164E+00
   maximum displ.:     0.1230077 α      in ANC's #782, #600, #550, ...

........................................................................
.............................. CYCLE    2 ..............................
........................................................................
   1   -550.8507543 -0.550851E+03  0.167E-01    0.68       0.0  T
   2   -550.8517365 -0.982265E-03  0.139E-01    0.67       1.0  T
   3   -550.8599018 -0.816522E-02  0.687E-02    0.68       1.0  T
   4   -550.8614479 -0.154618E-02  0.330E-02    0.68       1.0  T
   5   -550.8615153 -0.673601E-04  0.156E-02    0.67       1.0  T
   6   -550.8615911 -0.757823E-04  0.843E-03    0.68       1.0  T
   7   -550.8616309 -0.398455E-04  0.253E-03    0.68       2.4  T
   8   -550.8616328 -0.185201E-05  0.951E-04    0.68       6.4  T
   9   -550.8616332 -0.391290E-06  0.423E-04    0.68      14.5  T
  10   -550.8616333 -0.743745E-07  0.143E-04    0.68      42.9  T
  11   -550.8616333 -0.686305E-08  0.857E-05    0.68      71.5  T
     SCC iter.                  ...        0 min,  3.735 sec
     gradient                   ...        0 min,  0.752 sec
 * total energy  :  -544.1560174 Eh     change       -0.4435098E+00 Eh
   gradient norm :     0.6678317 Eh/α   predicted    -0.3634186E+00 ( -18.06%)
   displ. norm   :     0.6222696 α      lambda       -0.3797314E+00
   maximum displ.:     0.1318166 α      in ANC's #782, #600, #550, ...

........................................................................
.............................. CYCLE    3 ..............................
........................................................................
   1   -551.2397870 -0.551240E+03  0.188E-01    1.02       0.0  T
   2   -551.2467492 -0.696220E-02  0.105E-01    1.01       1.0  T
   3   -551.2501074 -0.335822E-02  0.654E-02    1.03       1.0  T
   4   -551.2516203 -0.151284E-02  0.370E-02    1.02       1.0  T
   5   -551.2520633 -0.443028E-03  0.145E-02    1.02       1.0  T
   6   -551.2521634 -0.100130E-03  0.414E-03    1.02       1.5  T
   7   -551.2521730 -0.957189E-05  0.195E-03    1.02       3.1  T
   8   -551.2521753 -0.227219E-05  0.797E-04    1.02       7.7  T
   9   -551.2521757 -0.474279E-06  0.378E-04    1.02      16.2  T
  10   -551.2521758 -0.725324E-07  0.104E-04    1.02      59.2  T
  11   -551.2521758 -0.284285E-08  0.602E-05    1.02     101.8  T
     SCC iter.                  ...        0 min,  3.730 sec
     gradient                   ...        0 min,  0.748 sec
 * total energy  :  -544.3865234 Eh     change       -0.2305061E+00 Eh
   gradient norm :     0.2889315 Eh/α   predicted    -0.2633854E+00 (  14.26%)
   displ. norm   :     0.6413488 α      lambda       -0.1254138E+00
   maximum displ.:     0.1280040 α      in ANC's #193, #309, #74, ...

........................................................................
.............................. CYCLE    4 ..............................
........................................................................
   1   -551.3584338 -0.551358E+03  0.972E-02    1.06       0.0  T
   2   -551.3599398 -0.150601E-02  0.625E-02    1.06       1.0  T
   3   -551.3609244 -0.984546E-03  0.327E-02    1.06       1.0  T
   4   -551.3611350 -0.210681E-03  0.232E-02    1.06       1.0  T
   5   -551.3613378 -0.202722E-03  0.862E-03    1.06       1.0  T
   6   -551.3613918 -0.540184E-04  0.226E-03    1.06       2.7  T
   7   -551.3613945 -0.277340E-05  0.137E-03    1.06       4.5  T
   8   -551.3613958 -0.121623E-05  0.357E-04    1.06      17.2  T
   9   -551.3613958 -0.622381E-07  0.145E-04    1.06      42.2  T
  10   -551.3613958 -0.911029E-08  0.597E-05    1.06     102.7  T
     SCC iter.                  ...        0 min,  3.390 sec
     gradient                   ...        0 min,  0.754 sec
 * total energy  :  -544.4821700 Eh     change       -0.9564659E-01 Eh
   gradient norm :     0.1401808 Eh/α   predicted    -0.8850002E-01 (  -7.47%)
   displ. norm   :     0.7776038 α      lambda       -0.8792304E-01
   maximum displ.:     0.2148478 α      in ANC's #193, #74, #309, ...

........................................................................
.............................. CYCLE    5 ..............................
........................................................................
   1   -551.4301954 -0.551430E+03  0.741E-02    1.11       0.0  T
   2   -551.4306824 -0.487024E-03  0.575E-02    1.10       1.0  T
   3   -551.4316288 -0.946408E-03  0.246E-02    1.10       1.0  T
   4   -551.4316186  0.101692E-04  0.215E-02    1.10       1.0  T
   5   -551.4318351 -0.216411E-03  0.569E-03    1.10       1.1  T
   6   -551.4318523 -0.172121E-04  0.208E-03    1.10       2.9  T
   7   -551.4318555 -0.321752E-05  0.103E-03    1.10       6.0  T
   8   -551.4318562 -0.718450E-06  0.278E-04    1.10      22.1  T
   9   -551.4318562 -0.274695E-07  0.125E-04    1.10      48.9  T
  10   -551.4318562 -0.773866E-08  0.536E-05    1.10     114.5  T
     SCC iter.                  ...        0 min,  3.387 sec
     gradient                   ...        0 min,  0.752 sec
 * total energy  :  -544.5563956 Eh     change       -0.7422554E-01 Eh
   gradient norm :     0.1108638 Eh/α   predicted    -0.7054386E-01 (  -4.96%)
   displ. norm   :     0.8547355 α      lambda       -0.7203141E-01
   maximum displ.:     0.2543625 α      in ANC's #193, #74, #78, ...

........................................................................
.............................. CYCLE    6 ..............................
........................................................................
   1   -551.4423519 -0.551442E+03  0.586E-02    1.10       0.0  T
   2   -551.4425402 -0.188251E-03  0.570E-02    1.10       1.0  T
   3   -551.4432303 -0.690113E-03  0.252E-02    1.10       1.0  T
   4   -551.4429565  0.273825E-03  0.226E-02    1.10       1.0  T
   5   -551.4432523 -0.295821E-03  0.494E-03    1.10       1.2  T
   6   -551.4432652 -0.129000E-04  0.165E-03    1.10       3.7  T
   7   -551.4432673 -0.209236E-05  0.615E-04    1.10      10.0  T
   8   -551.4432676 -0.311493E-06  0.201E-04    1.10      30.5  T
   9   -551.4432676 -0.163670E-07  0.859E-05    1.10      71.4  T
  10   -551.4432676 -0.251873E-08  0.418E-05    1.10     146.5  T
     SCC iter.                  ...        0 min,  3.391 sec
     gradient                   ...        0 min,  0.756 sec
 * total energy  :  -544.6159377 Eh     change       -0.5954214E-01 Eh
   gradient norm :     0.0894902 Eh/α   predicted    -0.6232781E-01 (   4.68%)
   displ. norm   :     0.8167808 α      lambda       -0.4698583E-01
   maximum displ.:     0.2809613 α      in ANC's #74, #78, #54, ...

........................................................................
.............................. CYCLE    7 ..............................
........................................................................
   1   -551.4643966 -0.551464E+03  0.398E-02    1.10       0.0  T
   2   -551.4644373 -0.407116E-04  0.428E-02    1.10       1.0  T
   3   -551.4648714 -0.434061E-03  0.187E-02    1.10       1.0  T
   4   -551.4646771  0.194229E-03  0.175E-02    1.10       1.0  T
   5   -551.4648746 -0.197490E-03  0.339E-03    1.10       1.8  T
   6   -551.4648790 -0.442372E-05  0.826E-04    1.10       7.4  T
   7   -551.4648794 -0.330441E-06  0.398E-04    1.10      15.4  T
   8   -551.4648795 -0.127075E-06  0.160E-04    1.10      38.4  T
   9   -551.4648795 -0.145778E-07  0.416E-05    1.10     147.3  T
     SCC iter.                  ...        0 min,  3.054 sec
     gradient                   ...        0 min,  0.745 sec
 * total energy  :  -544.6515300 Eh     change       -0.3559235E-01 Eh
   gradient norm :     0.0758698 Eh/α   predicted    -0.3916578E-01 (  10.04%)
   displ. norm   :     0.7787187 α      lambda       -0.3329248E-01
   maximum displ.:     0.2826905 α      in ANC's #74, #34, #78, ...

........................................................................
.............................. CYCLE    8 ..............................
........................................................................
   1   -551.5227551 -0.551523E+03  0.206E-02    1.10       0.0  T
   2   -551.5228136 -0.585111E-04  0.140E-02    1.10       1.0  T
   3   -551.5228810 -0.673745E-04  0.691E-03    1.10       1.0  T
   4   -551.5228911 -0.100486E-04  0.561E-03    1.10       1.1  T
   5   -551.5229068 -0.157867E-04  0.150E-03    1.10       4.1  T
   6   -551.5229077 -0.827714E-06  0.533E-04    1.10      11.5  T
   7   -551.5229078 -0.122082E-06  0.233E-04    1.10      26.3  T
   8   -551.5229078 -0.416401E-07  0.110E-04    1.10      55.9  T
   9   -551.5229078 -0.713726E-08  0.271E-05    1.10     226.2  T
     SCC iter.                  ...        0 min,  3.055 sec
     gradient                   ...        0 min,  0.755 sec
 * total energy  :  -544.6782626 Eh     change       -0.2673256E-01 Eh
   gradient norm :     0.0556003 Eh/α   predicted    -0.2674059E-01 (   0.03%)
   displ. norm   :     0.8905373 α      lambda       -0.3298131E-01
   maximum displ.:     0.3417853 α      in ANC's #74, #78, #75, ...

........................................................................
.............................. CYCLE    9 ..............................
........................................................................
   1   -551.5791465 -0.551579E+03  0.264E-02    1.10       0.0  T
   2   -551.5792694 -0.122895E-03  0.181E-02    1.10       1.0  T
   3   -551.5793736 -0.104178E-03  0.886E-03    1.10       1.0  T
   4   -551.5793617  0.118981E-04  0.718E-03    1.10       1.0  T
   5   -551.5793986 -0.368609E-04  0.225E-03    1.10       2.7  T
   6   -551.5794005 -0.192178E-05  0.660E-04    1.10       9.3  T
   7   -551.5794007 -0.265931E-06  0.326E-04    1.10      18.8  T
   8   -551.5794008 -0.992553E-07  0.994E-05    1.10      61.7  T
   9   -551.5794008 -0.491207E-08  0.360E-05    1.10     170.2  T
     SCC iter.                  ...        0 min,  3.056 sec
     gradient                   ...        0 min,  0.755 sec
 * total energy  :  -544.6975085 Eh     change       -0.1924588E-01 Eh
   gradient norm :     0.0850579 Eh/α   predicted    -0.2956870E-01 (  53.64%)
   displ. norm   :     0.7475845 α      lambda       -0.2650317E-01
   maximum displ.:     0.2794809 α      in ANC's #74, #54, #34, ...

........................................................................
.............................. CYCLE   10 ..............................
........................................................................
   1   -551.6294743 -0.551629E+03  0.192E-02    1.11       0.0  T
   2   -551.6294874 -0.130572E-04  0.161E-02    1.11       1.0  T
   3   -551.6295421 -0.547368E-04  0.735E-03    1.11       1.0  T
   4   -551.6295169  0.252795E-04  0.623E-03    1.11       1.0  T
   5   -551.6295497 -0.327955E-04  0.990E-04    1.11       6.2  T
   6   -551.6295502 -0.499930E-06  0.380E-04    1.11      16.1  T
   7   -551.6295503 -0.135098E-06  0.128E-04    1.11      48.1  T
   8   -551.6295503 -0.132804E-07  0.401E-05    1.11     152.8  T
     SCC iter.                  ...        0 min,  2.721 sec
     gradient                   ...        0 min,  0.761 sec
 * total energy  :  -544.7185612 Eh     change       -0.2105271E-01 Eh
   gradient norm :     0.0476235 Eh/α   predicted    -0.2065767E-01 (  -1.88%)
   displ. norm   :     0.8542314 α      lambda       -0.2169624E-01
   maximum displ.:     0.3067236 α      in ANC's #34, #74, #54, ...

........................................................................
.............................. CYCLE   11 ..............................
........................................................................
   1   -551.6717443 -0.551672E+03  0.169E-02    1.11       0.0  T
   2   -551.6717782 -0.338896E-04  0.122E-02    1.11       1.0  T
   3   -551.6718113 -0.330858E-04  0.563E-03    1.11       1.1  T
   4   -551.6718031  0.819339E-05  0.460E-03    1.11       1.3  T
   5   -551.6718166 -0.134861E-04  0.133E-03    1.11       4.6  T
   6   -551.6718180 -0.135517E-05  0.391E-04    1.11      15.7  T
   7   -551.6718181 -0.125251E-06  0.141E-04    1.11      43.4  T
   8   -551.6718181 -0.170891E-07  0.440E-05    1.11     139.4  T
     SCC iter.                  ...        0 min,  2.721 sec
     gradient                   ...        0 min,  0.757 sec
 * total energy  :  -544.7318454 Eh     change       -0.1328418E-01 Eh
   gradient norm :     0.0629475 Eh/α   predicted    -0.1876412E-01 (  41.25%)
   displ. norm   :     0.7898417 α      lambda       -0.2297273E-01
   maximum displ.:     0.2860175 α      in ANC's #74, #54, #34, ...

........................................................................
.............................. CYCLE   12 ..............................
........................................................................
   1   -551.7331280 -0.551733E+03  0.169E-02    1.12       0.0  T
   2   -551.7331498 -0.218567E-04  0.103E-02    1.12       1.0  T
   3   -551.7331533 -0.343989E-05  0.658E-03    1.12       1.0  T
   4   -551.7331579 -0.462071E-05  0.436E-03    1.12       1.4  T
   5   -551.7331715 -0.136034E-04  0.104E-03    1.12       5.9  T
   6   -551.7331721 -0.616003E-06  0.380E-04    1.12      16.1  T
   7   -551.7331723 -0.127829E-06  0.118E-04    1.12      52.1  T
   8   -551.7331723 -0.123038E-07  0.420E-05    1.12     146.0  T
     SCC iter.                  ...        0 min,  2.720 sec
     gradient                   ...        0 min,  0.763 sec
 * total energy  :  -544.7471156 Eh     change       -0.1527022E-01 Eh
   gradient norm :     0.0597943 Eh/α   predicted    -0.1865214E-01 (  22.15%)
   displ. norm   :     0.7663964 α      lambda       -0.1581530E-01
   maximum displ.:     0.2983642 α      in ANC's #54, #34, #74, ...

........................................................................
.............................. CYCLE   13 ..............................
........................................................................
   1   -551.7678756 -0.551768E+03  0.155E-02    1.13       0.0  T
   2   -551.7679139 -0.383244E-04  0.961E-03    1.13       1.0  T
   3   -551.7679297 -0.157626E-04  0.536E-03    1.13       1.1  T
   4   -551.7679273  0.235295E-05  0.451E-03    1.13       1.4  T
   5   -551.7679416 -0.142149E-04  0.114E-03    1.13       5.4  T
   6   -551.7679422 -0.605637E-06  0.410E-04    1.13      15.0  T
   7   -551.7679422 -0.874500E-07  0.171E-04    1.13      35.8  T
   8   -551.7679423 -0.235713E-07  0.746E-05    1.13      82.2  T
     SCC iter.                  ...        0 min,  2.720 sec
     gradient                   ...        0 min,  0.759 sec
 * total energy  :  -544.7587809 Eh     change       -0.1166527E-01 Eh
   gradient norm :     0.0479051 Eh/α   predicted    -0.1255232E-01 (   7.60%)
   displ. norm   :     0.8256014 α      lambda       -0.1322711E-01
   maximum displ.:     0.3542072 α      in ANC's #34, #54, #74, ...

........................................................................
.............................. CYCLE   14 ..............................
........................................................................
   1   -551.8009640 -0.551801E+03  0.125E-02    1.12       0.0  T
   2   -551.8009793 -0.152969E-04  0.859E-03    1.13       1.0  T
   3   -551.8009954 -0.160704E-04  0.414E-03    1.12       1.5  T
   4   -551.8009904  0.496123E-05  0.367E-03    1.12       1.7  T
   5   -551.8009999 -0.954366E-05  0.785E-04    1.12       7.8  T
   6   -551.8010001 -0.117750E-06  0.425E-04    1.12      14.4  T
   7   -551.8010002 -0.102696E-06  0.174E-04    1.12      35.3  T
   8   -551.8010002 -0.244372E-07  0.498E-05    1.12     123.2  T
     SCC iter.                  ...        0 min,  2.717 sec
     gradient                   ...        0 min,  0.761 sec
 * total energy  :  -544.7692584 Eh     change       -0.1047756E-01 Eh
   gradient norm :     0.0368978 Eh/α   predicted    -0.1112147E-01 (   6.15%)
   displ. norm   :     0.8344759 α      lambda       -0.1125420E-01
   maximum displ.:     0.3965648 α      in ANC's #34, #54, #74, ...

........................................................................
.............................. CYCLE   15 ..............................
........................................................................
   1   -551.8386881 -0.551839E+03  0.138E-02    1.12       0.0  T
   2   -551.8387046 -0.165102E-04  0.946E-03    1.12       1.0  T
   3   -551.8387260 -0.213743E-04  0.460E-03    1.12       1.3  T
   4   -551.8387230  0.300197E-05  0.393E-03    1.12       1.6  T
   5   -551.8387324 -0.947857E-05  0.973E-04    1.12       6.3  T
   6   -551.8387327 -0.245646E-06  0.406E-04    1.12      15.1  T
   7   -551.8387328 -0.118413E-06  0.131E-04    1.12      46.7  T
   8   -551.8387328 -0.135665E-07  0.475E-05    1.12     129.2  T
     SCC iter.                  ...        0 min,  2.716 sec
     gradient                   ...        0 min,  0.758 sec
 * total energy  :  -544.7771338 Eh     change       -0.7875356E-02 Eh
   gradient norm :     0.0407226 Eh/α   predicted    -0.9545525E-02 (  21.21%)
   displ. norm   :     0.7851459 α      lambda       -0.1002023E-01
   maximum displ.:     0.4077264 α      in ANC's #34, #54, #27, ...

........................................................................
.............................. CYCLE   16 ..............................
........................................................................
   1   -551.8692623 -0.551869E+03  0.120E-02    1.12       0.0  T
   2   -551.8692779 -0.155715E-04  0.859E-03    1.12       1.0  T
   3   -551.8692953 -0.173616E-04  0.368E-03    1.12       1.7  T
   4   -551.8692919  0.339728E-05  0.359E-03    1.12       1.7  T
   5   -551.8692993 -0.739573E-05  0.926E-04    1.12       6.6  T
   6   -551.8692995 -0.271271E-06  0.367E-04    1.12      16.7  T
   7   -551.8692996 -0.900802E-07  0.133E-04    1.12      46.2  T
   8   -551.8692996 -0.154738E-07  0.462E-05    1.12     132.6  T
     SCC iter.                  ...        0 min,  2.729 sec
     gradient                   ...        0 min,  0.760 sec
 * total energy  :  -544.7841107 Eh     change       -0.6976892E-02 Eh
   gradient norm :     0.0328337 Eh/α   predicted    -0.8098616E-02 (  16.08%)
   displ. norm   :     0.7730675 α      lambda       -0.7995243E-02
   maximum displ.:     0.4568248 α      in ANC's #34, #54, #27, ...

........................................................................
.............................. CYCLE   17 ..............................
........................................................................
   1   -551.8948302 -0.551895E+03  0.123E-02    1.12       0.0  T
   2   -551.8948457 -0.154583E-04  0.921E-03    1.12       1.0  T
   3   -551.8948645 -0.188503E-04  0.403E-03    1.12       1.5  T
   4   -551.8948584  0.614948E-05  0.380E-03    1.12       1.6  T
   5   -551.8948679 -0.946813E-05  0.984E-04    1.12       6.2  T
   6   -551.8948681 -0.223541E-06  0.398E-04    1.12      15.4  T
   7   -551.8948682 -0.954622E-07  0.161E-04    1.12      38.0  T
   8   -551.8948682 -0.188739E-07  0.538E-05    1.12     113.9  T
     SCC iter.                  ...        0 min,  2.709 sec
     gradient                   ...        0 min,  0.760 sec
 * total energy  :  -544.7884150 Eh     change       -0.4304298E-02 Eh
   gradient norm :     0.0412570 Eh/α   predicted    -0.6386734E-02 (  48.38%)
   displ. norm   :     0.6887028 α      lambda       -0.7470550E-02
   maximum displ.:     0.4289276 α      in ANC's #34, #54, #27, ...

........................................................................
.............................. CYCLE   18 ..............................
........................................................................
   1   -551.9143131 -0.551914E+03  0.909E-03    1.11       0.0  T
   2   -551.9143188 -0.569772E-05  0.742E-03    1.11       1.0  T
   3   -551.9143334 -0.146277E-04  0.323E-03    1.11       1.9  T
   4   -551.9143289  0.447836E-05  0.303E-03    1.11       2.0  T
   5   -551.9143351 -0.621300E-05  0.691E-04    1.11       8.9  T
   6   -551.9143352 -0.113303E-06  0.321E-04    1.11      19.1  T
   7   -551.9143353 -0.752589E-07  0.970E-05    1.11      63.2  T
   8   -551.9143353 -0.628370E-08  0.321E-05    1.11     191.0  T
     SCC iter.                  ...        0 min,  2.715 sec
     gradient                   ...        0 min,  0.760 sec
 * total energy  :  -544.7934922 Eh     change       -0.5077219E-02 Eh
   gradient norm :     0.0333883 Eh/α   predicted    -0.5506959E-02 (   8.46%)
   displ. norm   :     0.7192718 α      lambda       -0.6336586E-02
   maximum displ.:     0.4487239 α      in ANC's #34, #33, #27, ...

........................................................................
.............................. CYCLE   19 ..............................
........................................................................
   1   -551.9280538 -0.551928E+03  0.152E-02    1.11       0.0  T
   2   -551.9280719 -0.181686E-04  0.133E-02    1.11       1.0  T
   3   -551.9281153 -0.434005E-04  0.543E-03    1.11       1.1  T
   4   -551.9280995  0.158735E-04  0.528E-03    1.11       1.2  T
   5   -551.9281178 -0.183079E-04  0.116E-03    1.11       5.3  T
   6   -551.9281183 -0.550750E-06  0.355E-04    1.11      17.3  T
   7   -551.9281184 -0.952822E-07  0.127E-04    1.11      48.3  T
   8   -551.9281184 -0.143128E-07  0.303E-05    1.11     202.4  T
     SCC iter.                  ...        0 min,  2.721 sec
     gradient                   ...        0 min,  0.762 sec
 * total energy  :  -544.7963334 Eh     change       -0.2841165E-02 Eh
   gradient norm :     0.0540415 Eh/α   predicted    -0.4807422E-02 (  69.21%)
   displ. norm   :     0.6009259 α      lambda       -0.6378873E-02
   maximum displ.:     0.4095945 α      in ANC's #34, #27, #33, ...

........................................................................
.............................. CYCLE   20 ..............................
........................................................................
   1   -551.9553256 -0.551955E+03  0.145E-02    1.11       0.0  T
   2   -551.9553415 -0.158823E-04  0.109E-02    1.11       1.0  T
   3   -551.9553634 -0.219339E-04  0.478E-03    1.11       1.3  T
   4   -551.9553557  0.773457E-05  0.406E-03    1.11       1.5  T
   5   -551.9553674 -0.117615E-04  0.101E-03    1.11       6.1  T
   6   -551.9553679 -0.411687E-06  0.298E-04    1.11      20.6  T
   7   -551.9553679 -0.499034E-07  0.123E-04    1.11      50.0  T
   8   -551.9553679 -0.129338E-07  0.491E-05    1.11     124.8  T
     SCC iter.                  ...        0 min,  2.717 sec
     gradient                   ...        0 min,  0.762 sec
 * total energy  :  -544.8007289 Eh     change       -0.4395518E-02 Eh
   gradient norm :     0.0271932 Eh/α   predicted    -0.4341178E-02 (  -1.24%)
   displ. norm   :     0.7283966 α      lambda       -0.5776209E-02
   maximum displ.:     0.5226985 α      in ANC's #34, #27, #19, ...
 * RMSD in coord.:     0.6927643 α      energy gain  -0.1088221E+01 Eh

generating ANC from model Hessian ...
Using Lindh-Hessian (1995)
 Shifting diagonal of input Hessian by    1.0019152385467802E-002
 Lowest  eigenvalues of input Hessian
    0.010000    0.010004    0.010004    0.010008    0.010010    0.010011
    0.010012    0.010012    0.010015    0.000000    0.000000    0.000000
    0.000000    0.000000    0.000000    0.010037    0.010051    0.010059
 Highest eigenvalues
    3.659068    3.666585    3.668012    3.674232    3.674591    3.676632


........................................................................
.............................. CYCLE   21 ..............................
........................................................................
   1   -551.9549067 -0.551955E+03  0.147E-02    1.11       0.0  T
   2   -551.9549262 -0.194315E-04  0.103E-02    1.11       1.0  T
   3   -551.9549413 -0.151269E-04  0.519E-03    1.11       1.2  T
   4   -551.9549352  0.605961E-05  0.446E-03    1.11       1.4  T
   5   -551.9549483 -0.130659E-04  0.104E-03    1.11       5.9  T
   6   -551.9549487 -0.427299E-06  0.306E-04    1.11      20.0  T
   7   -551.9549488 -0.676465E-07  0.108E-04    1.11      56.8  T
   8   -551.9549488 -0.108478E-07  0.304E-05    1.11     201.4  T
     SCC iter.                  ...        0 min,  2.719 sec
     gradient                   ...        0 min,  0.762 sec
 * total energy  :  -544.8032947 Eh     change       -0.2565837E-02 Eh
   gradient norm :     0.0503747 Eh/α   predicted     0.0000000E+00 (-100.00%)
   displ. norm   :     0.3503225 α      lambda       -0.4139773E-02
   maximum displ.:     0.2362646 α      in ANC's #32, #36, #18, ...

........................................................................
.............................. CYCLE   22 ..............................
........................................................................
   1   -551.9636375 -0.551964E+03  0.846E-03    1.11       0.0  T
   2   -551.9636436 -0.613216E-05  0.545E-03    1.11       1.1  T
   3   -551.9636462 -0.259421E-05  0.283E-03    1.11       2.2  T
   4   -551.9636454  0.838827E-06  0.213E-03    1.11       2.9  T
   5   -551.9636486 -0.319537E-05  0.571E-04    1.11      10.7  T
   6   -551.9636487 -0.197058E-06  0.172E-04    1.11      35.7  T
   7   -551.9636488 -0.192041E-07  0.876E-05    1.11      70.0  T
     SCC iter.                  ...        0 min,  2.384 sec
     gradient                   ...        0 min,  0.767 sec
 * total energy  :  -544.8061639 Eh     change       -0.2869217E-02 Eh
   gradient norm :     0.0183583 Eh/α   predicted    -0.2326029E-02 ( -18.93%)
   displ. norm   :     0.6196915 α      lambda       -0.4874665E-02
   maximum displ.:     0.4029772 α      in ANC's #32, #36, #18, ...

........................................................................
.............................. CYCLE   23 ..............................
........................................................................
   1   -551.9740994 -0.551974E+03  0.125E-02    1.11       0.0  T
   2   -551.9741141 -0.146652E-04  0.804E-03    1.11       1.0  T
   3   -551.9741210 -0.687735E-05  0.411E-03    1.11       1.5  T
   4   -551.9741184  0.263514E-05  0.319E-03    1.11       1.9  T
   5   -551.9741258 -0.749407E-05  0.849E-04    1.11       7.2  T
   6   -551.9741262 -0.369379E-06  0.287E-04    1.11      21.4  T
   7   -551.9741263 -0.535108E-07  0.130E-04    1.11      47.2  T
   8   -551.9741263 -0.146138E-07  0.419E-05    1.11     146.4  T
     SCC iter.                  ...        0 min,  2.724 sec
     gradient                   ...        0 min,  0.766 sec
 * total energy  :  -544.8077532 Eh     change       -0.1589234E-02 Eh
   gradient norm :     0.0399441 Eh/α   predicted    -0.3373311E-02 ( 112.26%)
   displ. norm   :     0.4203381 α      lambda       -0.3822164E-02
   maximum displ.:     0.2767890 α      in ANC's #32, #36, #18, ...

........................................................................
.............................. CYCLE   24 ..............................
........................................................................
   1   -551.9787918 -0.551979E+03  0.374E-03    1.11       0.0  T
   2   -551.9787933 -0.143824E-05  0.255E-03    1.11       2.4  T
   3   -551.9787945 -0.120252E-05  0.148E-03    1.11       4.1  T
   4   -551.9787944  0.621346E-07  0.112E-03    1.11       5.5  T
   5   -551.9787952 -0.777310E-06  0.243E-04    1.11      25.3  T
   6   -551.9787952 -0.173026E-07  0.102E-04    1.11      60.4  T
   7   -551.9787952 -0.893192E-08  0.297E-05    1.11     206.8  T
     SCC iter.                  ...        0 min,  2.385 sec
     gradient                   ...        0 min,  0.777 sec
 * total energy  :  -544.8105766 Eh     change       -0.2823456E-02 Eh
   gradient norm :     0.0298433 Eh/α   predicted    -0.2248739E-02 ( -20.36%)
   displ. norm   :     0.5720669 α      lambda       -0.3439195E-02
   maximum displ.:     0.3926166 α      in ANC's #32, #36, #18, ...

........................................................................
.............................. CYCLE   25 ..............................
........................................................................
   1   -551.9770265 -0.551977E+03  0.663E-03    1.11       0.0  T
   2   -551.9770300 -0.358059E-05  0.445E-03    1.11       1.4  T
   3   -551.9770341 -0.402922E-05  0.248E-03    1.11       2.5  T
   4   -551.9770349 -0.842871E-06  0.184E-03    1.11       3.3  T
   5   -551.9770368 -0.184978E-05  0.465E-04    1.11      13.2  T
   6   -551.9770368 -0.607481E-07  0.157E-04    1.11      39.0  T
   7   -551.9770368 -0.185788E-07  0.485E-05    1.11     126.4  T
     SCC iter.                  ...        0 min,  2.385 sec
     gradient                   ...        0 min,  0.765 sec
 * total energy  :  -544.8131289 Eh     change       -0.2552290E-02 Eh
   gradient norm :     0.0130724 Eh/α   predicted    -0.2282354E-02 ( -10.58%)
   displ. norm   :     0.6987740 α      lambda       -0.3391657E-02
   maximum displ.:     0.4708580 α      in ANC's #32, #36, #18, ...

........................................................................
.............................. CYCLE   26 ..............................
........................................................................
   1   -551.9775697 -0.551978E+03  0.681E-03    1.11       0.0  T
   2   -551.9775748 -0.509342E-05  0.456E-03    1.11       1.3  T
   3   -551.9775801 -0.534662E-05  0.245E-03    1.11       2.5  T
   4   -551.9775812 -0.108962E-05  0.179E-03    1.11       3.4  T
   5   -551.9775829 -0.164918E-05  0.470E-04    1.11      13.1  T
   6   -551.9775829 -0.482326E-07  0.174E-04    1.11      35.3  T
   7   -551.9775830 -0.187109E-07  0.644E-05    1.11      95.2  T
     SCC iter.                  ...        0 min,  2.382 sec
     gradient                   ...        0 min,  0.768 sec
 * total energy  :  -544.8154257 Eh     change       -0.2296823E-02 Eh
   gradient norm :     0.0249016 Eh/α   predicted    -0.2523885E-02 (   9.89%)
   displ. norm   :     0.6643112 α      lambda       -0.3129060E-02
   maximum displ.:     0.4527581 α      in ANC's #32, #36, #18, ...

........................................................................
.............................. CYCLE   27 ..............................
........................................................................
   1   -551.9852035 -0.551985E+03  0.470E-03    1.11       0.0  T
   2   -551.9852068 -0.338127E-05  0.260E-03    1.11       2.4  T
   3   -551.9852088 -0.201109E-05  0.182E-03    1.11       3.4  T
   4   -551.9852106 -0.170529E-05  0.817E-04    1.11       7.5  T
   5   -551.9852107 -0.186974E-06  0.267E-04    1.11      23.0  T
   6   -551.9852108 -0.104477E-07  0.163E-04    1.11      37.6  T
   7   -551.9852108 -0.154656E-07  0.655E-05    1.11      93.6  T
     SCC iter.                  ...        0 min,  2.384 sec
     gradient                   ...        0 min,  0.766 sec
 * total energy  :  -544.8181001 Eh     change       -0.2674319E-02 Eh
   gradient norm :     0.0225235 Eh/α   predicted    -0.2254973E-02 ( -15.68%)
   displ. norm   :     0.7345789 α      lambda       -0.3100179E-02
   maximum displ.:     0.5075794 α      in ANC's #32, #36, #18, ...

........................................................................
.............................. CYCLE   28 ..............................
........................................................................
   1   -551.9991729 -0.551999E+03  0.604E-03    1.10       0.0  T
   2   -551.9991776 -0.463967E-05  0.302E-03    1.10       2.0  T
   3   -551.9991781 -0.558673E-06  0.235E-03    1.10       2.6  T
   4   -551.9991801 -0.201089E-05  0.120E-03    1.10       5.1  T
   5   -551.9991810 -0.834440E-06  0.359E-04    1.10      17.1  T
   6   -551.9991810 -0.116197E-07  0.203E-04    1.10      30.2  T
   7   -551.9991810 -0.213460E-07  0.844E-05    1.10      72.6  T
   8   -551.9991810 -0.598584E-08  0.261E-05    1.10     234.8  T
     SCC iter.                  ...        0 min,  2.720 sec
     gradient                   ...        0 min,  0.762 sec
 * total energy  :  -544.8207461 Eh     change       -0.2646015E-02 Eh
   gradient norm :     0.0096339 Eh/α   predicted    -0.2386531E-02 (  -9.81%)
   displ. norm   :     0.8324727 α      lambda       -0.2688559E-02
   maximum displ.:     0.5774271 α      in ANC's #32, #36, #18, ...

........................................................................
.............................. CYCLE   29 ..............................
........................................................................
   1   -552.0117048 -0.552012E+03  0.569E-03    1.10       0.0  T
   2   -552.0117107 -0.586517E-05  0.304E-03    1.10       2.0  T
   3   -552.0117136 -0.290628E-05  0.209E-03    1.10       2.9  T
   4   -552.0117159 -0.226493E-05  0.898E-04    1.10       6.8  T
   5   -552.0117161 -0.264261E-06  0.308E-04    1.10      19.9  T
   6   -552.0117162 -0.523858E-08  0.192E-04    1.10      31.9  T
   7   -552.0117162 -0.176326E-07  0.841E-05    1.10      72.9  T
     SCC iter.                  ...        0 min,  2.267 sec
     gradient                   ...        0 min,  0.730 sec
 * total energy  :  -544.8231888 Eh     change       -0.2442762E-02 Eh
   gradient norm :     0.0083972 Eh/α   predicted    -0.2275881E-02 (  -6.83%)
   displ. norm   :     0.8647378 α      lambda       -0.2596932E-02
   maximum displ.:     0.6043857 α      in ANC's #32, #36, #18, ...

........................................................................
.............................. CYCLE   30 ..............................
........................................................................
   1   -552.0255513 -0.552026E+03  0.612E-03    1.10       0.0  T
   2   -552.0255584 -0.707461E-05  0.326E-03    1.10       1.9  T
   3   -552.0255615 -0.305928E-05  0.226E-03    1.10       2.7  T
   4   -552.0255640 -0.258389E-05  0.103E-03    1.10       5.9  T
   5   -552.0255644 -0.348353E-06  0.332E-04    1.10      18.4  T
   6   -552.0255644 -0.433397E-08  0.214E-04    1.10      28.7  T
   7   -552.0255644 -0.228788E-07  0.879E-05    1.10      69.7  T
   8   -552.0255644 -0.636624E-08  0.311E-05    1.10     196.8  T
     SCC iter.                  ...        0 min,  2.702 sec
     gradient                   ...        0 min,  0.766 sec
 * total energy  :  -544.8254414 Eh     change       -0.2252525E-02 Eh
   gradient norm :     0.0095151 Eh/α   predicted    -0.2269437E-02 (   0.75%)
   displ. norm   :     0.8508167 α      lambda       -0.2313815E-02
   maximum displ.:     0.6014991 α      in ANC's #32, #36, #18, ...

........................................................................
.............................. CYCLE   31 ..............................
........................................................................
   1   -552.0411480 -0.552041E+03  0.620E-03    1.10       0.0  T
   2   -552.0411557 -0.771894E-05  0.311E-03    1.10       2.0  T
   3   -552.0411579 -0.218124E-05  0.229E-03    1.10       2.7  T
   4   -552.0411603 -0.243492E-05  0.108E-03    1.10       5.7  T
   5   -552.0411607 -0.425208E-06  0.328E-04    1.10      18.7  T
   6   -552.0411607 -0.135742E-09  0.219E-04    1.10      28.0  T
   7   -552.0411607 -0.258796E-07  0.868E-05    1.10      70.6  T
   8   -552.0411608 -0.600130E-08  0.312E-05    1.10     196.5  T
     SCC iter.                  ...        0 min,  2.717 sec
     gradient                   ...        0 min,  0.765 sec
 * total energy  :  -544.8274162 Eh     change       -0.1974864E-02 Eh
   gradient norm :     0.0074884 Eh/α   predicted    -0.1994386E-02 (   0.99%)
   displ. norm   :     0.8435833 α      lambda       -0.1775972E-02
   maximum displ.:     0.5992308 α      in ANC's #32, #36, #18, ...

........................................................................
.............................. CYCLE   32 ..............................
........................................................................
   1   -552.0525463 -0.552053E+03  0.611E-03    1.09       0.0  T
   2   -552.0525550 -0.866955E-05  0.311E-03    1.10       2.0  T
   3   -552.0525577 -0.273044E-05  0.211E-03    1.09       2.9  T
   4   -552.0525598 -0.205917E-05  0.104E-03    1.09       5.9  T
   5   -552.0525601 -0.367171E-06  0.330E-04    1.09      18.6  T
   6   -552.0525601 -0.138471E-09  0.222E-04    1.09      27.7  T
   7   -552.0525602 -0.278491E-07  0.861E-05    1.09      71.2  T
   8   -552.0525602 -0.584623E-08  0.311E-05    1.09     197.3  T
     SCC iter.                  ...        0 min,  2.720 sec
     gradient                   ...        0 min,  0.763 sec
 * total energy  :  -544.8289609 Eh     change       -0.1544718E-02 Eh
   gradient norm :     0.0087527 Eh/α   predicted    -0.1519907E-02 (  -1.61%)
   displ. norm   :     0.8105191 α      lambda       -0.1428410E-02
   maximum displ.:     0.5754717 α      in ANC's #32, #36, #18, ...

........................................................................
.............................. CYCLE   33 ..............................
........................................................................
   1   -552.0650597 -0.552065E+03  0.629E-03    1.09       0.0  T
   2   -552.0650695 -0.984046E-05  0.282E-03    1.09       2.2  T
   3   -552.0650713 -0.178744E-05  0.203E-03    1.09       3.0  T
   4   -552.0650732 -0.186793E-05  0.979E-04    1.09       6.3  T
   5   -552.0650736 -0.397944E-06  0.332E-04    1.09      18.5  T
   6   -552.0650736 -0.240902E-08  0.205E-04    1.09      30.0  T
   7   -552.0650736 -0.258672E-07  0.801E-05    1.09      76.6  T
   8   -552.0650736 -0.459397E-08  0.310E-05    1.09     197.9  T
     SCC iter.                  ...        0 min,  2.719 sec
     gradient                   ...        0 min,  0.763 sec
 * total energy  :  -544.8301758 Eh     change       -0.1214852E-02 Eh
   gradient norm :     0.0051682 Eh/α   predicted    -0.1183400E-02 (  -2.59%)
   displ. norm   :     0.8052719 α      lambda       -0.1102786E-02
   maximum displ.:     0.5635301 α      in ANC's #32, #36, #18, ...

........................................................................
.............................. CYCLE   34 ..............................
........................................................................
   1   -552.0706515 -0.552071E+03  0.620E-03    1.09       0.0  T
   2   -552.0706616 -0.100317E-04  0.324E-03    1.09       1.9  T
   3   -552.0706649 -0.327680E-05  0.200E-03    1.09       3.1  T
   4   -552.0706668 -0.195847E-05  0.108E-03    1.09       5.7  T
   5   -552.0706671 -0.321795E-06  0.317E-04    1.09      19.3  T
   6   -552.0706671 -0.139919E-07  0.204E-04    1.09      30.0  T
   7   -552.0706672 -0.299657E-07  0.708E-05    1.09      86.6  T
   8   -552.0706672 -0.351122E-08  0.260E-05    1.09     235.5  T
     SCC iter.                  ...        0 min,  2.719 sec
     gradient                   ...        0 min,  0.766 sec
 * total energy  :  -544.8310655 Eh     change       -0.8896971E-03 Eh
   gradient norm :     0.0121404 Eh/α   predicted    -0.9089523E-03 (   2.16%)
   displ. norm   :     0.7128519 α      lambda       -0.9584391E-03
   maximum displ.:     0.4867932 α      in ANC's #32, #18, #36, ...

........................................................................
.............................. CYCLE   35 ..............................
........................................................................
   1   -552.0840033 -0.552084E+03  0.782E-03    1.09       0.0  T
   2   -552.0840153 -0.120677E-04  0.314E-03    1.09       2.0  T
   3   -552.0840154 -0.561766E-07  0.246E-03    1.09       2.5  T
   4   -552.0840170 -0.164948E-05  0.143E-03    1.09       4.3  T
   5   -552.0840182 -0.118337E-05  0.378E-04    1.09      16.2  T
   6   -552.0840183 -0.216943E-07  0.174E-04    1.09      35.2  T
   7   -552.0840183 -0.199520E-07  0.664E-05    1.09      92.3  T
     SCC iter.                  ...        0 min,  2.383 sec
     gradient                   ...        0 min,  0.774 sec
 * total energy  :  -544.8317267 Eh     change       -0.6611972E-03 Eh
   gradient norm :     0.0072313 Eh/α   predicted    -0.7227422E-03 (   9.31%)
   displ. norm   :     0.6926348 α      lambda       -0.6707546E-03
   maximum displ.:     0.4651942 α      in ANC's #32, #18, #36, ...

........................................................................
.............................. CYCLE   36 ..............................
........................................................................
   1   -552.0859011 -0.552086E+03  0.594E-03    1.09       0.0  T
   2   -552.0859104 -0.932302E-05  0.300E-03    1.09       2.0  T
   3   -552.0859129 -0.252348E-05  0.180E-03    1.09       3.4  T
   4   -552.0859146 -0.164290E-05  0.105E-03    1.09       5.9  T
   5   -552.0859149 -0.355622E-06  0.272E-04    1.09      22.5  T
   6   -552.0859149 -0.192915E-07  0.144E-04    1.09      42.6  T
   7   -552.0859150 -0.174321E-07  0.442E-05    1.09     138.8  T
     SCC iter.                  ...        0 min,  2.390 sec
     gradient                   ...        0 min,  0.769 sec
 * total energy  :  -544.8321896 Eh     change       -0.4629150E-03 Eh
   gradient norm :     0.0079817 Eh/α   predicted    -0.4962763E-03 (   7.21%)
   displ. norm   :     0.5134657 α      lambda       -0.3287492E-03
   maximum displ.:     0.3216171 α      in ANC's #32, #18, #36, ...

........................................................................
.............................. CYCLE   37 ..............................
........................................................................
   1   -552.0905297 -0.552091E+03  0.416E-03    1.08       0.0  T
   2   -552.0905351 -0.535669E-05  0.188E-03    1.08       3.3  T
   3   -552.0905363 -0.124439E-05  0.115E-03    1.08       5.4  T
   4   -552.0905372 -0.890454E-06  0.430E-04    1.08      14.2  T
   5   -552.0905372 -0.294641E-07  0.165E-04    1.08      37.1  T
   6   -552.0905373 -0.217460E-08  0.847E-05    1.08      72.4  T
     SCC iter.                  ...        0 min,  2.042 sec
     gradient                   ...        0 min,  0.769 sec
 * total energy  :  -544.8324502 Eh     change       -0.2605918E-03 Eh
   gradient norm :     0.0070404 Eh/α   predicted    -0.2077152E-03 ( -20.29%)
   displ. norm   :     0.3859518 α      lambda       -0.2747416E-03
   maximum displ.:     0.2407241 α      in ANC's #18, #32, #25, ...

........................................................................
.............................. CYCLE   38 ..............................
........................................................................
   1   -552.0959954 -0.552096E+03  0.421E-03    1.08       0.0  T
   2   -552.0959990 -0.366236E-05  0.199E-03    1.08       3.1  T
   3   -552.0959994 -0.358315E-06  0.148E-03    1.08       4.1  T
   4   -552.0960000 -0.578051E-06  0.886E-04    1.08       6.9  T
   5   -552.0960004 -0.416823E-06  0.144E-04    1.08      42.6  T
   6   -552.0960004 -0.487512E-08  0.727E-05    1.08      84.3  T
     SCC iter.                  ...        0 min,  2.049 sec
     gradient                   ...        0 min,  0.766 sec
 * total energy  :  -544.8326461 Eh     change       -0.1958852E-03 Eh
   gradient norm :     0.0051871 Eh/α   predicted    -0.1578369E-03 ( -19.42%)
   displ. norm   :     0.3927747 α      lambda       -0.2634683E-03
   maximum displ.:     0.2630647 α      in ANC's #18, #32, #20, ...

........................................................................
.............................. CYCLE   39 ..............................
........................................................................
   1   -552.0993824 -0.552099E+03  0.479E-03    1.08       0.0  T
   2   -552.0993875 -0.508554E-05  0.218E-03    1.08       2.8  T
   3   -552.0993879 -0.442995E-06  0.154E-03    1.08       4.0  T
   4   -552.0993888 -0.887813E-06  0.971E-04    1.08       6.3  T
   5   -552.0993893 -0.470678E-06  0.167E-04    1.08      36.8  T
   6   -552.0993893 -0.377986E-08  0.763E-05    1.08      80.4  T
     SCC iter.                  ...        0 min,  2.049 sec
     gradient                   ...        0 min,  0.768 sec
 * total energy  :  -544.8327999 Eh     change       -0.1538615E-03 Eh
   gradient norm :     0.0087051 Eh/α   predicted    -0.1520615E-03 (  -1.17%)
   displ. norm   :     0.3627580 α      lambda       -0.2372202E-03
   maximum displ.:     0.2461402 α      in ANC's #18, #32, #20, ...

........................................................................
.............................. CYCLE   40 ..............................
........................................................................
   1   -552.1001323 -0.552100E+03  0.389E-03    1.08       0.0  T
   2   -552.1001367 -0.444363E-05  0.171E-03    1.08       3.6  T
   3   -552.1001375 -0.728811E-06  0.106E-03    1.08       5.8  T
   4   -552.1001381 -0.681600E-06  0.594E-04    1.08      10.3  T
   5   -552.1001383 -0.139249E-06  0.154E-04    1.08      39.7  T
   6   -552.1001383 -0.279204E-08  0.862E-05    1.08      71.1  T
     SCC iter.                  ...        0 min,  2.048 sec
     gradient                   ...        0 min,  0.767 sec
 * total energy  :  -544.8329858 Eh     change       -0.1858274E-03 Eh
   gradient norm :     0.0055716 Eh/α   predicted    -0.1342236E-03 ( -27.77%)
   displ. norm   :     0.4879019 α      lambda       -0.3277372E-03
   maximum displ.:     0.3449457 α      in ANC's #18, #20, #17, ...

........................................................................
.............................. CYCLE   41 ..............................
........................................................................
   1   -552.1007417 -0.552101E+03  0.495E-03    1.08       0.0  T
   2   -552.1007483 -0.658626E-05  0.219E-03    1.08       2.8  T
   3   -552.1007491 -0.869397E-06  0.139E-03    1.08       4.4  T
   4   -552.1007499 -0.760542E-06  0.942E-04    1.08       6.5  T
   5   -552.1007504 -0.461845E-06  0.200E-04    1.08      30.6  T
   6   -552.1007504 -0.549210E-08  0.124E-04    1.08      49.6  T
   7   -552.1007504 -0.143796E-07  0.279E-05    1.08     219.9  T
     SCC iter.                  ...        0 min,  2.384 sec
     gradient                   ...        0 min,  0.766 sec
 * total energy  :  -544.8332176 Eh     change       -0.2318773E-03 Eh
   gradient norm :     0.0096809 Eh/α   predicted    -0.2028804E-03 ( -12.51%)
   displ. norm   :     0.5662350 α      lambda       -0.4228237E-03
   maximum displ.:     0.3923841 α      in ANC's #18, #36, #20, ...

........................................................................
.............................. CYCLE   42 ..............................
........................................................................
   1   -552.0999364 -0.552100E+03  0.515E-03    1.08       0.0  T
   2   -552.0999427 -0.628825E-05  0.231E-03    1.08       2.7  T
   3   -552.0999433 -0.658997E-06  0.148E-03    1.08       4.1  T
   4   -552.0999436 -0.221641E-06  0.112E-03    1.08       5.5  T
   5   -552.0999445 -0.903044E-06  0.208E-04    1.08      29.5  T
   6   -552.0999445 -0.550574E-08  0.130E-04    1.08      47.2  T
   7   -552.0999445 -0.141492E-07  0.329E-05    1.08     186.4  T
     SCC iter.                  ...        0 min,  2.376 sec
     gradient                   ...        0 min,  0.767 sec
 * total energy  :  -544.8335082 Eh     change       -0.2905271E-03 Eh
   gradient norm :     0.0119440 Eh/α   predicted    -0.2791961E-03 (  -3.90%)
   displ. norm   :     0.4943215 α      lambda       -0.3736681E-03
   maximum displ.:     0.3308425 α      in ANC's #18, #36, #20, ...
 * RMSD in coord.:     0.7317394 α      energy gain  -0.3277929E-01 Eh

generating ANC from model Hessian ...
Using Lindh-Hessian (1995)
 Shifting diagonal of input Hessian by    1.0017956365007623E-002
 Lowest  eigenvalues of input Hessian
    0.010000    0.010003    0.010005    0.010008    0.010009    0.010010
    0.010010    0.010012    0.010014    0.000000    0.000000    0.000000
    0.000000    0.000000    0.000000    0.010035    0.010051    0.010056
 Highest eigenvalues
    3.599822    3.601032    3.605046    3.606103    3.608779    3.611569


........................................................................
.............................. CYCLE   43 ..............................
........................................................................
   1   -552.0987515 -0.552099E+03  0.369E-03    1.08       0.0  T
   2   -552.0987552 -0.371547E-05  0.174E-03    1.08       3.5  T
   3   -552.0987558 -0.536175E-06  0.104E-03    1.08       5.9  T
   4   -552.0987559 -0.160562E-06  0.778E-04    1.08       7.9  T
   5   -552.0987563 -0.389440E-06  0.180E-04    1.08      34.1  T
   6   -552.0987563 -0.306920E-08  0.107E-04    1.08      57.4  T
     SCC iter.                  ...        0 min,  2.047 sec
     gradient                   ...        0 min,  0.767 sec
 * total energy  :  -544.8338143 Eh     change       -0.3061347E-03 Eh
   gradient norm :     0.0084313 Eh/α   predicted     0.0000000E+00 (-100.00%)
   displ. norm   :     0.0584978 α      lambda       -0.8218629E-04
   maximum displ.:     0.0260470 α      in ANC's #36, #17, #32, ...

........................................................................
.............................. CYCLE   44 ..............................
........................................................................
   1   -552.0992714 -0.552099E+03  0.177E-03    1.08       0.0  T
   2   -552.0992719 -0.526893E-06  0.738E-04    1.08       8.3  T
   3   -552.0992718  0.101715E-06  0.556E-04    1.08      11.0  T
   4   -552.0992720 -0.154707E-06  0.356E-04    1.08      17.2  T
   5   -552.0992720 -0.717371E-07  0.775E-05    1.08      79.1  T
   6   -552.0992720 -0.213697E-08  0.330E-05    1.08     186.0  T
     SCC iter.                  ...        0 min,  2.044 sec
     gradient                   ...        0 min,  0.768 sec
 * total energy  :  -544.8338981 Eh     change       -0.8381062E-04 Eh
   gradient norm :     0.0040597 Eh/α   predicted    -0.5558809E-04 ( -33.67%)
   displ. norm   :     0.1842168 α      lambda       -0.2173400E-03
   maximum displ.:     0.0859087 α      in ANC's #36, #17, #32, ...

........................................................................
.............................. CYCLE   45 ..............................
........................................................................
   1   -552.0990524 -0.552099E+03  0.419E-03    1.08       0.0  T
   2   -552.0990559 -0.342934E-05  0.171E-03    1.08       3.6  T
   3   -552.0990554  0.496053E-06  0.134E-03    1.08       4.6  T
   4   -552.0990565 -0.113212E-05  0.787E-04    1.08       7.8  T
   5   -552.0990568 -0.313818E-06  0.192E-04    1.08      31.9  T
   6   -552.0990568 -0.121097E-07  0.833E-05    1.08      73.6  T
     SCC iter.                  ...        0 min,  2.041 sec
     gradient                   ...        0 min,  0.769 sec
 * total energy  :  -544.8339375 Eh     change       -0.3936842E-04 Eh
   gradient norm :     0.0088418 Eh/α   predicted    -0.1123731E-03 ( 185.44%)
   displ. norm   :     0.1230165 α      lambda       -0.2167405E-03
   maximum displ.:     0.0541845 α      in ANC's #17, #36, #32, ...

........................................................................
.............................. CYCLE   46 ..............................
........................................................................
   1   -552.0977917 -0.552098E+03  0.124E-03    1.08       0.0  T
   2   -552.0977921 -0.379227E-06  0.559E-04    1.08      11.0  T
   3   -552.0977921 -0.335233E-07  0.414E-04    1.08      14.8  T
   4   -552.0977922 -0.119966E-06  0.208E-04    1.08      29.5  T
   5   -552.0977922 -0.141930E-07  0.749E-05    1.08      81.8  T
   6   -552.0977922 -0.140506E-08  0.299E-05    1.08     205.2  T
     SCC iter.                  ...        0 min,  2.047 sec
     gradient                   ...        0 min,  0.767 sec
 * total energy  :  -544.8340288 Eh     change       -0.9131667E-04 Eh
   gradient norm :     0.0085027 Eh/α   predicted    -0.1100122E-03 (  20.47%)
   displ. norm   :     0.0938977 α      lambda       -0.1599187E-03
   maximum displ.:     0.0389112 α      in ANC's #17, #36, #32, ...

........................................................................
.............................. CYCLE   47 ..............................
........................................................................
   1   -552.0957194 -0.552096E+03  0.156E-03    1.08       0.0  T
   2   -552.0957197 -0.247745E-06  0.793E-04    1.08       7.7  T
   3   -552.0957196  0.792725E-07  0.549E-04    1.08      11.2  T
   4   -552.0957197 -0.805276E-07  0.363E-04    1.08      16.9  T
   5   -552.0957197 -0.786271E-07  0.799E-05    1.08      76.8  T
   6   -552.0957197 -0.226260E-08  0.274E-05    1.08     224.2  T
     SCC iter.                  ...        0 min,  2.046 sec
     gradient                   ...        0 min,  0.766 sec
 * total energy  :  -544.8340428 Eh     change       -0.1395205E-04 Eh
   gradient norm :     0.0047473 Eh/α   predicted    -0.8066462E-04 ( 478.16%)
   displ. norm   :     0.0770237 α      lambda       -0.1767069E-03
   maximum displ.:     0.0366955 α      in ANC's #17, #36, #32, ...

........................................................................
.............................. CYCLE   48 ..............................
........................................................................
   1   -552.0949244 -0.552095E+03  0.105E-03    1.08       0.0  T
   2   -552.0949246 -0.194485E-06  0.518E-04    1.08      11.8  T
   3   -552.0949246 -0.391844E-08  0.317E-04    1.08      19.3  T
   4   -552.0949246  0.117427E-08  0.264E-04    1.08      23.3  T
   5   -552.0949247 -0.466511E-07  0.601E-05    1.08     102.0  T
   6   -552.0949247 -0.129864E-08  0.161E-05    1.08     381.7  T
     SCC iter.                  ...        0 min,  2.048 sec
     gradient                   ...        0 min,  0.763 sec
 * total energy  :  -544.8341492 Eh     change       -0.1064006E-03 Eh
   gradient norm :     0.0025985 Eh/α   predicted    -0.8888015E-04 ( -16.47%)
   displ. norm   :     0.1570856 α      lambda       -0.9861142E-04
   maximum displ.:     0.0870183 α      in ANC's #17, #36, #32, ...

........................................................................
.............................. CYCLE   49 ..............................
........................................................................
   1   -552.0935547 -0.552094E+03  0.103E-03    1.08       0.0  T
   2   -552.0935550 -0.285650E-06  0.471E-04    1.08      13.0  T
   3   -552.0935550 -0.420791E-07  0.318E-04    1.08      19.3  T
   4   -552.0935551 -0.377348E-07  0.187E-04    1.08      32.8  T
   5   -552.0935551 -0.155901E-07  0.574E-05    1.08     106.9  T
     SCC iter.                  ...        0 min,  1.707 sec
     gradient                   ...        0 min,  0.767 sec
 * total energy  :  -544.8342180 Eh     change       -0.6886985E-04 Eh
   gradient norm :     0.0024809 Eh/α   predicted    -0.5052500E-04 ( -26.64%)
   displ. norm   :     0.2607052 α      lambda       -0.1133260E-03
   maximum displ.:     0.1480419 α      in ANC's #17, #36, #32, ...

........................................................................
.............................. CYCLE   50 ..............................
........................................................................
   1   -552.0910476 -0.552091E+03  0.184E-03    1.08       0.0  T
   2   -552.0910487 -0.108236E-05  0.815E-04    1.08       7.5  T
   3   -552.0910489 -0.176413E-06  0.466E-04    1.08      13.1  T
   4   -552.0910489 -0.532737E-07  0.318E-04    1.08      19.3  T
   5   -552.0910490 -0.507073E-07  0.926E-05    1.08      66.2  T
   6   -552.0910490 -0.195621E-08  0.491E-05    1.08     124.8  T
     SCC iter.                  ...        0 min,  2.051 sec
     gradient                   ...        0 min,  0.771 sec
 * total energy  :  -544.8342984 Eh     change       -0.8036418E-04 Eh
   gradient norm :     0.0029245 Eh/α   predicted    -0.6051617E-04 ( -24.70%)
   displ. norm   :     0.3792103 α      lambda       -0.1616057E-03
   maximum displ.:     0.2191705 α      in ANC's #17, #36, #32, ...

........................................................................
.............................. CYCLE   51 ..............................
........................................................................
   1   -552.0875307 -0.552088E+03  0.311E-03    1.08       0.0  T
   2   -552.0875341 -0.333794E-05  0.129E-03    1.08       4.8  T
   3   -552.0875345 -0.453741E-06  0.673E-04    1.08       9.1  T
   4   -552.0875346 -0.837963E-07  0.505E-04    1.08      12.1  T
   5   -552.0875348 -0.142553E-06  0.139E-04    1.08      44.1  T
   6   -552.0875348 -0.469777E-08  0.665E-05    1.08      92.2  T
     SCC iter.                  ...        0 min,  2.051 sec
     gradient                   ...        0 min,  0.770 sec
 * total energy  :  -544.8343980 Eh     change       -0.9963187E-04 Eh
   gradient norm :     0.0039201 Eh/α   predicted    -0.9242336E-04 (  -7.24%)
   displ. norm   :     0.2450844 α      lambda       -0.9397396E-04
   maximum displ.:     0.1513907 α      in ANC's #17, #36, #32, ...

........................................................................
.............................. CYCLE   52 ..............................
........................................................................
   1   -552.0873262 -0.552087E+03  0.212E-03    1.08       0.0  T
   2   -552.0873279 -0.169307E-05  0.816E-04    1.08       7.5  T
   3   -552.0873282 -0.261592E-06  0.377E-04    1.08      16.2  T
   4   -552.0873283 -0.109672E-06  0.195E-04    1.08      31.4  T
   5   -552.0873283 -0.151309E-07  0.739E-05    1.08      82.9  T
     SCC iter.                  ...        0 min,  1.711 sec
     gradient                   ...        0 min,  0.772 sec
 * total energy  :  -544.8344701 Eh     change       -0.7206430E-04 Eh
   gradient norm :     0.0033139 Eh/α   predicted    -0.4981275E-04 ( -30.88%)
   displ. norm   :     0.2401315 α      lambda       -0.9247470E-04
   maximum displ.:     0.1558088 α      in ANC's #17, #36, #19, ...

........................................................................
.............................. CYCLE   53 ..............................
........................................................................
   1   -552.0887096 -0.552089E+03  0.250E-03    1.08       0.0  T
   2   -552.0887116 -0.200593E-05  0.104E-03    1.08       5.9  T
   3   -552.0887119 -0.336703E-06  0.620E-04    1.08       9.9  T
   4   -552.0887122 -0.236340E-06  0.342E-04    1.08      17.9  T
   5   -552.0887122 -0.420268E-07  0.101E-04    1.08      60.9  T
   6   -552.0887122 -0.233103E-08  0.575E-05    1.08     106.6  T
     SCC iter.                  ...        0 min,  2.048 sec
     gradient                   ...        0 min,  0.764 sec
 * total energy  :  -544.8345419 Eh     change       -0.7178874E-04 Eh
   gradient norm :     0.0029380 Eh/α   predicted    -0.4890460E-04 ( -31.88%)
   displ. norm   :     0.2626496 α      lambda       -0.8931923E-04
   maximum displ.:     0.1746206 α      in ANC's #17, #36, #19, ...

........................................................................
.............................. CYCLE   54 ..............................
........................................................................
   1   -552.0896328 -0.552090E+03  0.285E-03    1.08       0.0  T
   2   -552.0896354 -0.259530E-05  0.122E-03    1.08       5.0  T
   3   -552.0896358 -0.454522E-06  0.745E-04    1.08       8.2  T
   4   -552.0896362 -0.362661E-06  0.375E-04    1.08      16.4  T
   5   -552.0896362 -0.421658E-07  0.115E-04    1.08      53.5  T
   6   -552.0896362 -0.232944E-08  0.666E-05    1.08      92.0  T
     SCC iter.                  ...        0 min,  2.047 sec
     gradient                   ...        0 min,  0.767 sec
 * total energy  :  -544.8346125 Eh     change       -0.7059312E-04 Eh
   gradient norm :     0.0032219 Eh/α   predicted    -0.4774177E-04 ( -32.37%)
   displ. norm   :     0.2817033 α      lambda       -0.8894320E-04
   maximum displ.:     0.1919600 α      in ANC's #17, #36, #19, ...

........................................................................
.............................. CYCLE   55 ..............................
........................................................................
   1   -552.0894633 -0.552089E+03  0.302E-03    1.08       0.0  T
   2   -552.0894665 -0.318200E-05  0.124E-03    1.08       4.9  T
   3   -552.0894670 -0.508509E-06  0.725E-04    1.08       8.5  T
   4   -552.0894674 -0.354518E-06  0.345E-04    1.08      17.8  T
   5   -552.0894674 -0.349530E-07  0.125E-04    1.08      48.9  T
   6   -552.0894674 -0.541945E-09  0.764E-05    1.08      80.2  T
     SCC iter.                  ...        0 min,  2.041 sec
     gradient                   ...        0 min,  0.766 sec
 * total energy  :  -544.8346832 Eh     change       -0.7068632E-04 Eh
   gradient norm :     0.0031104 Eh/α   predicted    -0.4800277E-04 ( -32.09%)
   displ. norm   :     0.2842991 α      lambda       -0.8484679E-04
   maximum displ.:     0.1988970 α      in ANC's #17, #36, #19, ...

........................................................................
.............................. CYCLE   56 ..............................
........................................................................
   1   -552.0883916 -0.552088E+03  0.303E-03    1.08       0.0  T
   2   -552.0883950 -0.345197E-05  0.118E-03    1.08       5.2  T
   3   -552.0883955 -0.457693E-06  0.640E-04    1.08       9.6  T
[...]
    28   6 C       29   7 N                                       1.3756638
    28   6 C       30   6 C                                       1.3890611
    31   6 C       32   6 C                                       1.3968443
    32   6 C       33   6 C                                       1.3853293
    33   6 C       34   6 C                                       1.3852724
    34   6 C       35  16 S                                       1.7535148
    35  16 S       36   8 O                                       1.4338020
    35  16 S       37   8 O                                       1.6242689
    35  16 S       38   8 O                                       1.4324265
    34   6 C       39   6 C                                       1.3855470
    31   6 C       40   6 C                                       1.3972443
    39   6 C       40   6 C                                       1.3849438
    30   6 C       41   6 C                                       1.3890393
    41   6 C       42   6 C                                       1.4342024
    42   6 C       43   6 C                                       1.3533189
     2   6 C       44   6 C                                       1.3793360
    43   6 C       44   6 C                                       1.4314204
    41   6 C       45   7 N                                       1.3719912
    44   6 C       45   7 N                                       1.3727868
     2   6 C       46   1 H                                       1.0836444
     4   6 C       47   1 H                                       1.0782590
     5   6 C       48   1 H                                       1.0778754
    10   6 C       49   1 H                                       1.0837165
    11   6 C       50   1 H                                       1.0827643
    15   8 O       51   1 H                                       0.9649791
    17   6 C       52   1 H                                       1.0827464
    18   6 C       53   1 H                                       1.0837508
    20   6 C       54   1 H                                       1.0777009
    21   6 C       55   1 H                                       1.0779637
    26   6 C       56   1 H                                       1.0780017
    27   6 C       57   1 H                                       1.0777324
    32   6 C       58   1 H                                       1.0837199
    33   6 C       59   1 H                                       1.0827383
    37   8 O       60   1 H                                       0.9649750
    39   6 C       61   1 H                                       1.0827793
    40   6 C       62   1 H                                       1.0837509
    42   6 C       63   1 H                                       1.0778519
    43   6 C       64   1 H                                       1.0782390
    66   6 C       67   6 C                                       1.3791948
    67   6 C       68   6 C                                       1.4313218
    68   6 C       69   6 C                                       1.3532160
    69   6 C       70   6 C                                       1.4341899
    67   6 C       71   7 N                                       1.3725779
    70   6 C       71   7 N                                       1.3721259
    70   6 C       72   6 C                                       1.3886042
    73   6 C       74   6 C                                       1.3969113
    74   6 C       75   6 C                                       1.3851987
    75   6 C       76   6 C                                       1.3854341
    76   6 C       77  16 S                                       1.7532338
    77  16 S       78   8 O                                       1.4331890
    77  16 S       79   8 O                                       1.6241539
    77  16 S       80   8 O                                       1.4332926
    76   6 C       81   6 C                                       1.3853817
    73   6 C       82   6 C                                       1.3969971
    81   6 C       82   6 C                                       1.3851226
    72   6 C       83   6 C                                       1.3888360
    83   6 C       84   6 C                                       1.4320691
    84   6 C       85   6 C                                       1.3542003
    83   6 C       86   7 N                                       1.3754290
    85   6 C       87   6 C                                       1.4287474
    86   7 N       87   6 C                                       1.3688648
    87   6 C       88   6 C                                       1.3957144
    88   6 C       89   6 C                                       1.3957016
    89   6 C       90   6 C                                       1.4286174
    90   6 C       91   6 C                                       1.3543276
    91   6 C       92   6 C                                       1.4320518
    89   6 C       93   7 N                                       1.3686632
    92   6 C       93   7 N                                       1.3756638
    92   6 C       94   6 C                                       1.3887111
    95   6 C       96   6 C                                       1.3968597
    96   6 C       97   6 C                                       1.3852569
    97   6 C       98   6 C                                       1.3853015
    98   6 C       99  16 S                                       1.7535739
    99  16 S      100   8 O                                       1.4338678
    99  16 S      101   8 O                                       1.6243131
    99  16 S      102   8 O                                       1.4323717
    98   6 C      103   6 C                                       1.3855194
    95   6 C      104   6 C                                       1.3970694
   103   6 C      104   6 C                                       1.3850854
    94   6 C      105   6 C                                       1.3887837
   105   6 C      106   6 C                                       1.4342492
   106   6 C      107   6 C                                       1.3531253
    66   6 C      108   6 C                                       1.3790605
   107   6 C      108   6 C                                       1.4313723
   105   6 C      109   7 N                                       1.3719321
   108   6 C      109   7 N                                       1.3727994
    66   6 C      110   1 H                                       1.0836601
    68   6 C      111   1 H                                       1.0782575
    69   6 C      112   1 H                                       1.0778604
    74   6 C      113   1 H                                       1.0837241
    75   6 C      114   1 H                                       1.0827573
    79   8 O      115   1 H                                       0.9649581
    81   6 C      116   1 H                                       1.0827490
    82   6 C      117   1 H                                       1.0837369
    84   6 C      118   1 H                                       1.0776746
    85   6 C      119   1 H                                       1.0779343
    90   6 C      120   1 H                                       1.0779870
    91   6 C      121   1 H                                       1.0777053
    96   6 C      122   1 H                                       1.0837291
    97   6 C      123   1 H                                       1.0827334
   101   8 O      124   1 H                                       0.9649557 (min)
   103   6 C      125   1 H                                       1.0827818
   104   6 C      126   1 H                                       1.0837378
   106   6 C      127   1 H                                       1.0778370
   107   6 C      128   1 H                                       1.0782402
   129   6 C      130   6 C                                       1.2207125
   131   6 C      132   6 C                                       1.2208020
   133   6 C      134   6 C                                       1.2214913
   135   6 C      136   6 C                                       1.2214788
   137   6 C      138   6 C                                       1.2203337
   139   6 C      140   6 C                                       1.2202886
   142   6 C      143   6 C                                       1.3969904
   143   6 C      144   6 C                                       1.4282766
   144   6 C      145   6 C                                       1.3549755
   145   6 C      146   6 C                                       1.4313771
   143   6 C      147   7 N                                       1.3683587
   146   6 C      147   7 N                                       1.3754135
   146   6 C      148   6 C                                       1.3890766
   149   6 C      150   6 C                                       1.3967925
   150   6 C      151   6 C                                       1.3853368
   151   6 C      152   6 C                                       1.3852106
   152   6 C      153  16 S                                       1.7537756
   153  16 S      154   8 O                                       1.4338121
   153  16 S      155   8 O                                       1.6237754
   153  16 S      156   8 O                                       1.4322321
   152   6 C      157   6 C                                       1.3855439
   149   6 C      158   6 C                                       1.3972046
   157   6 C      158   6 C                                       1.3849561
   148   6 C      159   6 C                                       1.3885487
   159   6 C      160   6 C                                       1.4313758
   160   6 C      161   6 C                                       1.3550266
   159   6 C      162   7 N                                       1.3762227
   161   6 C      163   6 C                                       1.4281753
   162   7 N      163   6 C                                       1.3676380
   163   6 C      164   6 C                                       1.3978407
   164   6 C      165   6 C                                       1.3978516
   165   6 C      166   6 C                                       1.4281746
   166   6 C      167   6 C                                       1.3550141
   167   6 C      168   6 C                                       1.4313890
   165   6 C      169   7 N                                       1.3676876
   168   6 C      169   7 N                                       1.3761633
   168   6 C      170   6 C                                       1.3886115
   171   6 C      172   6 C                                       1.3968349
   172   6 C      173   6 C                                       1.3852959
   173   6 C      174   6 C                                       1.3852269
   174   6 C      175  16 S                                       1.7537305
   175  16 S      176   8 O                                       1.4338288
   175  16 S      177   8 O                                       1.6240006
   175  16 S      178   8 O                                       1.4322674
   174   6 C      179   6 C                                       1.3855490
   171   6 C      180   6 C                                       1.3971750
   179   6 C      180   6 C                                       1.3849848
   170   6 C      181   6 C                                       1.3890512
   181   6 C      182   6 C                                       1.4313629
   182   6 C      183   6 C                                       1.3550552
   142   6 C      184   6 C                                       1.3969075
   183   6 C      184   6 C                                       1.4282200
   181   6 C      185   7 N                                       1.3754702
   184   6 C      185   7 N                                       1.3683114
   144   6 C      186   1 H                                       1.0779587
   145   6 C      187   1 H                                       1.0777124
   150   6 C      188   1 H                                       1.0837223
   151   6 C      189   1 H                                       1.0827321
   155   8 O      190   1 H                                       0.9650126
   157   6 C      191   1 H                                       1.0827783
   158   6 C      192   1 H                                       1.0837359
   160   6 C      193   1 H                                       1.0776945
   161   6 C      194   1 H                                       1.0779863
   166   6 C      195   1 H                                       1.0779753
   167   6 C      196   1 H                                       1.0777000
   172   6 C      197   1 H                                       1.0837233
   173   6 C      198   1 H                                       1.0827308
   177   8 O      199   1 H                                       0.9650101
   179   6 C      200   1 H                                       1.0827783
   180   6 C      201   1 H                                       1.0837298
   182   6 C      202   1 H                                       1.0777404
   183   6 C      203   1 H                                       1.0779835
   205   6 C      206   6 C                                       1.3975432
   206   6 C      207   6 C                                       1.4283138
   207   6 C      208   6 C                                       1.3547389
   208   6 C      209   6 C                                       1.4313856
   206   6 C      210   7 N                                       1.3676481
   209   6 C      210   7 N                                       1.3762084
   209   6 C      211   6 C                                       1.3880897
   212   6 C      213   6 C                                       1.3967995
   213   6 C      214   6 C                                       1.3852711
   214   6 C      215   6 C                                       1.3851955
   215   6 C      216  16 S                                       1.7540374 (max)
   216  16 S      217   8 O                                       1.4337816
   216  16 S      218   8 O                                       1.6233977
   216  16 S      219   8 O                                       1.4321312
   215   6 C      220   6 C                                       1.3855053
   212   6 C      221   6 C                                       1.3969220
   220   6 C      221   6 C                                       1.3851474
   211   6 C      222   6 C                                       1.3887162
   222   6 C      223   6 C                                       1.4315286
   223   6 C      224   6 C                                       1.3545396
   222   6 C      225   7 N                                       1.3754400
   224   6 C      226   6 C                                       1.4284346
   225   7 N      226   6 C                                       1.3685555
   226   6 C      227   6 C                                       1.3961876
   227   6 C      228   6 C                                       1.3959998
   228   6 C      229   6 C                                       1.4284122
   229   6 C      230   6 C                                       1.3545994
   230   6 C      231   6 C                                       1.4315335
   228   6 C      232   7 N                                       1.3686935
   231   6 C      232   7 N                                       1.3753371
   231   6 C      233   6 C                                       1.3888189
   234   6 C      235   6 C                                       1.3968531
   235   6 C      236   6 C                                       1.3852524
   236   6 C      237   6 C                                       1.3852173
   237   6 C      238  16 S                                       1.7539715
   238  16 S      239   8 O                                       1.4337920
   238  16 S      240   8 O                                       1.6234552
   238  16 S      241   8 O                                       1.4321721
   237   6 C      242   6 C                                       1.3854840
   234   6 C      243   6 C                                       1.3969367
   242   6 C      243   6 C                                       1.3851737
   233   6 C      244   6 C                                       1.3881248
   244   6 C      245   6 C                                       1.4314576
   245   6 C      246   6 C                                       1.3547111
   205   6 C      247   6 C                                       1.3975463
   246   6 C      247   6 C                                       1.4282545
   244   6 C      248   7 N                                       1.3763300
   247   6 C      248   7 N                                       1.3676009
   207   6 C      249   1 H                                       1.0779605
   208   6 C      250   1 H                                       1.0777022
   213   6 C      251   1 H                                       1.0837330
   214   6 C      252   1 H                                       1.0827284
   218   8 O      253   1 H                                       0.9650584
   220   6 C      254   1 H                                       1.0827825
   221   6 C      255   1 H                                       1.0837304
   223   6 C      256   1 H                                       1.0776536
   224   6 C      257   1 H                                       1.0779144
   229   6 C      258   1 H                                       1.0779525
   230   6 C      259   1 H                                       1.0776759
   235   6 C      260   1 H                                       1.0837260
   236   6 C      261   1 H                                       1.0827334
   240   8 O      262   1 H                                       0.9650463
   242   6 C      263   1 H                                       1.0827883
   243   6 C      264   1 H                                       1.0837283
   245   6 C      265   1 H                                       1.0776866
   246   6 C      266   1 H                                       1.0779672

 * 6 distinct bonds (by element types)

   Z      Z             #   av. dist./Å        max./Å        min./Å
   1 H    6 C          66     1.0806589     1.0837509     1.0776536
   6 C    6 C         134     1.3877287     1.4342492     1.2202886
   6 C    7 N          32     1.3720870     1.3763300     1.3676009
   1 H    8 O           8     0.9649994     0.9650584     0.9649557
   6 C   16 S           8     1.7536395     1.7540374     1.7532338
   8 O   16 S          24     1.4967021     1.6243131     1.4321312


optimized geometry written to: xtbopt.xyz


           -------------------------------------------------
          | TOTAL ENERGY             -544.835188923725 Eh   |
          | GRADIENT NORM               0.000597539339 Eh/α |
          | HOMO-LUMO GAP               1.078838604980 eV   |
           -------------------------------------------------

------------------------------------------------------------------------
 * finished run on 2022/07/30 at 11:04:12.971     
------------------------------------------------------------------------
 total:
 * wall-time:     0 d,  0 h,  4 min, 45.286 sec
 *  cpu-time:     0 d,  0 h,  4 min, 41.133 sec
 * ratio c/w:     0.985 speedup
 SCF:
 * wall-time:     0 d,  0 h,  0 min, 22.801 sec
 *  cpu-time:     0 d,  0 h,  0 min, 22.693 sec
 * ratio c/w:     0.995 speedup
 ANC optimizer:
 * wall-time:     0 d,  0 h,  4 min, 22.179 sec
 *  cpu-time:     0 d,  0 h,  4 min, 18.137 sec
 * ratio c/w:     0.985 speedup

