      -----------------------------------------------------------      
     |                   =====================                   |     
     |                           x T B                           |     
     |                   =====================                   |     
     |                         S. Grimme                         |     
     |          Mulliken Center for Theoretical Chemistry        |     
     |                    University of Bonn                     |     
      -----------------------------------------------------------      

   * xtb version 6.5.1 (b24c23e) compiled by 'conda@728c89f4b128' on 2022-07-12

   xtb is free software: you can redistribute it and/or modify it under
   the terms of the GNU Lesser General Public License as published by
   the Free Software Foundation, either version 3 of the License, or
   (at your option) any later version.
   
   xtb is distributed in the hope that it will be useful,
   but WITHOUT ANY WARRANTY; without even the implied warranty of
   MERCHANTABILITY or FITNESS FOR A PARTICULAR PURPOSE.  See the
   GNU Lesser General Public License for more details.
   
   Cite this work as:
   * C. Bannwarth, E. Caldeweyher, S. Ehlert, A. Hansen, P. Pracht,
     J. Seibert, S. Spicher, S. Grimme, WIREs Comput. Mol. Sci., 2020, 11,
     e01493. DOI: 10.1002/wcms.1493
   
   for GFN2-xTB:
   * C. Bannwarth, S. Ehlert and S. Grimme., J. Chem. Theory Comput., 2019,
     15, 1652-1671. DOI: 10.1021/acs.jctc.8b01176
   for GFN1-xTB:
   * S. Grimme, C. Bannwarth, P. Shushkov, J. Chem. Theory Comput., 2017,
     13, 1989-2009. DOI: 10.1021/acs.jctc.7b00118
   for GFN0-xTB:
   * P. Pracht, E. Caldeweyher, S. Ehlert, S. Grimme, ChemRxiv, 2019, preprint.
     DOI: 10.26434/chemrxiv.8326202.v1
   for GFN-FF:
   * S. Spicher and S. Grimme, Angew. Chem. Int. Ed., 2020, 59, 15665-15673.
     DOI: 10.1002/anie.202004239
   
   for ALPB and GBSA implicit solvation:
   * S. Ehlert, M. Stahn, S. Spicher, S. Grimme, J. Chem. Theory Comput.,
     2021, 17, 4250-4261. DOI: 10.1021/acs.jctc.1c00471
   
   for DFT-D4:
   * E. Caldeweyher, C. Bannwarth and S. Grimme, J. Chem. Phys., 2017,
     147, 034112. DOI: 10.1063/1.4993215
   * E. Caldeweyher, S. Ehlert, A. Hansen, H. Neugebauer, S. Spicher,
     C. Bannwarth and S. Grimme, J. Chem. Phys., 2019, 150, 154122.
     DOI: 10.1063/1.5090222
   * E. Caldeweyher, J.-M. Mewes, S. Ehlert and S. Grimme, Phys. Chem. Chem. Phys.
     2020, 22, 8499-8512. DOI: 10.1039/D0CP00502A
   
   for sTDA-xTB:
   * S. Grimme and C. Bannwarth, J. Chem. Phys., 2016, 145, 054103.
     DOI: 10.1063/1.4959605
   
   in the mass-spec context:
   * V. Asgeirsson, C. Bauer and S. Grimme, Chem. Sci., 2017, 8, 4879.
     DOI: 10.1039/c7sc00601b
   * J. Koopman and S. Grimme, ACS Omega 2019, 4, 12, 15120-15133.
     DOI: 10.1021/acsomega.9b02011
   
   for metadynamics refer to:
   * S. Grimme, J. Chem. Theory Comput., 2019, 155, 2847-2862
     DOI: 10.1021/acs.jctc.9b00143
   
   for SPH calculations refer to:
   * S. Spicher and S. Grimme, J. Chem. Theory Comput., 2021, 17, 1701-1714
     DOI: 10.1021/acs.jctc.0c01306
   
   with help from (in alphabetical order)
   P. Atkinson, C. Bannwarth, F. Bohle, G. Brandenburg, E. Caldeweyher
   M. Checinski, S. Dohm, S. Ehlert, S. Ehrlich, I. Gerasimov, C. Hölzer
   A. Katbashev, J. Koopman, C. Lavigne, S. Lehtola, F. März, M. Müller,
   F. Musil, H. Neugebauer, J. Pisarek, C. Plett, P. Pracht, F. Pultar,
   J. Seibert, P. Shushkov, S. Spicher, M. Stahn, M. Steiner, T. Strunk,
   J. Stückrath, T. Rose, and J. Unsleber
   
 * started run on 2022/07/30 at 10:41:56.685     

           -------------------------------------------------
          |                Calculation Setup                |
           -------------------------------------------------

          program call               : xtb Zn_m-CP_C8_2.xyz --gfn 1 --opt -T 48
          hostname                   : cx3-15-15.cx3.hpc.ic.ac.uk
          coordinate file            : Zn_m-CP_C8_2.xyz
          omp threads                :                     1

   ID    Z sym.   atoms
    1   30 Zn     1, 63
    2    6 C      2-6, 8-12, 15-20, 22-27, 29-35, 38-42, 64-68, 70-74, 77-82,
                  84-89, 91-97, 100-104, 125-132
    3    7 N      7, 21, 28, 43, 69, 83, 90, 105
    4    8 O      13, 14, 36, 37, 75, 76, 98, 99
    5    1 H      44-62, 106-124
########################################################################
[WARNING] Please study the warnings concerning your input carefully
-1- prog_main_parseArguments: Unknown option '-T' provided
########################################################################

           -------------------------------------------------
          |                 G F N 1 - x T B                 |
           -------------------------------------------------

        Reference                      10.1021/acs.jctc.7b00118
      * Hamiltonian:
        H0-scaling (s, p, d)           1.850000    2.250000    2.000000
        zeta-weighting                 0.000000
      * Dispersion:
        s8                             2.400000
        a1                             0.630000
        a2                             5.000000
        s9                             0.000000
      * Repulsion:
        kExp                           1.500000
        rExp                           1.000000
      * Coulomb:
        alpha                          2.000000
        third order                    atomic
        anisotropic                    false
      * Halogen bond correction:
        rad-scale                      1.300000
        damping                        0.440000


          ...................................................
          :                      SETUP                      :
          :.................................................:
          :  # basis functions                 452          :
          :  # atomic orbitals                 452          :
          :  # shells                          264          :
          :  # electrons                       434          :
          :  # halogen bonds                     0          :
          :  max. iterations                   250          :
          :  Hamiltonian                  GFN1-xTB          :
          :  restarted?                      false          :
          :  GBSA solvation                  false          :
          :  PC potential                    false          :
          :  electronic temp.          300.0000000     K    :
          :  accuracy                    1.0000000          :
          :  -> integral cutoff          0.2500000E+02      :
          :  -> integral neglect         0.1000000E-07      :
          :  -> SCF convergence          0.1000000E-05 Eh   :
          :  -> wf. convergence          0.2000000E-04 e    :
          :  Broyden damping             0.4000000          :
          ...................................................

 iter      E             dE          RMSdq      gap      omega  full diag
   1   -248.5985745 -0.248599E+03  0.104E+01    0.11       0.0  T
   2   -249.0393119 -0.440737E+00  0.625E+00    0.32       1.0  T
   3   -240.5909904  0.844832E+01  0.341E+00    0.07       1.0  T
   4   -181.2212549  0.593697E+02  0.596E+00    0.02       1.0  T
   5   -245.9758914 -0.647546E+02  0.204E+00    0.01       1.0  T
   6   -248.9238148 -0.294792E+01  0.103E+00    0.57       1.0  T
   7   -249.1752679 -0.251453E+00  0.588E-01    0.16       1.0  T
   8   -249.0516921  0.123576E+00  0.611E-01    0.40       1.0  T
   9   -249.2073091 -0.155617E+00  0.437E-01    0.12       1.0  T
  10   -249.2766224 -0.693133E-01  0.170E-01    0.15       1.0  T
  11   -249.2760824  0.539961E-03  0.166E-01    0.14       1.0  T
  12   -249.2833771 -0.729464E-02  0.759E-02    0.17       1.0  T
  13   -249.2851461 -0.176900E-02  0.321E-02    0.19       1.0  T
  14   -249.2852402 -0.941917E-04  0.201E-02    0.19       1.0  T
  15   -249.2853072 -0.669622E-04  0.758E-03    0.19       1.1  T
  16   -249.2853013  0.588770E-05  0.556E-03    0.19       1.6  T
  17   -249.2853312 -0.298455E-04  0.442E-03    0.19       2.0  T
  18   -249.2853334 -0.219029E-05  0.236E-03    0.19       3.7  T
  19   -249.2853380 -0.461111E-05  0.171E-03    0.19       5.1  T
  20   -249.2853385 -0.572839E-06  0.386E-04    0.19      22.6  T
  21   -249.2853386 -0.911449E-07  0.222E-04    0.19      39.3  T
  22   -249.2853386 -0.392967E-08  0.156E-04    0.19      55.7  T
  23   -249.2853386 -0.449029E-08  0.357E-05    0.19     243.7  T

   *** convergence criteria satisfied after 23 iterations ***

         #    Occupation            Energy/Eh            Energy/eV
      -------------------------------------------------------------
         1        2.0000           -0.8161807             -22.2094
       ...           ...                  ...                  ...
       211        2.0000           -0.4075857             -11.0910
       212        2.0000           -0.4046813             -11.0119
       213        2.0000           -0.4029695             -10.9654
       214        2.0000           -0.4006857             -10.9032
       215        2.0000           -0.3929743             -10.6934
       216        1.9994           -0.3727385             -10.1427
       217        1.9530           -0.3685318             -10.0283 (HOMO)
       218        0.0476           -0.3614611              -9.8359 (LUMO)
       219                         -0.3340953              -9.0912
       220                         -0.3325340              -9.0487
       221                         -0.3226613              -8.7801
       222                         -0.3215587              -8.7501
       ...                                ...                  ...
       452                          5.5603271             151.3042
      -------------------------------------------------------------
                  HL-Gap            0.0070707 Eh            0.1924 eV
             Fermi-level           -0.3649905 Eh           -9.9319 eV

 SCC (total)                   0 d,  0 h,  0 min,  1.508 sec
 SCC setup                      ...        0 min,  0.005 sec (  0.330%)
 Dispersion                     ...        0 min,  0.004 sec (  0.234%)
 classical contributions        ...        0 min,  0.001 sec (  0.079%)
 integral evaluation            ...        0 min,  0.112 sec (  7.434%)
 iterations                     ...        0 min,  1.101 sec ( 73.003%)
 molecular gradient             ...        0 min,  0.274 sec ( 18.186%)
 printout                       ...        0 min,  0.011 sec (  0.732%)

         :::::::::::::::::::::::::::::::::::::::::::::::::::::
         ::                     SUMMARY                     ::
         :::::::::::::::::::::::::::::::::::::::::::::::::::::
         :: total energy            -244.681098278726 Eh    ::
         :: gradient norm              2.867824311704 Eh/a0 ::
         :: HOMO-LUMO gap              0.192404086817 eV    ::
         ::.................................................::
         :: SCC energy              -249.285338640348 Eh    ::
         :: -> electrostatic           0.528032811695 Eh    ::
         :: repulsion energy           4.718731449679 Eh    ::
         :: dispersion energy         -0.114491088057 Eh    ::
         :: halogen bond corr.         0.000000000000 Eh    ::
         :: add. restraining           0.000000000000 Eh    ::
         :: total charge              -0.000000000000 e     ::
         :::::::::::::::::::::::::::::::::::::::::::::::::::::

      ----------------------------------------------------------- 
     |                   =====================                   |
     |                        A N C O P T                        |
     |                   =====================                   |
     |               Approximate Normal Coordinate               |
     |                Rational Function Optimizer                |
      ----------------------------------------------------------- 

          ...................................................
          :                      SETUP                      :
          :.................................................:
          :   optimization level            normal          :
          :   max. optcycles                   396          :
          :   ANC micro-cycles                  20          :
          :   degrees of freedom               390          :
          :.................................................:
          :   RF solver                   davidson          :
          :   write xtbopt.log                true          :
          :   linear?                        false          :
          :   energy convergence         0.5000000E-05 Eh   :
          :   grad. convergence          0.1000000E-02 Eh/α :
          :   maximium RF displ.         1.0000000          :
          :   Hlow (freq-cutoff)         0.1000000E-01      :
          :   Hmax (freq-cutoff)         5.0000000          :
          :   S6 in model hess.         20.0000000          :
          ...................................................

generating ANC from model Hessian ...
Using Lindh-Hessian (1995)
 Shifting diagonal of input Hessian by    1.0024550824183305E-002
 Lowest  eigenvalues of input Hessian
    0.010000    0.010010    0.010020    0.000000    0.000000    0.000000
    0.000000    0.000000    0.000000    0.010041    0.010047    0.010129
    0.010136    0.010227    0.010276    0.010336    0.010386    0.010397
 Highest eigenvalues
    2.814263    2.819820    3.129970    3.190422    4.151880    4.202894


........................................................................
.............................. CYCLE    1 ..............................
........................................................................
   1   -249.2853386 -0.249285E+03  0.228E-05    0.19       0.0  T
   2   -249.2853386  0.255937E-09  0.259E-05    0.19     336.0  T
   3   -249.2853386  0.152511E-09  0.277E-05    0.19     313.9  T
     SCC iter.                  ...        0 min,  0.144 sec
     gradient                   ...        0 min,  0.270 sec
 * total energy  :  -244.6810983 Eh     change       -0.1926139E-09 Eh
   gradient norm :     2.8678253 Eh/α   predicted     0.0000000E+00 (-100.00%)
   displ. norm   :     0.5734061 α      lambda       -0.1584590E+01
   maximum displ.:     0.4451695 α      in ANC's #390, #384, #368, ...

........................................................................
.............................. CYCLE    2 ..............................
........................................................................
   1   -249.3320139 -0.249332E+03  0.428E-01    0.73       0.0  T
   2   -249.2741252  0.578886E-01  0.522E-01    0.76       1.0  T
   3   -249.3548135 -0.806883E-01  0.181E-01    0.73       1.0  T
   4   -249.3650704 -0.102569E-01  0.407E-02    0.72       1.0  T
   5   -249.3652909 -0.220532E-03  0.259E-02    0.73       1.0  T
   6   -249.3653897 -0.987259E-04  0.125E-02    0.72       1.0  T
   7   -249.3654357 -0.459932E-04  0.373E-03    0.73       2.3  T
   8   -249.3654412 -0.557448E-05  0.101E-03    0.73       8.6  T
   9   -249.3654414 -0.203614E-06  0.455E-04    0.73      19.1  T
  10   -249.3654415 -0.618013E-07  0.138E-04    0.73      63.2  T
  11   -249.3654415 -0.548820E-08  0.702E-05    0.73     124.0  T
     SCC iter.                  ...        0 min,  0.513 sec
     gradient                   ...        0 min,  0.272 sec
 * total energy  :  -245.4405906 Eh     change       -0.7594923E+00 Eh
   gradient norm :     0.5952160 Eh/α   predicted    -0.1052799E+01 (  38.62%)
   displ. norm   :     0.4721019 α      lambda       -0.2033638E+00
   maximum displ.:     0.1039513 α      in ANC's #163, #97, #124, ...

........................................................................
.............................. CYCLE    3 ..............................
........................................................................
   1   -249.4681130 -0.249468E+03  0.124E-01    0.87       0.0  T
   2   -249.4705324 -0.241932E-02  0.668E-02    0.86       1.0  T
   3   -249.4712937 -0.761292E-03  0.321E-02    0.87       1.0  T
   4   -249.4713111 -0.174809E-04  0.204E-02    0.86       1.0  T
   5   -249.4713529 -0.417704E-04  0.107E-02    0.87       1.0  T
   6   -249.4713973 -0.443652E-04  0.245E-03    0.87       3.5  T
   7   -249.4713995 -0.221864E-05  0.102E-03    0.87       8.5  T
   8   -249.4713997 -0.237768E-06  0.333E-04    0.87      26.1  T
   9   -249.4713998 -0.185257E-07  0.204E-04    0.87      42.7  T
  10   -249.4713998 -0.145241E-07  0.595E-05    0.87     146.3  T
  11   -249.4713998 -0.103046E-08  0.167E-05    0.87     521.6  T
     SCC iter.                  ...        0 min,  0.533 sec
     gradient                   ...        0 min,  0.269 sec
 * total energy  :  -245.5824139 Eh     change       -0.1418233E+00 Eh
   gradient norm :     0.2543518 Eh/α   predicted    -0.1243447E+00 ( -12.32%)
   displ. norm   :     0.5579368 α      lambda       -0.8614590E-01
   maximum displ.:     0.1659099 α      in ANC's #93, #97, #163, ...

........................................................................
.............................. CYCLE    4 ..............................
........................................................................
   1   -249.5399909 -0.249540E+03  0.117E-01    0.95       0.0  T
   2   -249.5418085 -0.181762E-02  0.576E-02    0.94       1.0  T
   3   -249.5424891 -0.680543E-03  0.274E-02    0.95       1.0  T
   4   -249.5425835 -0.944691E-04  0.181E-02    0.94       1.0  T
   5   -249.5426562 -0.727153E-04  0.840E-03    0.95       1.0  T
   6   -249.5426789 -0.226612E-04  0.162E-03    0.95       5.4  T
   7   -249.5426796 -0.658472E-06  0.757E-04    0.95      11.5  T
   8   -249.5426797 -0.104939E-06  0.385E-04    0.95      22.6  T
   9   -249.5426797 -0.479747E-07  0.162E-04    0.95      53.7  T
  10   -249.5426797 -0.105613E-07  0.430E-05    0.95     202.4  T
     SCC iter.                  ...        0 min,  0.471 sec
     gradient                   ...        0 min,  0.266 sec
 * total energy  :  -245.6432184 Eh     change       -0.6080443E-01 Eh
   gradient norm :     0.1253632 Eh/α   predicted    -0.5648132E-01 (  -7.11%)
   displ. norm   :     0.5861040 α      lambda       -0.3719074E-01
   maximum displ.:     0.1823859 α      in ANC's #24, #93, #97, ...

........................................................................
.............................. CYCLE    5 ..............................
........................................................................
   1   -249.5520460 -0.249552E+03  0.733E-02    0.99       0.0  T
   2   -249.5525715 -0.525528E-03  0.360E-02    0.99       1.0  T
   3   -249.5528258 -0.254346E-03  0.192E-02    0.99       1.0  T
   4   -249.5529565 -0.130638E-03  0.113E-02    0.99       1.0  T
   5   -249.5529870 -0.305638E-04  0.446E-03    0.99       1.9  T
   6   -249.5529905 -0.340597E-05  0.116E-03    0.99       7.5  T
   7   -249.5529908 -0.362656E-06  0.528E-04    0.99      16.5  T
   8   -249.5529909 -0.953756E-07  0.245E-04    0.99      35.6  T
   9   -249.5529909 -0.184816E-07  0.665E-05    0.99     130.9  T
  10   -249.5529909 -0.813628E-09  0.208E-05    0.99     419.0  T
     SCC iter.                  ...        0 min,  0.466 sec
     gradient                   ...        0 min,  0.266 sec
 * total energy  :  -245.6684614 Eh     change       -0.2524302E-01 Eh
   gradient norm :     0.0713207 Eh/α   predicted    -0.2498322E-01 (  -1.03%)
   displ. norm   :     0.6069194 α      lambda       -0.1959725E-01
   maximum displ.:     0.2923399 α      in ANC's #24, #93, #50, ...

........................................................................
.............................. CYCLE    6 ..............................
........................................................................
   1   -249.5265768 -0.249527E+03  0.407E-02    1.00       0.0  T
   2   -249.5267018 -0.124919E-03  0.251E-02    1.00       1.0  T
   3   -249.5268288 -0.127059E-03  0.129E-02    1.00       1.0  T
   4   -249.5268735 -0.447285E-04  0.795E-03    1.00       1.1  T
   5   -249.5268867 -0.131906E-04  0.326E-03    1.00       2.7  T
   6   -249.5268891 -0.238776E-05  0.672E-04    1.00      13.0  T
   7   -249.5268892 -0.121215E-06  0.256E-04    1.00      34.0  T
   8   -249.5268893 -0.664164E-08  0.155E-04    1.00      56.3  T
   9   -249.5268893 -0.837517E-08  0.488E-05    1.00     178.4  T
     SCC iter.                  ...        0 min,  0.441 sec
     gradient                   ...        0 min,  0.272 sec
 * total energy  :  -245.6804097 Eh     change       -0.1194831E-01 Eh
   gradient norm :     0.0809765 Eh/α   predicted    -0.1340803E-01 (  12.22%)
   displ. norm   :     0.5850659 α      lambda       -0.1077053E-01
   maximum displ.:     0.3749300 α      in ANC's #24, #36, #29, ...

........................................................................
.............................. CYCLE    7 ..............................
........................................................................
   1   -249.5115354 -0.249512E+03  0.200E-02    1.04       0.0  T
   2   -249.5115546 -0.191806E-04  0.120E-02    1.04       1.0  T
   3   -249.5115790 -0.244250E-04  0.759E-03    1.04       1.1  T
   4   -249.5115925 -0.135122E-04  0.372E-03    1.04       2.3  T
   5   -249.5115952 -0.272088E-05  0.136E-03    1.04       6.4  T
   6   -249.5115956 -0.428998E-06  0.379E-04    1.04      23.0  T
   7   -249.5115957 -0.274035E-07  0.159E-04    1.04      54.9  T
   8   -249.5115957 -0.353415E-08  0.923E-05    1.04      94.3  T
     SCC iter.                  ...        0 min,  0.377 sec
     gradient                   ...        0 min,  0.267 sec
 * total energy  :  -245.6887338 Eh     change       -0.8324102E-02 Eh
   gradient norm :     0.0362343 Eh/α   predicted    -0.7228679E-02 ( -13.16%)
   displ. norm   :     0.6980795 α      lambda       -0.8174796E-02
   maximum displ.:     0.5042014 α      in ANC's #24, #29, #36, ...

........................................................................
.............................. CYCLE    8 ..............................
........................................................................
   1   -249.4948115 -0.249495E+03  0.181E-02    1.06       0.0  T
   2   -249.4948404 -0.289193E-04  0.962E-03    1.06       1.0  T
   3   -249.4948554 -0.150258E-04  0.497E-03    1.06       1.8  T
   4   -249.4948594 -0.399545E-05  0.285E-03    1.06       3.1  T
   5   -249.4948609 -0.151411E-05  0.127E-03    1.06       6.9  T
   6   -249.4948614 -0.466019E-06  0.374E-04    1.06      23.3  T
   7   -249.4948614 -0.289033E-07  0.168E-04    1.06      51.9  T
   8   -249.4948614 -0.792980E-08  0.824E-05    1.06     105.6  T
     SCC iter.                  ...        0 min,  0.372 sec
     gradient                   ...        0 min,  0.269 sec
 * total energy  :  -245.6955249 Eh     change       -0.6791078E-02 Eh
   gradient norm :     0.0240174 Eh/α   predicted    -0.6079381E-02 ( -10.48%)
   displ. norm   :     0.7349644 α      lambda       -0.6466609E-02
   maximum displ.:     0.5683505 α      in ANC's #24, #29, #36, ...

........................................................................
.............................. CYCLE    9 ..............................
........................................................................
   1   -249.4810945 -0.249481E+03  0.170E-02    1.08       0.0  T
   2   -249.4811204 -0.259505E-04  0.859E-03    1.08       1.0  T
   3   -249.4811314 -0.109606E-04  0.437E-03    1.08       2.0  T
   4   -249.4811347 -0.331704E-05  0.275E-03    1.08       3.2  T
   5   -249.4811360 -0.129237E-05  0.105E-03    1.08       8.3  T
   6   -249.4811364 -0.372924E-06  0.317E-04    1.08      27.4  T
   7   -249.4811364 -0.231294E-07  0.128E-04    1.08      67.9  T
   8   -249.4811364 -0.587184E-08  0.549E-05    1.08     158.7  T
     SCC iter.                  ...        0 min,  0.375 sec
     gradient                   ...        0 min,  0.270 sec
 * total energy  :  -245.7007612 Eh     change       -0.5236332E-02 Eh
   gradient norm :     0.0175519 Eh/α   predicted    -0.4979852E-02 (  -4.90%)
   displ. norm   :     0.7595397 α      lambda       -0.5454889E-02
   maximum displ.:     0.5591131 α      in ANC's #24, #25, #29, ...

........................................................................
.............................. CYCLE   10 ..............................
........................................................................
   1   -249.4691476 -0.249469E+03  0.135E-02    1.10       0.0  T
   2   -249.4691623 -0.147744E-04  0.649E-03    1.10       1.3  T
   3   -249.4691677 -0.534289E-05  0.365E-03    1.10       2.4  T
   4   -249.4691698 -0.210750E-05  0.236E-03    1.10       3.7  T
   5   -249.4691708 -0.101872E-05  0.790E-04    1.10      11.0  T
   6   -249.4691711 -0.284985E-06  0.192E-04    1.10      45.4  T
   7   -249.4691711 -0.782083E-08  0.590E-05    1.10     147.6  T
     SCC iter.                  ...        0 min,  0.329 sec
     gradient                   ...        0 min,  0.271 sec
 * total energy  :  -245.7044167 Eh     change       -0.3655503E-02 Eh
   gradient norm :     0.0191993 Eh/α   predicted    -0.4300918E-02 (  17.66%)
   displ. norm   :     0.6396697 α      lambda       -0.4206037E-02
   maximum displ.:     0.5096375 α      in ANC's #24, #29, #15, ...

........................................................................
.............................. CYCLE   11 ..............................
........................................................................
   1   -249.4663901 -0.249466E+03  0.948E-03    1.11       0.0  T
   2   -249.4663965 -0.642209E-05  0.829E-03    1.11       1.1  T
   3   -249.4664065 -0.100109E-04  0.269E-03    1.11       3.2  T
   4   -249.4664052  0.134244E-05  0.244E-03    1.11       3.6  T
   5   -249.4664068 -0.157879E-05  0.733E-04    1.11      11.9  T
   6   -249.4664069 -0.146820E-06  0.207E-04    1.11      42.0  T
   7   -249.4664069 -0.901574E-08  0.874E-05    1.11      99.5  T
   8   -249.4664069 -0.216082E-08  0.394E-05    1.11     220.9  T
     SCC iter.                  ...        0 min,  0.386 sec
     gradient                   ...        0 min,  0.269 sec
 * total energy  :  -245.7076344 Eh     change       -0.3217686E-02 Eh
   gradient norm :     0.0172635 Eh/α   predicted    -0.2963528E-02 (  -7.90%)
   displ. norm   :     0.6235770 α      lambda       -0.2851669E-02
   maximum displ.:     0.4768202 α      in ANC's #24, #15, #29, ...

........................................................................
.............................. CYCLE   12 ..............................
........................................................................
   1   -249.4603324 -0.249460E+03  0.660E-03    1.11       0.0  T
   2   -249.4603369 -0.453444E-05  0.333E-03    1.10       2.6  T
   3   -249.4603377 -0.758827E-06  0.183E-03    1.10       4.7  T
   4   -249.4603375  0.148773E-06  0.128E-03    1.10       6.8  T
   5   -249.4603380 -0.449400E-06  0.425E-04    1.10      20.5  T
   6   -249.4603380 -0.789240E-07  0.143E-04    1.10      60.9  T
   7   -249.4603380 -0.617217E-08  0.425E-05    1.10     204.6  T
     SCC iter.                  ...        0 min,  0.333 sec
     gradient                   ...        0 min,  0.266 sec
 * total energy  :  -245.7100508 Eh     change       -0.2416447E-02 Eh
   gradient norm :     0.0129496 Eh/α   predicted    -0.1980271E-02 ( -18.05%)
   displ. norm   :     0.6694323 α      lambda       -0.2613156E-02
   maximum displ.:     0.4922371 α      in ANC's #24, #15, #11, ...

........................................................................
.............................. CYCLE   13 ..............................
........................................................................
   1   -249.4553774 -0.249455E+03  0.774E-03    1.10       0.0  T
   2   -249.4553847 -0.731557E-05  0.398E-03    1.10       2.2  T
   3   -249.4553862 -0.145979E-05  0.193E-03    1.10       4.5  T
   4   -249.4553860  0.134547E-06  0.142E-03    1.10       6.1  T
   5   -249.4553864 -0.360051E-06  0.571E-04    1.10      15.3  T
   6   -249.4553865 -0.149847E-06  0.144E-04    1.10      60.5  T
   7   -249.4553865 -0.624888E-08  0.401E-05    1.10     216.9  T
     SCC iter.                  ...        0 min,  0.326 sec
     gradient                   ...        0 min,  0.267 sec
 * total energy  :  -245.7121861 Eh     change       -0.2135275E-02 Eh
   gradient norm :     0.0111265 Eh/α   predicted    -0.1892110E-02 ( -11.39%)
   displ. norm   :     0.6952211 α      lambda       -0.2029396E-02
   maximum displ.:     0.4883160 α      in ANC's #24, #15, #20, ...

........................................................................
.............................. CYCLE   14 ..............................
........................................................................
   1   -249.4497363 -0.249450E+03  0.642E-03    1.10       0.0  T
   2   -249.4497404 -0.409118E-05  0.365E-03    1.10       2.4  T
   3   -249.4497419 -0.150910E-05  0.183E-03    1.10       4.7  T
   4   -249.4497419  0.333435E-07  0.139E-03    1.10       6.2  T
   5   -249.4497423 -0.430952E-06  0.525E-04    1.10      16.6  T
   6   -249.4497424 -0.107549E-06  0.114E-04    1.10      76.5  T
   7   -249.4497424 -0.398933E-08  0.338E-05    1.10     257.4  T
     SCC iter.                  ...        0 min,  0.330 sec
     gradient                   ...        0 min,  0.267 sec
 * total energy  :  -245.7137802 Eh     change       -0.1594051E-02 Eh
   gradient norm :     0.0116554 Eh/α   predicted    -0.1505135E-02 (  -5.58%)
   displ. norm   :     0.6503897 α      lambda       -0.1359488E-02
   maximum displ.:     0.4380070 α      in ANC's #24, #15, #20, ...

........................................................................
.............................. CYCLE   15 ..............................
........................................................................
   1   -249.4422445 -0.249442E+03  0.484E-03    1.10       0.0  T
   2   -249.4422459 -0.139066E-05  0.292E-03    1.10       3.0  T
   3   -249.4422473 -0.135029E-05  0.151E-03    1.10       5.8  T
   4   -249.4422474 -0.124577E-06  0.107E-03    1.10       8.1  T
   5   -249.4422478 -0.352037E-06  0.319E-04    1.10      27.3  T
   6   -249.4422478 -0.369291E-07  0.665E-05    1.10     130.9  T
   7   -249.4422478 -0.106297E-08  0.227E-05    1.10     383.9  T
     SCC iter.                  ...        0 min,  0.333 sec
     gradient                   ...        0 min,  0.267 sec
 * total energy  :  -245.7148712 Eh     change       -0.1091038E-02 Eh
   gradient norm :     0.0087727 Eh/α   predicted    -0.9672813E-03 ( -11.34%)
   displ. norm   :     0.6336640 α      lambda       -0.1039089E-02
   maximum displ.:     0.3861519 α      in ANC's #24, #15, #20, ...

........................................................................
.............................. CYCLE   16 ..............................
........................................................................
   1   -249.4375079 -0.249438E+03  0.423E-03    1.11       0.0  T
   2   -249.4375089 -0.107183E-05  0.292E-03    1.11       3.0  T
   3   -249.4375111 -0.216342E-05  0.130E-03    1.11       6.7  T
   4   -249.4375113 -0.163474E-06  0.912E-04    1.11       9.5  T
   5   -249.4375115 -0.237097E-06  0.274E-04    1.11      31.7  T
   6   -249.4375115 -0.156607E-07  0.835E-05    1.11     104.2  T
   7   -249.4375115 -0.183934E-08  0.295E-05    1.11     295.2  T
     SCC iter.                  ...        0 min,  0.335 sec
     gradient                   ...        0 min,  0.265 sec
 * total energy  :  -245.7157168 Eh     change       -0.8456036E-03 Eh
   gradient norm :     0.0070728 Eh/α   predicted    -0.7281583E-03 ( -13.89%)
   displ. norm   :     0.5967944 α      lambda       -0.8392023E-03
   maximum displ.:     0.2960798 α      in ANC's #24, #15, #11, ...

........................................................................
.............................. CYCLE   17 ..............................
........................................................................
   1   -249.4342171 -0.249434E+03  0.355E-03    1.11       0.0  T
   2   -249.4342176 -0.510749E-06  0.267E-03    1.11       3.3  T
   3   -249.4342200 -0.240930E-05  0.115E-03    1.11       7.6  T
   4   -249.4342203 -0.258128E-06  0.676E-04    1.11      12.9  T
   5   -249.4342204 -0.769224E-07  0.268E-04    1.11      32.4  T
   6   -249.4342204 -0.152995E-07  0.662E-05    1.11     131.4  T
   7   -249.4342204 -0.102420E-08  0.241E-05    1.11     361.6  T
     SCC iter.                  ...        0 min,  0.326 sec
     gradient                   ...        0 min,  0.264 sec
 * total energy  :  -245.7163974 Eh     change       -0.6806402E-03 Eh
   gradient norm :     0.0059125 Eh/α   predicted    -0.5690499E-03 ( -16.39%)
   displ. norm   :     0.5759688 α      lambda       -0.7296541E-03
   maximum displ.:     0.2716921 α      in ANC's #15, #11, #8, ...

........................................................................
.............................. CYCLE   18 ..............................
........................................................................
   1   -249.4315352 -0.249432E+03  0.277E-03    1.11       0.0  T
   2   -249.4315353 -0.502062E-07  0.217E-03    1.11       4.0  T
   3   -249.4315370 -0.171852E-05  0.972E-04    1.11       9.0  T
   4   -249.4315372 -0.193362E-06  0.539E-04    1.11      16.1  T
   5   -249.4315372 -0.391202E-07  0.190E-04    1.11      45.9  T
   6   -249.4315372 -0.669868E-08  0.488E-05    1.11     178.4  T
     SCC iter.                  ...        0 min,  0.285 sec
     gradient                   ...        0 min,  0.267 sec
 * total energy  :  -245.7169638 Eh     change       -0.5663779E-03 Eh
   gradient norm :     0.0074689 Eh/α   predicted    -0.4858576E-03 ( -14.22%)
   displ. norm   :     0.5558777 α      lambda       -0.6508133E-03
   maximum displ.:     0.2647495 α      in ANC's #15, #11, #8, ...

........................................................................
.............................. CYCLE   19 ..............................
........................................................................
   1   -249.4308444 -0.249431E+03  0.239E-03    1.12       0.0  T
   2   -249.4308443  0.114608E-06  0.195E-03    1.12       4.5  T
   3   -249.4308460 -0.172297E-05  0.847E-04    1.12      10.3  T
   4   -249.4308462 -0.190055E-06  0.408E-04    1.12      21.3  T
   5   -249.4308462 -0.812534E-08  0.183E-04    1.12      47.5  T
   6   -249.4308462 -0.481003E-08  0.443E-05    1.12     196.5  T
     SCC iter.                  ...        0 min,  0.288 sec
     gradient                   ...        0 min,  0.266 sec
 * total energy  :  -245.7174545 Eh     change       -0.4906461E-03 Eh
   gradient norm :     0.0089103 Eh/α   predicted    -0.4259626E-03 ( -13.18%)
   displ. norm   :     0.5059340 α      lambda       -0.5301499E-03
   maximum displ.:     0.2381274 α      in ANC's #15, #11, #8, ...

........................................................................
.............................. CYCLE   20 ..............................
........................................................................
   1   -249.4311745 -0.249431E+03  0.237E-03    1.11       0.0  T
   2   -249.4311750 -0.574382E-06  0.141E-03    1.11       6.2  T
   3   -249.4311755 -0.427513E-06  0.790E-04    1.11      11.0  T
   4   -249.4311756 -0.142957E-06  0.462E-04    1.11      18.8  T
   5   -249.4311756 -0.448804E-07  0.164E-04    1.11      53.1  T
   6   -249.4311756 -0.285416E-08  0.538E-05    1.11     161.8  T
     SCC iter.                  ...        0 min,  0.283 sec
     gradient                   ...        0 min,  0.267 sec
 * total energy  :  -245.7178851 Eh     change       -0.4306021E-03 Eh
   gradient norm :     0.0077961 Eh/α   predicted    -0.3329292E-03 ( -22.68%)
   displ. norm   :     0.5086305 α      lambda       -0.4855150E-03
   maximum displ.:     0.2478777 α      in ANC's #11, #15, #8, ...
 * RMSD in coord.:     0.7688265 α      energy gain  -0.1036787E+01 Eh

generating ANC from model Hessian ...
Using Lindh-Hessian (1995)
 Shifting diagonal of input Hessian by    1.0028926116070386E-002
 Lowest  eigenvalues of input Hessian
    0.010000    0.010012    0.010016    0.010023    0.000000    0.000000
    0.000000    0.000000    0.000000    0.000000    0.010032    0.010121
    0.010131    0.010185    0.010244    0.010292    0.010416    0.010434
 Highest eigenvalues
    2.398411    2.399454    2.399627    2.485594    2.807864    3.032515


........................................................................
.............................. CYCLE   21 ..............................
........................................................................
   1   -249.4324973 -0.249432E+03  0.293E-03    1.11       0.0  T
   2   -249.4324984 -0.108379E-05  0.161E-03    1.11       5.4  T
   3   -249.4324988 -0.336946E-06  0.881E-04    1.11       9.9  T
   4   -249.4324988 -0.609775E-07  0.633E-04    1.11      13.7  T
   5   -249.4324990 -0.126231E-06  0.178E-04    1.11      49.0  T
   6   -249.4324990 -0.441145E-08  0.614E-05    1.11     141.8  T
     SCC iter.                  ...        0 min,  0.284 sec
     gradient                   ...        0 min,  0.270 sec
 * total energy  :  -245.7182786 Eh     change       -0.3934993E-03 Eh
   gradient norm :     0.0059438 Eh/α   predicted     0.0000000E+00 (-100.00%)
   displ. norm   :     0.0979466 α      lambda       -0.1685723E-03
   maximum displ.:     0.0467502 α      in ANC's #11, #25, #16, ...

........................................................................
.............................. CYCLE   22 ..............................
........................................................................
   1   -249.4340458 -0.249434E+03  0.147E-03    1.11       0.0  T
   2   -249.4340459 -0.129144E-06  0.803E-04    1.11      10.8  T
   3   -249.4340459 -0.447843E-07  0.443E-04    1.11      19.7  T
   4   -249.4340459 -0.705356E-08  0.367E-04    1.11      23.7  T
   5   -249.4340460 -0.403301E-07  0.944E-05    1.11      92.2  T
   6   -249.4340460 -0.169305E-08  0.210E-05    1.11     414.3  T
     SCC iter.                  ...        0 min,  0.282 sec
     gradient                   ...        0 min,  0.265 sec
 * total energy  :  -245.7184242 Eh     change       -0.1456382E-03 Eh
   gradient norm :     0.0032919 Eh/α   predicted    -0.8698122E-04 ( -40.28%)
   displ. norm   :     0.3230508 α      lambda       -0.3970778E-03
   maximum displ.:     0.1595377 α      in ANC's #11, #25, #16, ...

........................................................................
.............................. CYCLE   23 ..............................
........................................................................
   1   -249.4366346 -0.249437E+03  0.328E-03    1.11       0.0  T
   2   -249.4366352 -0.637901E-06  0.184E-03    1.11       4.7  T
   3   -249.4366357 -0.531175E-06  0.106E-03    1.11       8.2  T
   4   -249.4366361 -0.317665E-06  0.659E-04    1.11      13.2  T
   5   -249.4366362 -0.933425E-07  0.174E-04    1.11      50.1  T
   6   -249.4366362 -0.397935E-08  0.467E-05    1.11     186.2  T
     SCC iter.                  ...        0 min,  0.283 sec
     gradient                   ...        0 min,  0.264 sec
 * total energy  :  -245.7186853 Eh     change       -0.2611250E-03 Eh
   gradient norm :     0.0045597 Eh/α   predicted    -0.2192827E-03 ( -16.02%)
   displ. norm   :     0.2770642 α      lambda       -0.2095040E-03
   maximum displ.:     0.1468359 α      in ANC's #11, #25, #16, ...

........................................................................
.............................. CYCLE   24 ..............................
........................................................................
   1   -249.4372358 -0.249437E+03  0.181E-03    1.11       0.0  T
   2   -249.4372359 -0.131320E-06  0.103E-03    1.11       8.4  T
   3   -249.4372362 -0.318672E-06  0.621E-04    1.11      14.0  T
   4   -249.4372364 -0.158800E-06  0.229E-04    1.11      38.0  T
   5   -249.4372364 -0.171781E-08  0.835E-05    1.11     104.3  T
   6   -249.4372364 -0.161094E-08  0.260E-05    1.11     334.9  T
     SCC iter.                  ...        0 min,  0.286 sec
     gradient                   ...        0 min,  0.268 sec
 * total energy  :  -245.7188090 Eh     change       -0.1237053E-03 Eh
   gradient norm :     0.0056584 Eh/α   predicted    -0.1127974E-03 (  -8.82%)
   displ. norm   :     0.2789939 α      lambda       -0.2108692E-03
   maximum displ.:     0.1530038 α      in ANC's #11, #25, #16, ...

........................................................................
.............................. CYCLE   25 ..............................
........................................................................
   1   -249.4375749 -0.249438E+03  0.171E-03    1.11       0.0  T
   2   -249.4375750 -0.727186E-07  0.111E-03    1.11       7.9  T
   3   -249.4375753 -0.311277E-06  0.565E-04    1.11      15.4  T
   4   -249.4375754 -0.829763E-07  0.283E-04    1.11      30.8  T
   5   -249.4375754 -0.101715E-07  0.107E-04    1.11      81.7  T
   6   -249.4375754 -0.398202E-08  0.252E-05    1.11     345.5  T
     SCC iter.                  ...        0 min,  0.287 sec
     gradient                   ...        0 min,  0.266 sec
 * total energy  :  -245.7189265 Eh     change       -0.1174503E-03 Eh
   gradient norm :     0.0050108 Eh/α   predicted    -0.1136431E-03 (  -3.24%)
   displ. norm   :     0.1949998 α      lambda       -0.1656191E-03
   maximum displ.:     0.1166144 α      in ANC's #11, #16, #9, ...

........................................................................
.............................. CYCLE   26 ..............................
........................................................................
   1   -249.4386743 -0.249439E+03  0.129E-03    1.11       0.0  T
   2   -249.4386745 -0.144521E-06  0.776E-04    1.11      11.2  T
   3   -249.4386745 -0.501025E-07  0.381E-04    1.11      22.9  T
   4   -249.4386745  0.198297E-07  0.306E-04    1.11      28.5  T
   5   -249.4386745 -0.275560E-07  0.964E-05    1.11      90.3  T
   6   -249.4386745 -0.296336E-08  0.234E-05    1.11     372.0  T
     SCC iter.                  ...        0 min,  0.282 sec
     gradient                   ...        0 min,  0.262 sec
 * total energy  :  -245.7190419 Eh     change       -0.1153929E-03 Eh
   gradient norm :     0.0030284 Eh/α   predicted    -0.8595908E-04 ( -25.51%)
   displ. norm   :     0.2152471 α      lambda       -0.1512128E-03
   maximum displ.:     0.1328416 α      in ANC's #11, #16, #9, ...

........................................................................
.............................. CYCLE   27 ..............................
........................................................................
   1   -249.4395475 -0.249440E+03  0.158E-03    1.11       0.0  T
   2   -249.4395478 -0.265925E-06  0.930E-04    1.11       9.4  T
   3   -249.4395479 -0.975504E-07  0.449E-04    1.11      19.4  T
   4   -249.4395479  0.151914E-07  0.385E-04    1.11      22.6  T
   5   -249.4395479 -0.452576E-07  0.119E-04    1.11      73.3  T
   6   -249.4395479 -0.342649E-08  0.287E-05    1.11     303.0  T
     SCC iter.                  ...        0 min,  0.285 sec
     gradient                   ...        0 min,  0.265 sec
 * total energy  :  -245.7191501 Eh     change       -0.1082338E-03 Eh
   gradient norm :     0.0034768 Eh/α   predicted    -0.7911030E-04 ( -26.91%)
   displ. norm   :     0.2669532 α      lambda       -0.1564973E-03
   maximum displ.:     0.1636847 α      in ANC's #11, #16, #9, ...

........................................................................
.............................. CYCLE   28 ..............................
........................................................................
   1   -249.4392466 -0.249439E+03  0.153E-03    1.11       0.0  T
   2   -249.4392468 -0.214718E-06  0.849E-04    1.11      10.3  T
   3   -249.4392469 -0.131861E-06  0.477E-04    1.11      18.3  T
   4   -249.4392470 -0.597740E-07  0.270E-04    1.11      32.3  T
   5   -249.4392470 -0.159104E-07  0.954E-05    1.11      91.2  T
   6   -249.4392470 -0.134170E-08  0.220E-05    1.11     395.7  T
     SCC iter.                  ...        0 min,  0.287 sec
     gradient                   ...        0 min,  0.265 sec
 * total energy  :  -245.7192625 Eh     change       -0.1123672E-03 Eh
   gradient norm :     0.0050012 Eh/α   predicted    -0.8382661E-04 ( -25.40%)
   displ. norm   :     0.2957687 α      lambda       -0.1507294E-03
   maximum displ.:     0.1828752 α      in ANC's #11, #16, #9, ...

........................................................................
.............................. CYCLE   29 ..............................
........................................................................
   1   -249.4380222 -0.249438E+03  0.124E-03    1.11       0.0  T
   2   -249.4380223 -0.450233E-07  0.734E-04    1.11      11.9  T
   3   -249.4380223 -0.894281E-07  0.459E-04    1.11      19.0  T
   4   -249.4380224 -0.590230E-07  0.225E-04    1.11      38.7  T
   5   -249.4380224 -0.107227E-07  0.533E-05    1.11     163.2  T
   6   -249.4380224 -0.398387E-09  0.185E-05    1.11     471.1  T
     SCC iter.                  ...        0 min,  0.284 sec
     gradient                   ...        0 min,  0.267 sec
 * total energy  :  -245.7193851 Eh     change       -0.1225691E-03 Eh
   gradient norm :     0.0044134 Eh/α   predicted    -0.8195810E-04 ( -33.13%)
   displ. norm   :     0.3425246 α      lambda       -0.1501225E-03
   maximum displ.:     0.2144070 α      in ANC's #11, #16, #9, ...

........................................................................
.............................. CYCLE   30 ..............................
........................................................................
   1   -249.4370015 -0.249437E+03  0.126E-03    1.11       0.0  T
   2   -249.4370016 -0.118850E-06  0.818E-04    1.11      10.6  T
   3   -249.4370017 -0.906020E-07  0.377E-04    1.11      23.1  T
   4   -249.4370017  0.897873E-08  0.323E-04    1.11      27.0  T
   5   -249.4370017 -0.343045E-07  0.831E-05    1.11     104.7  T
   6   -249.4370017 -0.124930E-08  0.235E-05    1.11     370.5  T
     SCC iter.                  ...        0 min,  0.286 sec
     gradient                   ...        0 min,  0.262 sec
 * total energy  :  -245.7195039 Eh     change       -0.1188756E-03 Eh
   gradient norm :     0.0030629 Eh/α   predicted    -0.8386960E-04 ( -29.45%)
   displ. norm   :     0.3347293 α      lambda       -0.1102781E-03
   maximum displ.:     0.2124618 α      in ANC's #11, #16, #9, ...

........................................................................
.............................. CYCLE   31 ..............................
........................................................................
   1   -249.4362927 -0.249436E+03  0.120E-03    1.11       0.0  T
   2   -249.4362928 -0.129255E-06  0.681E-04    1.11      12.8  T
   3   -249.4362929 -0.688692E-07  0.317E-04    1.11      27.5  T
   4   -249.4362929 -0.791988E-08  0.253E-04    1.11      34.4  T
   5   -249.4362929 -0.171445E-07  0.830E-05    1.11     104.8  T
   6   -249.4362929 -0.184855E-08  0.191E-05    1.11     454.7  T
     SCC iter.                  ...        0 min,  0.285 sec
     gradient                   ...        0 min,  0.262 sec
 * total energy  :  -245.7195901 Eh     change       -0.8619959E-04 Eh
   gradient norm :     0.0026407 Eh/α   predicted    -0.6131925E-04 ( -28.86%)
   displ. norm   :     0.2852649 α      lambda       -0.7491095E-04
   maximum displ.:     0.1832748 α      in ANC's #11, #16, #9, ...

........................................................................
.............................. CYCLE   32 ..............................
........................................................................
   1   -249.4361595 -0.249436E+03  0.113E-03    1.11       0.0  T
   2   -249.4361596 -0.126449E-06  0.535E-04    1.11      16.3  T
   3   -249.4361596 -0.380191E-07  0.320E-04    1.11      27.2  T
   4   -249.4361596 -0.265835E-07  0.187E-04    1.11      46.6  T
   5   -249.4361597 -0.627168E-08  0.777E-05    1.11     112.0  T
     SCC iter.                  ...        0 min,  0.236 sec
     gradient                   ...        0 min,  0.267 sec
 * total energy  :  -245.7196487 Eh     change       -0.5861266E-04 Eh
   gradient norm :     0.0024379 Eh/α   predicted    -0.4050727E-04 ( -30.89%)
   displ. norm   :     0.2388655 α      lambda       -0.5293139E-04
   maximum displ.:     0.1557546 α      in ANC's #11, #9, #16, ...

........................................................................
.............................. CYCLE   33 ..............................
........................................................................
   1   -249.4358128 -0.249436E+03  0.908E-04    1.11       0.0  T
   2   -249.4358129 -0.775218E-07  0.467E-04    1.11      18.6  T
   3   -249.4358129 -0.306061E-07  0.287E-04    1.11      30.3  T
   4   -249.4358129 -0.217262E-07  0.163E-04    1.11      53.4  T
   5   -249.4358129 -0.499756E-08  0.584E-05    1.11     149.1  T
     SCC iter.                  ...        0 min,  0.253 sec
     gradient                   ...        0 min,  0.264 sec
 * total energy  :  -245.7196887 Eh     change       -0.4000269E-04 Eh
   gradient norm :     0.0019810 Eh/α   predicted    -0.2797830E-04 ( -30.06%)
   displ. norm   :     0.2699753 α      lambda       -0.3244151E-04
   maximum displ.:     0.1798223 α      in ANC's #11, #9, #16, ...

........................................................................
.............................. CYCLE   34 ..............................
........................................................................
   1   -249.4354889 -0.249435E+03  0.997E-04    1.11       0.0  T
   2   -249.4354891 -0.122394E-06  0.512E-04    1.11      17.0  T
   3   -249.4354891 -0.220398E-07  0.304E-04    1.11      28.7  T
   4   -249.4354891 -0.485127E-08  0.211E-04    1.11      41.2  T
   5   -249.4354891 -0.118093E-07  0.721E-05    1.11     120.7  T
   6   -249.4354891 -0.182598E-08  0.185E-05    1.11     471.0  T
     SCC iter.                  ...        0 min,  0.285 sec
     gradient                   ...        0 min,  0.268 sec
 * total energy  :  -245.7197183 Eh     change       -0.2954555E-04 Eh
   gradient norm :     0.0016805 Eh/α   predicted    -0.1674665E-04 ( -43.32%)
   displ. norm   :     0.1043210 α      lambda       -0.1220699E-04
   maximum displ.:     0.0733813 α      in ANC's #11, #9, #14, ...

........................................................................
.............................. CYCLE   35 ..............................
........................................................................
   1   -249.4348587 -0.249435E+03  0.865E-04    1.11       0.0  T
   2   -249.4348589 -0.153228E-06  0.331E-04    1.11      26.3  T
   3   -249.4348589 -0.678324E-08  0.151E-04    1.11      57.7  T
   4   -249.4348589  0.240425E-08  0.123E-04    1.11      70.6  T
     SCC iter.                  ...        0 min,  0.190 sec
     gradient                   ...        0 min,  0.263 sec
 * total energy  :  -245.7197305 Eh     change       -0.1218659E-04 Eh
   gradient norm :     0.0011640 Eh/α   predicted    -0.6135120E-05 ( -49.66%)
   displ. norm   :     0.0734264 α      lambda       -0.9872119E-05
   maximum displ.:     0.0498477 α      in ANC's #11, #5, #14, ...

........................................................................
.............................. CYCLE   36 ..............................
........................................................................
   1   -249.4347899 -0.249435E+03  0.559E-04    1.11       0.0  T
   2   -249.4347899 -0.235003E-07  0.288E-04    1.11      30.3  T
   3   -249.4347899 -0.765962E-08  0.184E-04    1.11      47.3  T
   4   -249.4347899 -0.720652E-08  0.105E-04    1.11      82.6  T
     SCC iter.                  ...        0 min,  0.192 sec
     gradient                   ...        0 min,  0.261 sec
 * total energy  :  -245.7197417 Eh     change       -0.1120318E-04 Eh
   gradient norm :     0.0008493 Eh/α   predicted    -0.4949927E-05 ( -55.82%)
   displ. norm   :     0.0888569 α      lambda       -0.9491434E-05
   maximum displ.:     0.0542298 α      in ANC's #11, #5, #23, ...

........................................................................
.............................. CYCLE   37 ..............................
........................................................................
   1   -249.4343495 -0.249434E+03  0.569E-04    1.11       0.0  T
   2   -249.4343496 -0.348642E-07  0.231E-04    1.11      37.7  T
   3   -249.4343496 -0.155561E-08  0.158E-04    1.11      55.0  T
   4   -249.4343496 -0.498724E-08  0.101E-04    1.11      86.4  T
     SCC iter.                  ...        0 min,  0.192 sec
     gradient                   ...        0 min,  0.266 sec
 * total energy  :  -245.7197518 Eh     change       -0.1015792E-04 Eh
   gradient norm :     0.0009936 Eh/α   predicted    -0.4764607E-05 ( -53.09%)
   displ. norm   :     0.1029738 α      lambda       -0.9299803E-05
   maximum displ.:     0.0560625 α      in ANC's #11, #5, #16, ...

........................................................................
.............................. CYCLE   38 ..............................
........................................................................
   1   -249.4343671 -0.249434E+03  0.601E-04    1.11       0.0  T
   2   -249.4343672 -0.667723E-07  0.274E-04    1.11      31.7  T
   3   -249.4343672 -0.609222E-08  0.156E-04    1.11      55.9  T
   4   -249.4343672 -0.148998E-08  0.124E-04    1.11      70.0  T
     SCC iter.                  ...        0 min,  0.193 sec
     gradient                   ...        0 min,  0.266 sec
 * total energy  :  -245.7197605 Eh     change       -0.8641645E-05 Eh
   gradient norm :     0.0013179 Eh/α   predicted    -0.4673413E-05 ( -45.92%)
   displ. norm   :     0.0867354 α      lambda       -0.7606949E-05
   maximum displ.:     0.0451280 α      in ANC's #11, #5, #16, ...

........................................................................
.............................. CYCLE   39 ..............................
........................................................................
   1   -249.4344537 -0.249434E+03  0.504E-04    1.11       0.0  T
   2   -249.4344538 -0.504475E-07  0.181E-04    1.11      48.0  T
   3   -249.4344538 -0.199825E-08  0.873E-05    1.11      99.7  T
     SCC iter.                  ...        0 min,  0.149 sec
     gradient                   ...        0 min,  0.266 sec
 * total energy  :  -245.7197685 Eh     change       -0.8054581E-05 Eh
   gradient norm :     0.0009874 Eh/α   predicted    -0.3817555E-05 ( -52.60%)
   displ. norm   :     0.0843071 α      lambda       -0.6960806E-05
   maximum displ.:     0.0426239 α      in ANC's #11, #5, #16, ...

........................................................................
.............................. CYCLE   40 ..............................
........................................................................
   1   -249.4344057 -0.249434E+03  0.694E-04    1.11       0.0  T
   2   -249.4344058 -0.528013E-07  0.344E-04    1.11      25.3  T
   3   -249.4344058 -0.110886E-07  0.183E-04    1.11      47.6  T
   4   -249.4344058  0.960284E-09  0.128E-04    1.11      68.0  T
     SCC iter.                  ...        0 min,  0.190 sec
     gradient                   ...        0 min,  0.262 sec
 * total energy  :  -245.7197755 Eh     change       -0.6941831E-05 Eh
   gradient norm :     0.0008224 Eh/α   predicted    -0.3494145E-05 ( -49.67%)
   displ. norm   :     0.0805549 α      lambda        0.1021783E-05
   maximum displ.:     0.0407061 α      in ANC's #11, #5, #16, ...

........................................................................
.............................. CYCLE   41 ..............................
........................................................................
   1   -249.4342920 -0.249434E+03  0.685E-04    1.11       0.0  T
   2   -249.4342920 -0.485384E-07  0.344E-04    1.11      25.3  T
   3   -249.4342921 -0.115130E-07  0.193E-04    1.11      45.2  T
   4   -249.4342921  0.138527E-09  0.132E-04    1.11      66.2  T
     SCC iter.                  ...        0 min,  0.192 sec
     gradient                   ...        0 min,  0.263 sec
 * total energy  :  -245.7197754 Eh     change        0.1169699E-06 Eh
   gradient norm :     0.0015173 Eh/α   predicted     0.5084835E-06 ( 334.71%)
   displ. norm   :     0.0212131 α      lambda       -0.6013150E-05
   maximum displ.:     0.0093584 α      in ANC's #5, #16, #23, ...

........................................................................
.............................. CYCLE   42 ..............................
........................................................................
   1   -249.4348788 -0.249435E+03  0.597E-04    1.11       0.0  T
   2   -249.4348788 -0.436995E-07  0.327E-04    1.11      26.6  T
   3   -249.4348788 -0.114274E-07  0.168E-04    1.11      51.8  T
   4   -249.4348788  0.250850E-08  0.139E-04    1.11      62.6  T
     SCC iter.                  ...        0 min,  0.205 sec
     gradient                   ...        0 min,  0.264 sec
 * total energy  :  -245.7197812 Eh     change       -0.5791450E-05 Eh
   gradient norm :     0.0008487 Eh/α   predicted    -0.3010260E-05 ( -48.02%)
   displ. norm   :     0.0285522 α      lambda       -0.3459424E-05
   maximum displ.:     0.0157102 α      in ANC's #5, #11, #23, ...
 * RMSD in coord.:     0.2992527 α      energy gain  -0.1896077E-02 Eh

generating ANC from model Hessian ...
Using Lindh-Hessian (1995)
 Shifting diagonal of input Hessian by    1.0025649598545511E-002
 Lowest  eigenvalues of input Hessian
    0.010000    0.010009    0.010020    0.000000    0.000000    0.000000
    0.000000    0.000000    0.000000    0.010028    0.010034    0.010125
    0.010132    0.010232    0.010281    0.010289    0.010361    0.010422
 Highest eigenvalues
    2.399273    2.399398    2.399469    2.483752    2.808100    3.032694


........................................................................
.............................. CYCLE   43 ..............................
........................................................................
   1   -249.4352936 -0.249435E+03  0.436E-04    1.11       0.0  T
   2   -249.4352936 -0.220632E-07  0.224E-04    1.11      38.8  T
   3   -249.4352936 -0.431825E-08  0.122E-04    1.11      71.4  T
   4   -249.4352936  0.163610E-08  0.988E-05    1.11      88.1  T
     SCC iter.                  ...        0 min,  0.191 sec
     gradient                   ...        0 min,  0.269 sec
 * total energy  :  -245.7197852 Eh     change       -0.4019877E-05 Eh
   gradient norm :     0.0007200 Eh/α   predicted     0.0000000E+00 (-100.00%)
   displ. norm   :     0.0144862 α      lambda       -0.4842837E-06
   maximum displ.:     0.0056072 α      in ANC's #4, #12, #10, ...

   *** GEOMETRY OPTIMIZATION CONVERGED AFTER 43 ITERATIONS ***

------------------------------------------------------------------------
 total energy gain   :        -1.0386869 Eh     -651.7859 kcal/mol
 total RMSD          :         0.9381014 a0        0.4964 Å
 total power (kW/mol):       -63.4202805 (step)  -85.3227 (real)
------------------------------------------------------------------------

 ANCopt (total)                0 d,  0 h,  0 min, 31.962 sec
 optimizer setup                ...        0 min,  0.083 sec (  0.260%)
 model hessian                  ...        0 min,  0.131 sec (  0.409%)
 ANC generation                 ...        0 min,  0.077 sec (  0.242%)
 coordinate transformation      ...        0 min,  0.006 sec (  0.017%)
 single point calculation       ...        0 min, 30.125 sec ( 94.251%)
 optimization log               ...        0 min,  1.441 sec (  4.507%)
 hessian update                 ...        0 min,  0.006 sec (  0.019%)
 rational function              ...        0 min,  0.035 sec (  0.109%)

================
 final structure:
================
132
 xtb: 6.5.1 (b24c23e)
Zn          13.17388600119906       -0.01943295297427        0.00798882138090
C            9.76797240767817       -0.00268317638246        0.16576922693642
C           10.39972958168865        1.22762199736854        0.30031457086318
C            9.72816997589136        2.48549125591819        0.47365424747149
C           10.68825649163076        3.43885596170189        0.56554971158326
C           11.95992105031176        2.77278810437059        0.46038748080019
N           11.74914337835622        1.43591474575074        0.29053686956704
C           13.21215585687665        3.39744504492695        0.50247310734876
C           13.22846571073887        4.86709708428229        0.71376460305478
C           12.71158206979858        5.42029063466258        1.88182523254346
C           12.72653094675931        6.80069621845940        2.07830506910248
C           12.16252588999913        7.32907314109427        3.34539622857349
O           12.22880315111849        8.66483130095966        3.44607217303356
O           11.68469798948896        6.64607339928983        4.21490530298808
C           13.25921113287599        7.64043996227032        1.10016606830764
C           13.77357483304667        7.09241728845557       -0.06434113226973
C           13.76096407609383        5.71822135029719       -0.25759458713005
C           14.44940846309924        2.75886129672669        0.36593122492287
C           15.73094299768366        3.40046113192330        0.47014729051365
C           16.67431057442232        2.44066599505501        0.29262524867849
N           14.63907658773139        1.42171830103977        0.14046946453398
C           15.98012590300910        1.20355861355774        0.08646496018631
C           16.60746069653112       -0.03859829520489       -0.14035338311250
C           15.94970315461611       -1.27243459519325       -0.31887093085825
C           16.61011921904108       -2.51646210389497       -0.58495452109715
C           15.64435999498454       -3.46536941405531       -0.68399553169726
C           14.38336889582339       -2.81024211061924       -0.46956285512477
N           14.60623956544684       -1.47523577239790       -0.26200982718034
C           13.13240892884451       -3.43659027032932       -0.49106502268184
C           13.11347438789701       -4.90777884906800       -0.69238705095891
C           13.72708749321605       -5.75574339424359        0.23251689468511
C           13.70540057099602       -7.13207593048616        0.05445765623164
C           13.07338036044178       -7.67954901481570       -1.04935738954279
C           12.45795845651348       -6.84309848164888       -1.98204678513494
C           11.79132930097301       -7.46853658862423       -3.15114089746091
O           11.22303291139401       -6.58358945689316       -3.98371258289930
O           11.74787668564891       -8.65499449544584       -3.35457159547612
C           12.47812264743814       -5.46134260862123       -1.80193164240009
C           11.89563892990012       -2.79944335004011       -0.33251265407091
C           10.61374017761741       -3.45378181581372       -0.31026277405972
C            9.67574245191448       -2.49102004694606       -0.12925630450141
C           10.37227102353359       -1.23906354599098       -0.02760832991248
N           11.71418542865532       -1.45998058075943       -0.14985130774778
H            8.68368448816244        0.00235979722307        0.21932237007730
H            8.65757178665617        2.61178717470461        0.51197836672283
H           10.55184275196592        4.50169587838922        0.68509709518025
H           12.30543067083216        4.78197701278398        2.65886078692735
H           11.84233466194709        8.92890181962657        4.29676118065956
H           13.26806859113648        8.71271484329890        1.25340904771192
H           14.18645417507113        7.73933305139177       -0.83011568707757
H           14.15390327367186        5.29723104934713       -1.17638012668921
H           15.88792394453928        4.44853101627260        0.66836241724363
H           17.74676580495100        2.55252005716165        0.30648840036833
H           17.67647164441790       -2.63922745135510       -0.68890546801634
H           15.77177089571529       -4.51464982004795       -0.89674351134865
H           14.21037663270005       -5.32970588701299        1.10470817910859
H           14.18217199425488       -7.77726941906435        0.78355786897374
H           13.04633821421680       -8.75229017355456       -1.20370240612589
H           10.81133351263604       -7.07101767726956       -4.71562471158187
H           12.01098157113021       -4.81390942388994       -2.53465175805286
H           10.45648321058948       -4.51588707676206       -0.40937129366066
H            8.60550269270908       -2.60754988071973       -0.06078911421009
Zn          31.78134357154786        0.01305032772047        0.01166594407769
C           35.18705173705024       -0.04994554209944        0.16053356686213
C           34.55755258134782       -1.25777175960259       -0.11466231850847
C           35.23119999725962       -2.50250945804950       -0.35992145089215
C           34.27273946049202       -3.43490863346543       -0.58601550724162
C           32.99999244924910       -2.77262099620988       -0.47035222074978
N           33.20856187757918       -1.45322533782536       -0.19437525767078
C           31.74868437206892       -3.37832152687218       -0.63586692360681
C           31.73342367346262       -4.83660085333570       -0.91504014036914
C           32.25014018734868       -5.74010162175273        0.00919987227186
C           32.23362969290493       -7.10937852500438       -0.25395336453505
C           32.79627928260986       -8.02179829703526        0.77257387482986
O           32.73285430449176       -9.31731306849794        0.43121112731910
O           33.27122489469261       -7.65953194460827        1.81853412082879
C           31.69961001776688       -7.58487754134259       -1.45162497882715
C           31.18577572915897       -6.68739609454605       -2.37439837864964
C           31.20002520395569       -5.32506890936429       -2.11025486393081
C           30.51052869876785       -2.73164559234166       -0.55740238180837
C           29.22993489532006       -3.37399120461027       -0.66852537645443
C           28.28509802775563       -2.41027450319108       -0.52311992939349
N           30.31878597980629       -1.39438782049448       -0.33417536521053
C           28.97738396866719       -1.17257251421127       -0.31410994160722
C           28.34768549882656        0.07427457496447       -0.12261493317358
C           29.00316524891701        1.30018427833328        0.11089512659151
C           28.34070662912045        2.56186180809084        0.26540795731372
C           29.30503454121801        3.49274212506183        0.48112814968030
C           30.56708393349080        2.80551471706857        0.46985270223178
N           30.34631158428562        1.47545755907867        0.23055247522906
C           31.81715801063799        3.40618852479107        0.65418678172398
C           31.83499581926472        4.86254837824322        0.94406787321226
C           31.22238312244431        5.36182364072775        2.09570226498209
C           31.24542798969222        6.72069661566966        2.37754998356265
C           31.87777439748499        7.59855302516324        1.51321822213564
C           32.49193233295131        7.11270153982743        0.35779911185969
C           33.15995614908052        8.08531686659867       -0.54223039537011
O           33.72980390016531        7.52033064279795       -1.61718083722558
O           33.20262610574166        9.27324825186525       -0.34779397133284
C           32.47023252419878        5.74810194832548        0.07602288938459
C           33.05480071896533        2.75367220094574        0.59736905914139
C           34.33553978293634        3.36674892850257        0.83338641219202
C           35.27502368530951        2.39877351023371        0.69235508586559
C           34.58059396883612        1.18111118256899        0.37949376874930
N           33.23839493447317        1.42803117628281        0.33381175930058
H           36.27127028855541       -0.07053573886546        0.21171113479910
H           36.30198453668240       -2.63297933578908       -0.36275103955977
H           34.41085310971099       -4.47840513454544       -0.81964598808595
H           32.65696164617067       -5.38967416281368        0.95148909387661
H           33.11826669550147       -9.84422063840655        1.14995710807936
H           31.68882809374426       -8.64873934962312       -1.65508316329719
H           30.77166798394713       -7.04973603569722       -3.30854266535309
H           30.80733781391990       -4.62776262062987       -2.84193994745170
H           29.07440323259591       -4.42958115469146       -0.82315404366952
H           27.21281264913102       -2.52212005717199       -0.54671381928309
H           27.27411379327471        2.71016669588770        0.20740891671282
H           29.17598055530282        4.55380376496665        0.62253151377923
H           30.73910456319146        4.67437635337036        2.78100951382652
H           30.76986456478808        7.09229651677598        3.27805854218322
H           31.90646323101179        8.66266195263693        1.71859502369759
H           34.14218126906739        8.21984777941467       -2.14953994021480
H           32.93643650710812        5.37547780063008       -0.82843625461558
H           34.49101241723115        4.40342242259752        1.08586078102914
H           36.34497761487380        2.48806313544575        0.79673903019207
C           18.01160243685857       -0.04319120882906       -0.18581591322185
C           19.23609430974497       -0.02869903351974       -0.21149411118040
C           20.57836048996512       -0.01012503214574       -0.22787750819616
C           21.80868921156910        0.02440865661628       -0.23224530936849
C           23.14618102456114        0.04908669623807       -0.22646382072282
C           24.37669094020011        0.07549698894947       -0.21229896477752
C           25.71891960451420        0.08637895759398       -0.18978596667428
C           26.94344706696365        0.09072483452652       -0.16326977977683

 Bond Distances (Angstroems)
 ---------------------------
Zn1-N7=2.0562        Zn1-N21=2.0594       Zn1-N28=2.0601       Zn1-N43=2.0569       C2-C3=1.3896         C2-C42=1.3897        
C2-H44=1.0856        C3-C2=1.3896         C3-C4=1.4364         C3-N7=1.3654         C4-C3=1.4364         C4-C5=1.3561         
C4-H45=1.0787        C5-C4=1.3561         C5-C6=1.4394         C5-H46=1.0782        C6-C5=1.4394         C6-N7=1.3640         
C6-C8=1.4000         N7-Zn1=2.0562        N7-C3=1.3654         N7-C6=1.3640         C8-C6=1.4000         C8-C9=1.4849         
C8-C18=1.3990        C9-C8=1.4849         C9-C10=1.3920        C9-C17=1.3970        C10-C9=1.3920        C10-C11=1.3944       
C10-H47=1.0845       C11-C10=1.3944       C11-C12=1.4842       C11-C15=1.3949       C12-C11=1.4842       C12-O13=1.3412       
C12-O14=1.2045       O13-C12=1.3412       O13-H48=0.9710       O14-C12=1.2045       C15-C11=1.3949       C15-C16=1.3860       
C15-H49=1.0832       C16-C15=1.3860       C16-C17=1.3878       C16-H50=1.0841       C17-C9=1.3970        C17-C16=1.3878       
C17-H51=1.0843       C18-C8=1.3990        C18-C19=1.4370       C18-N21=1.3692       C19-C18=1.4370       C19-C20=1.3574       
C19-H52=1.0781       C20-C19=1.3574       C20-C22=1.4335       C20-H53=1.0784       N21-Zn1=2.0594       N21-C18=1.3692       
N21-C22=1.3598       C22-C20=1.4335       C22-N21=1.3598       C22-C23=1.4099       C23-C22=1.4099       C23-C24=1.4096       
C23-C125=1.4049      C24-C23=1.4096       C24-C25=1.4334       C24-N28=1.3599       C25-C24=1.4334       C25-C26=1.3575       
C25-H54=1.0784       C26-C25=1.3575       C26-C27=1.4371       C26-H55=1.0782       C27-C26=1.4371       C27-N28=1.3693       
C27-C29=1.3992       N28-Zn1=2.0601       N28-C24=1.3599       N28-C27=1.3693       C29-C27=1.3992       C29-C30=1.4850       
C29-C39=1.4002       C30-C29=1.4850       C30-C31=1.3968       C30-C38=1.3933       C31-C30=1.3968       C31-C32=1.3880       
C31-H56=1.0843       C32-C31=1.3880       C32-C33=1.3848       C32-H57=1.0841       C33-C32=1.3848       C33-C34=1.3958       
C33-H58=1.0841       C34-C33=1.3958       C34-C35=1.4840       C34-C38=1.3936       C35-C34=1.4840       C35-O36=1.3414       
C35-O37=1.2046       O36-C35=1.3414       O36-H59=0.9710       O37-C35=1.2046       C38-C30=1.3933       C38-C34=1.3936       
C38-H60=1.0836       C39-C29=1.4002       C39-C40=1.4394       C39-N43=1.3640       C40-C39=1.4394       C40-C41=1.3563       
C40-H61=1.0782       C41-C40=1.3563       C41-C42=1.4363       C41-H62=1.0787       C42-C2=1.3897        C42-C41=1.4363       
C42-N43=1.3655       N43-Zn1=2.0569       N43-C39=1.3640       N43-C42=1.3655       H44-C2=1.0856        H45-C4=1.0787        
H46-C5=1.0782        H47-C10=1.0845       H48-O13=0.9710       H49-C15=1.0832       H50-C16=1.0841       H51-C17=1.0843       
H52-C19=1.0781       H53-C20=1.0784       H54-C25=1.0784       H55-C26=1.0782       H56-C31=1.0843       H57-C32=1.0841       
H58-C33=1.0841       H59-O36=0.9710       H60-C38=1.0836       H61-C40=1.0782       H62-C41=1.0787       Zn63-N69=2.0565      
Zn63-N83=2.0590      Zn63-N90=2.0605      Zn63-N105=2.0564     C64-C65=1.3895       C64-C104=1.3897      C64-H106=1.0856      
C65-C64=1.3895       C65-C66=1.4364       C65-N69=1.3654       C66-C65=1.4364       C66-C67=1.3561       C66-H107=1.0787      
C67-C66=1.3561       C67-C68=1.4394       C67-H108=1.0782      C68-C67=1.4394       C68-N69=1.3640       C68-C70=1.4000       
N69-Zn63=2.0565      N69-C65=1.3654       N69-C68=1.3640       C70-C68=1.4000       C70-C71=1.4848       C70-C80=1.3991       
C71-C70=1.4848       C71-C72=1.3920       C71-C79=1.3970       C72-C71=1.3920       C72-C73=1.3944       C72-H109=1.0845      
C73-C72=1.3944       C73-C74=1.4842       C73-C77=1.3949       C74-C73=1.4842       C74-O75=1.3412       C74-O76=1.2045       
O75-C74=1.3412       O75-H110=0.9710      O76-C74=1.2045       C77-C73=1.3949       C77-C78=1.3860       C77-H111=1.0832      
C78-C77=1.3860       C78-C79=1.3878       C78-H112=1.0842      C79-C71=1.3970       C79-C78=1.3878       C79-H113=1.0843      
C80-C70=1.3991       C80-C81=1.4370       C80-N83=1.3693       C81-C80=1.4370       C81-C82=1.3574       C81-H114=1.0781      
C82-C81=1.3574       C82-C84=1.4335       C82-H115=1.0784      N83-Zn63=2.0590      N83-C80=1.3693       N83-C84=1.3598       
C84-C82=1.4335       C84-N83=1.3598       C84-C85=1.4099       C85-C84=1.4099       C85-C86=1.4096       C85-C132=1.4049      
C86-C85=1.4096       C86-C87=1.4334       C86-N90=1.3598       C87-C86=1.4334       C87-C88=1.3576       C87-H116=1.0784      
C88-C87=1.3576       C88-C89=1.4371       C88-H117=1.0782      C89-C88=1.4371       C89-N90=1.3693       C89-C91=1.3991       
N90-Zn63=2.0605      N90-C86=1.3598       N90-C89=1.3693       C91-C89=1.3991       C91-C92=1.4850       C91-C101=1.4003      
C92-C91=1.4850       C92-C93=1.3967       C92-C100=1.3933      C93-C92=1.3967       C93-C94=1.3880       C93-H118=1.0843      
C94-C93=1.3880       C94-C95=1.3848       C94-H119=1.0840      C95-C94=1.3848       C95-C96=1.3958       C95-H120=1.0841      
C96-C95=1.3958       C96-C97=1.4840       C96-C100=1.3936      C97-C96=1.4840       C97-O98=1.3414       C97-O99=1.2045       
O98-C97=1.3414       O98-H121=0.9710      O99-C97=1.2045       C100-C92=1.3933      C100-C96=1.3936      C100-H122=1.0836     
C101-C91=1.4003      C101-C102=1.4394     C101-N105=1.3640     C102-C101=1.4394     C102-C103=1.3563     C102-H123=1.0782     
C103-C102=1.3563     C103-C104=1.4363     C103-H124=1.0787     C104-C64=1.3897      C104-C103=1.4363     C104-N105=1.3655     
N105-Zn63=2.0564     N105-C101=1.3640     N105-C104=1.3655     H106-C64=1.0856      H107-C66=1.0787      H108-C67=1.0782      
H109-C72=1.0845      H110-O75=0.9710      H111-C77=1.0832      H112-C78=1.0842      H113-C79=1.0843      H114-C81=1.0781      
H115-C82=1.0784      H116-C87=1.0784      H117-C88=1.0782      H118-C93=1.0843      H119-C94=1.0840      H120-C95=1.0841      
H121-O98=0.9710      H122-C100=1.0836     H123-C102=1.0782     H124-C103=1.0787     C125-C23=1.4049      C125-C126=1.2248     
C126-C125=1.2248     C126-C127=1.3425     C127-C126=1.3425     C127-C128=1.2308     C128-C127=1.2308     C128-C129=1.3377     
C129-C128=1.3377     C129-C130=1.2309     C130-C129=1.2309     C130-C131=1.3425     C131-C130=1.3425     C131-C132=1.2248     
C132-C85=1.4049      C132-C131=1.2248     
 C  H  Rav=1.0815 sigma=0.0030  Rmin=1.0781  Rmax=1.0856    34
 C  C  Rav=1.3983 sigma=0.0527  Rmin=1.2248  Rmax=1.4850    81
 N  C  Rav=1.3646 sigma=0.0034  Rmin=1.3598  Rmax=1.3693    16
 O  H  Rav=0.9710 sigma=0.0000  Rmin=0.9710  Rmax=0.9710     4
 O  C  Rav=1.2729 sigma=0.0684  Rmin=1.2045  Rmax=1.3414     8
 Zn N  Rav=2.0581 sigma=0.0017  Rmin=2.0562  Rmax=2.0605     8

 selected bond angles (degree)
 --------------------
N21-Zn1-N7= 89.36              N28-Zn1-N7=179.61              N28-Zn1-N21= 90.47             N43-Zn1-N7= 90.83              
N43-Zn1-N21=179.28             N43-Zn1-N28= 89.34             C42-C2-C3=127.12               H44-C2-C3=116.44               
H44-C2-C42=116.44              C4-C3-C2=125.06                N7-C3-C2=125.71                N7-C3-C4=109.23                
C5-C4-C3=107.03                H45-C4-C3=124.81               H45-C4-C5=128.16               C6-C5-C4=107.17                
H46-C5-C4=127.66               H46-C5-C6=125.17               N7-C6-C5=109.03                C8-C6-C5=125.56                
C8-C6-N7=125.40                C3-N7-Zn1=125.30               C6-N7-Zn1=127.14               C6-N7-C3=107.54                
C9-C8-C6=117.11                C18-C8-C6=125.76               C18-C8-C9=117.13               C10-C9-C8=120.58               
C17-C9-C8=120.55               C17-C9-C10=118.88              C11-C10-C9=120.51              H47-C10-C9=120.42              
H47-C10-C11=119.06             

 selected dihedral angles (degree)
 ---------------------------------
C4-C3-C2-C42=178.74           C4-C3-C2-H44=358.63           N7-C3-C2-C42=358.68           N7-C3-C2-H44=178.57           
C5-C4-C3-C2=179.98            C5-C4-C3-N7=  0.03            H45-C4-C3-C2=359.59           H45-C4-C3-N7=179.65           
C6-C5-C4-C3=359.54            C6-C5-C4-H45=179.94           H46-C5-C4-C3=178.98           H46-C5-C4-H45=359.38          
N7-C6-C5-C4=  0.75            N7-C6-C5-H46=181.29           C8-C6-C5-C4=179.75            C8-C6-C5-H46=  0.29           
C3-N7-Zn1-N21=178.51          C3-N7-Zn1-N28=243.68          C3-N7-Zn1-N43=359.20          C6-N7-Zn1-N21=  0.62          
C6-N7-Zn1-N28= 65.79          C6-N7-Zn1-N43=181.31          Zn1-N7-C3-C2=  2.25           Zn1-N7-C3-C4=182.20           
C6-N7-C3-C2=180.49            C6-N7-C3-C4=  0.44            Zn1-N7-C6-C5=177.47           Zn1-N7-C6-C8=358.47           
C3-N7-C6-C5=359.28            C3-N7-C6-C8=180.27            C9-C8-C6-C5=  1.92            C9-C8-C6-N7=180.76            
[...]
    20   6 C    3.962 --    19 C    1.646    22 C    1.186    53 H    0.974
    21   7 N    3.297 --    22 C    1.263    18 C    1.226     1 Zn   0.455
    22   6 C    3.900 --    21 N    1.263    23 C    1.252    20 C    1.186
    23   6 C    3.940 --    24 C    1.253    22 C    1.252   125 C    1.194
    24   6 C    3.901 --    28 N    1.263    23 C    1.253    25 C    1.186
    25   6 C    3.962 --    26 C    1.646    24 C    1.186    54 H    0.974
    26   6 C    3.959 --    25 C    1.646    27 C    1.178    55 H    0.973
    27   6 C    3.913 --    29 C    1.323    28 N    1.226    26 C    1.178
    28   7 N    3.296 --    24 C    1.263    27 C    1.226     1 Zn   0.455
    29   6 C    3.932 --    27 C    1.323    39 C    1.314    30 C    1.027
    30   6 C    3.988 --    38 C    1.406    31 C    1.389    29 C    1.027
                            33 C    0.102
    31   6 C    3.987 --    32 C    1.440    30 C    1.389    56 H    0.973
    32   6 C    3.994 --    33 C    1.451    31 C    1.440    57 H    0.972
                            38 C    0.104
    33   6 C    3.986 --    32 C    1.451    34 C    1.387    58 H    0.969
                            30 C    0.102
    34   6 C    3.988 --    38 C    1.399    33 C    1.387    35 C    1.006
    35   6 C    3.835 --    37 O    1.692    36 O    1.089    34 C    1.006
    36   8 O    2.098 --    35 C    1.089    59 H    0.838    37 O    0.129
    37   8 O    1.960 --    35 C    1.692    36 O    0.129
    38   6 C    3.985 --    30 C    1.406    34 C    1.399    60 H    0.969
                            32 C    0.104
    39   6 C    3.919 --    29 C    1.314    43 N    1.245    40 C    1.171
    40   6 C    3.963 --    41 C    1.660    39 C    1.171    61 H    0.973
    41   6 C    3.960 --    40 C    1.660    42 C    1.170    62 H    0.975
    42   6 C    3.921 --     2 C    1.357    43 N    1.233    41 C    1.170
    43   7 N    3.294 --    39 C    1.245    42 C    1.233     1 Zn   0.459
    44   1 H    1.001 --     2 C    0.971
    45   1 H    0.998 --     4 C    0.975
    46   1 H    1.004 --     5 C    0.973
    47   1 H    1.007 --    10 C    0.968
    48   1 H    0.873 --    13 O    0.838
    49   1 H    1.005 --    15 C    0.971
    50   1 H    1.002 --    16 C    0.972
    51   1 H    1.005 --    17 C    0.973
    52   1 H    1.004 --    19 C    0.973
    53   1 H    1.002 --    20 C    0.974
    54   1 H    1.002 --    25 C    0.974
    55   1 H    1.004 --    26 C    0.973
    56   1 H    1.005 --    31 C    0.973
    57   1 H    1.002 --    32 C    0.972
    58   1 H    1.005 --    33 C    0.969
    59   1 H    0.873 --    36 O    0.838
    60   1 H    1.008 --    38 C    0.969
    61   1 H    1.004 --    40 C    0.973
    62   1 H    0.998 --    41 C    0.975
    63  30 Zn   1.994 --    69 N    0.460   105 N    0.460    83 N    0.455
                            90 N    0.454
    64   6 C    3.928 --    65 C    1.358   104 C    1.357   106 H    0.971
    65   6 C    3.921 --    64 C    1.358    69 N    1.233    66 C    1.169
    66   6 C    3.961 --    67 C    1.661    65 C    1.169   107 H    0.975
    67   6 C    3.963 --    66 C    1.661    68 C    1.170   108 H    0.973
    68   6 C    3.919 --    70 C    1.315    69 N    1.245    67 C    1.170
    69   7 N    3.294 --    68 C    1.245    65 C    1.233    63 Zn   0.460
    70   6 C    3.932 --    80 C    1.323    68 C    1.315    71 C    1.027
    71   6 C    3.988 --    72 C    1.408    79 C    1.387    70 C    1.027
                            77 C    0.102
    72   6 C    3.984 --    71 C    1.408    73 C    1.396   109 H    0.968
                            78 C    0.104
    73   6 C    3.988 --    72 C    1.396    77 C    1.391    74 C    1.006
    74   6 C    3.836 --    76 O    1.692    75 O    1.089    73 C    1.006
    75   8 O    2.098 --    74 C    1.089   110 H    0.838    76 O    0.129
    76   8 O    1.961 --    74 C    1.692    75 O    0.129
    77   6 C    3.987 --    78 C    1.448    73 C    1.391   111 H    0.971
                            71 C    0.102
    78   6 C    3.994 --    77 C    1.448    79 C    1.441   112 H    0.972
                            72 C    0.104
    79   6 C    3.987 --    78 C    1.441    71 C    1.387   113 H    0.973
    80   6 C    3.913 --    70 C    1.323    83 N    1.226    81 C    1.178
    81   6 C    3.959 --    82 C    1.646    80 C    1.178   114 H    0.973
    82   6 C    3.962 --    81 C    1.646    84 C    1.186   115 H    0.974
    83   7 N    3.297 --    84 C    1.263    80 C    1.226    63 Zn   0.455
    84   6 C    3.900 --    83 N    1.263    85 C    1.252    82 C    1.186
    85   6 C    3.940 --    86 C    1.253    84 C    1.252   132 C    1.194
    86   6 C    3.901 --    90 N    1.263    85 C    1.253    87 C    1.186
    87   6 C    3.962 --    88 C    1.646    86 C    1.186   116 H    0.974
    88   6 C    3.959 --    87 C    1.646    89 C    1.178   117 H    0.973
    89   6 C    3.914 --    91 C    1.324    90 N    1.226    88 C    1.178
    90   7 N    3.296 --    86 C    1.263    89 C    1.226    63 Zn   0.454
    91   6 C    3.932 --    89 C    1.324   101 C    1.314    92 C    1.027
    92   6 C    3.988 --   100 C    1.406    93 C    1.389    91 C    1.027
                            95 C    0.102
    93   6 C    3.987 --    94 C    1.440    92 C    1.389   118 H    0.973
    94   6 C    3.994 --    95 C    1.451    93 C    1.440   119 H    0.972
                           100 C    0.104
    95   6 C    3.986 --    94 C    1.451    96 C    1.387   120 H    0.969
                            92 C    0.102
    96   6 C    3.988 --   100 C    1.399    95 C    1.387    97 C    1.006
    97   6 C    3.835 --    99 O    1.692    98 O    1.089    96 C    1.006
    98   8 O    2.098 --    97 C    1.089   121 H    0.838    99 O    0.129
    99   8 O    1.960 --    97 C    1.692    98 O    0.129
   100   6 C    3.985 --    92 C    1.406    96 C    1.399   122 H    0.969
                            94 C    0.104
   101   6 C    3.919 --    91 C    1.314   105 N    1.245   102 C    1.171
   102   6 C    3.963 --   103 C    1.660   101 C    1.171   123 H    0.973
   103   6 C    3.960 --   102 C    1.660   104 C    1.170   124 H    0.975
   104   6 C    3.921 --    64 C    1.357   105 N    1.233   103 C    1.170
   105   7 N    3.294 --   101 C    1.245   104 C    1.233    63 Zn   0.460
   106   1 H    1.001 --    64 C    0.971
   107   1 H    0.998 --    66 C    0.975
   108   1 H    1.004 --    67 C    0.973
   109   1 H    1.007 --    72 C    0.968
   110   1 H    0.873 --    75 O    0.838
   111   1 H    1.005 --    77 C    0.971
   112   1 H    1.002 --    78 C    0.972
   113   1 H    1.005 --    79 C    0.973
   114   1 H    1.004 --    81 C    0.973
   115   1 H    1.002 --    82 C    0.974
   116   1 H    1.002 --    87 C    0.974
   117   1 H    1.004 --    88 C    0.973
   118   1 H    1.005 --    93 C    0.973
   119   1 H    1.002 --    94 C    0.972
   120   1 H    1.005 --    95 C    0.969
   121   1 H    0.873 --    98 O    0.838
   122   1 H    1.008 --   100 C    0.969
   123   1 H    1.004 --   102 C    0.973
   124   1 H    0.998 --   103 C    0.975
   125   6 C    3.877 --   126 C    2.437    23 C    1.194   128 C    0.186
   126   6 C    3.934 --   125 C    2.437   127 C    1.345
   127   6 C    3.893 --   128 C    2.335   126 C    1.345   130 C    0.182
   128   6 C    3.925 --   127 C    2.335   129 C    1.370   125 C    0.186
   129   6 C    3.925 --   130 C    2.335   128 C    1.370   132 C    0.186
   130   6 C    3.893 --   129 C    2.335   131 C    1.345   127 C    0.182
   131   6 C    3.934 --   132 C    2.437   130 C    1.345
   132   6 C    3.877 --   131 C    2.437    85 C    1.194   129 C    0.186
 ---------------------------------------------------------------------------

Topologies differ in total number of bonds
Writing topology from bond orders to xtbtopo.mol

 dipole moment from electron density (au)
     X       Y       Z   
   0.0025   0.2173  -1.2889  total (Debye):    3.322

           -------------------------------------------------
          |                Geometry Summary                 |
           -------------------------------------------------

      molecular mass/u    :     1321.9221070
   center of mass at/Å    :       22.4775716      -0.0027171       0.0061526
  moments of inertia/u·Å² :        0.2949872E+05   0.1172069E+06   0.1440964E+06
rotational constants/cm⁻¹ :        0.5714699E-03   0.1438280E-03   0.1169886E-03

 * 130 selected distances

     #   Z          #   Z                                           value/Å
     2   6 C        3   6 C                                       1.3895578
     3   6 C        4   6 C                                       1.4364102
     4   6 C        5   6 C                                       1.3561399
     5   6 C        6   6 C                                       1.4393876
     3   6 C        7   7 N                                       1.3654301
     6   6 C        7   7 N                                       1.3640041
     6   6 C        8   6 C                                       1.4000214
     9   6 C       10   6 C                                       1.3919619
    10   6 C       11   6 C                                       1.3943987
    12   6 C       13   8 O                                       1.3411855
    12   6 C       14   8 O                                       1.2045142
    11   6 C       15   6 C                                       1.3948742
    15   6 C       16   6 C                                       1.3859929
     9   6 C       17   6 C                                       1.3969632
    16   6 C       17   6 C                                       1.3877755
     8   6 C       18   6 C                                       1.3990094
    18   6 C       19   6 C                                       1.4369560
    19   6 C       20   6 C                                       1.3574474
    18   6 C       21   7 N                                       1.3692183
    20   6 C       22   6 C                                       1.4334676
    21   7 N       22   6 C                                       1.3597514
    22   6 C       23   6 C                                       1.4099467
    23   6 C       24   6 C                                       1.4095623
    24   6 C       25   6 C                                       1.4333718
    25   6 C       26   6 C                                       1.3575439
    26   6 C       27   6 C                                       1.4371055
    24   6 C       28   7 N                                       1.3598736
    27   6 C       28   7 N                                       1.3693034
    27   6 C       29   6 C                                       1.3991696
    30   6 C       31   6 C                                       1.3967865
    31   6 C       32   6 C                                       1.3879723
    32   6 C       33   6 C                                       1.3847687
    33   6 C       34   6 C                                       1.3958164
    35   6 C       36   8 O                                       1.3413680
    35   6 C       37   8 O                                       1.2045559
    30   6 C       38   6 C                                       1.3932675
    34   6 C       38   6 C                                       1.3935917
    29   6 C       39   6 C                                       1.4002484
    39   6 C       40   6 C                                       1.4394161 (max)
    40   6 C       41   6 C                                       1.3562867
     2   6 C       42   6 C                                       1.3896793
    41   6 C       42   6 C                                       1.4362729
    39   6 C       43   7 N                                       1.3639836
    42   6 C       43   7 N                                       1.3654605
     2   6 C       44   1 H                                       1.0856214
     4   6 C       45   1 H                                       1.0787030
     5   6 C       46   1 H                                       1.0782065
    10   6 C       47   1 H                                       1.0845219
    13   8 O       48   1 H                                       0.9709599 (min)
    15   6 C       49   1 H                                       1.0832061
    16   6 C       50   1 H                                       1.0841495
    17   6 C       51   1 H                                       1.0843436
    19   6 C       52   1 H                                       1.0781387
    20   6 C       53   1 H                                       1.0783617
    25   6 C       54   1 H                                       1.0784177
    26   6 C       55   1 H                                       1.0781859
    31   6 C       56   1 H                                       1.0843404
    32   6 C       57   1 H                                       1.0840539
    33   6 C       58   1 H                                       1.0841252
    36   8 O       59   1 H                                       0.9709677
    38   6 C       60   1 H                                       1.0836372
    40   6 C       61   1 H                                       1.0782486
    41   6 C       62   1 H                                       1.0787402
    64   6 C       65   6 C                                       1.3895490
    65   6 C       66   6 C                                       1.4364279
    66   6 C       67   6 C                                       1.3561466
    67   6 C       68   6 C                                       1.4394055
    65   6 C       69   7 N                                       1.3654056
    68   6 C       69   7 N                                       1.3639904
    68   6 C       70   6 C                                       1.4000145
    71   6 C       72   6 C                                       1.3919517
    72   6 C       73   6 C                                       1.3944324
    74   6 C       75   8 O                                       1.3412345
    74   6 C       76   8 O                                       1.2045096
    73   6 C       77   6 C                                       1.3948814
    77   6 C       78   6 C                                       1.3860050
    71   6 C       79   6 C                                       1.3970160
    78   6 C       79   6 C                                       1.3877718
    70   6 C       80   6 C                                       1.3990626
    80   6 C       81   6 C                                       1.4369680
    81   6 C       82   6 C                                       1.3574276
    80   6 C       83   7 N                                       1.3692532
    82   6 C       84   6 C                                       1.4334754
    83   7 N       84   6 C                                       1.3597663
    84   6 C       85   6 C                                       1.4099002
    85   6 C       86   6 C                                       1.4096225
    86   6 C       87   6 C                                       1.4333723
    87   6 C       88   6 C                                       1.3575721
    88   6 C       89   6 C                                       1.4370726
    86   6 C       90   7 N                                       1.3598092
    89   6 C       90   7 N                                       1.3693274
    89   6 C       91   6 C                                       1.3990974
    92   6 C       93   6 C                                       1.3967220
    93   6 C       94   6 C                                       1.3879861
    94   6 C       95   6 C                                       1.3847612
    95   6 C       96   6 C                                       1.3957920
    97   6 C       98   8 O                                       1.3414375
    97   6 C       99   8 O                                       1.2044947
    92   6 C      100   6 C                                       1.3932815
    96   6 C      100   6 C                                       1.3935570
    91   6 C      101   6 C                                       1.4002734
   101   6 C      102   6 C                                       1.4393958
   102   6 C      103   6 C                                       1.3562804
    64   6 C      104   6 C                                       1.3896890
   103   6 C      104   6 C                                       1.4362509
   101   6 C      105   7 N                                       1.3639992
   104   6 C      105   7 N                                       1.3654871
    64   6 C      106   1 H                                       1.0856211
    66   6 C      107   1 H                                       1.0787076
    67   6 C      108   1 H                                       1.0782132
    72   6 C      109   1 H                                       1.0845332
    75   8 O      110   1 H                                       0.9709636
    77   6 C      111   1 H                                       1.0831960
    78   6 C      112   1 H                                       1.0841592
    79   6 C      113   1 H                                       1.0843444
    81   6 C      114   1 H                                       1.0781329
    82   6 C      115   1 H                                       1.0783609
    87   6 C      116   1 H                                       1.0784149
    88   6 C      117   1 H                                       1.0781938
    93   6 C      118   1 H                                       1.0843377
    94   6 C      119   1 H                                       1.0840493
    95   6 C      120   1 H                                       1.0841267
    98   8 O      121   1 H                                       0.9709715
   100   6 C      122   1 H                                       1.0836242
   102   6 C      123   1 H                                       1.0782426
   103   6 C      124   1 H                                       1.0787355
   125   6 C      126   6 C                                       1.2248469
   127   6 C      128   6 C                                       1.2308211
   129   6 C      130   6 C                                       1.2308749
   131   6 C      132   6 C                                       1.2248223

 * 5 distinct bonds (by element types)

   Z      Z             #   av. dist./Å        max./Å        min./Å
   1 H    6 C          34     1.0814704     1.0856214     1.0781329
   6 C    6 C          68     1.3904955     1.4394161     1.2248223
   6 C    7 N          16     1.3646290     1.3693274     1.3597514
   1 H    8 O           4     0.9709657     0.9709715     0.9709599
   6 C    8 O           8     1.2729125     1.3414375     1.2044947


optimized geometry written to: xtbopt.xyz


           -------------------------------------------------
          | TOTAL ENERGY             -245.719785175400 Eh   |
          | GRADIENT NORM               0.000720138935 Eh/α |
          | HOMO-LUMO GAP               1.113663385207 eV   |
           -------------------------------------------------

------------------------------------------------------------------------
 * finished run on 2022/07/30 at 10:42:33.583     
------------------------------------------------------------------------
 total:
 * wall-time:     0 d,  0 h,  0 min, 36.899 sec
 *  cpu-time:     0 d,  0 h,  0 min, 32.366 sec
 * ratio c/w:     0.877 speedup
 SCF:
 * wall-time:     0 d,  0 h,  0 min,  1.509 sec
 *  cpu-time:     0 d,  0 h,  0 min,  1.489 sec
 * ratio c/w:     0.987 speedup
 ANC optimizer:
 * wall-time:     0 d,  0 h,  0 min, 32.871 sec
 *  cpu-time:     0 d,  0 h,  0 min, 30.747 sec
 * ratio c/w:     0.935 speedup

