165
 energy: -284.798521232764 gnorm: 0.519828315421 xtb: 6.5.1 (b24c23e)
Zn          26.45493200000000        0.01232800000000       -0.01095900000000
C           23.08889800000000       -0.10182300000000       -0.04289600000000
C           23.75183600000000       -1.26024900000000        0.01465700000000
C           23.10020099999999       -2.56317900000000        0.07346800000000
C           24.04005900000000       -3.48355100000000        0.18039400000000
C           25.34622100000000       -2.81077700000000        0.19434700000000
N           25.17006100000000       -1.39786300000000        0.08441200000000
C           26.53511600000000       -3.42870800000000        0.34788800000000
C           26.57089100000000       -4.89990100000000        0.49823300000000
C           26.77616400000000       -5.47636100000000        1.75877100000000
C           26.80483400000000       -6.86766300000000        1.87977000000000
N           26.63217200000000       -7.65149100000000        0.78204500000000
C           26.43023200000000       -7.11654000000000       -0.45171100000000
C           26.39689300000000       -5.72987000000000       -0.61747900000000
C           27.82935800000000       -2.69795800000000        0.38777800000000
C           29.11937400000000       -3.33565100000000        0.67724300000000
C           30.05400200000000       -2.41141000000000        0.59346400000000
N           27.97121400000000       -1.43379700000000        0.12863000000000
C           29.37037700000000       -1.17367900000000        0.24048800000000
C           29.96676300000000        0.00349000000000       -0.01177800000000
C           29.20889900000000        1.21935500000000       -0.38507800000000
C           29.75219400000000        2.29280800000000       -0.94494100000000
C           28.70952200000000        3.29238100000000       -1.06303600000000
C           27.59786600000000        2.76561000000000       -0.56400700000000
N           27.82261700000000        1.42855400000000       -0.11354200000000
C           26.31276000000000        3.49886400000000       -0.42709800000000
C           26.33560800000000        4.98150400000000       -0.47429300000000
C           25.67389500000000        5.67543700000000       -1.49783900000000
C           25.71810500000000        7.07134400000000       -1.52062800000000
N           26.40473900000000        7.74853000000000       -0.56187600000000
C           27.06394200000000        7.10064600000000        0.43465800000000
C           27.04504100000000        5.70531200000000        0.49511400000000
C           25.14586900000000        2.85008500000000       -0.24977800000000
C           23.83366200000000        3.46638000000000       -0.05991400000000
C           22.97142100000000        2.47285000000000        0.03389300000000
C           23.72381300000000        1.22490300000000       -0.08148400000000
N           24.99217600000000        1.43207100000000       -0.24696900000000
H           22.00574800000000       -0.12980500000000       -0.04309200000000
H           22.03581500000000       -2.75771600000000        0.04832000000000
H           23.85152300000000       -4.54653300000000        0.25798900000000
H           26.91256600000000       -4.85495000000000        2.63521500000000
H           26.96364800000000       -7.32480800000000        2.84723000000000
H           26.29505899999999       -7.76810200000000       -1.30463800000000
H           26.23545700000000       -5.30688000000000       -1.60121000000000
H           29.29746900000000       -4.37637300000000        0.91198000000000
H           31.11176000000000       -2.57453500000000        0.74750100000000
H           30.78537300000000        2.41791300000000       -1.23859800000000
H           28.82750600000000        4.29149400000000       -1.46081200000000
H           25.13325100000000        5.14076400000000       -2.26811000000000
H           25.20744600000000        7.61680900000000       -2.30295100000000
H           27.60219900000000        7.66889800000000        1.18179800000000
H           27.57053400000000        5.19421200000000        1.29235000000000
H           23.58913800000000        4.51872000000000        0.00091300000000
H           21.90430200000000        2.57736000000000        0.18013800000000
Zn          49.91731700000000       -0.00472900000000       -0.00842500000000
C           53.28335200000000        0.09520700000000       -0.07217000000000
C           52.62041399999999        1.22032600000000       -0.35389800000000
C           53.27204900000000        2.48407200000000       -0.67643500000000
C           52.33219100000000        3.39577400000000       -0.84171200000000
C           51.02602899999999        2.75611800000000       -0.63276300000000
N           51.20218800000000        1.37227500000000       -0.32716600000000
C           49.83713400000000        3.39199700000000       -0.66550900000000
C           49.80135800000000        4.84335000000000       -0.94938600000000
C           49.59608500000000        5.76139200000000        0.08910400000000
C           49.56741600000000        7.12777300000000       -0.19962500000000
N           49.74007799999999        7.55859500000000       -1.47781800000000
C           49.94201800000000        6.68805600000000       -2.50275100000000
C           49.97535700000000        5.31309100000000       -2.25820400000000
C           48.54289200000000        2.70441000000000       -0.41488700000000
C           47.25287600000000        3.39871400000000       -0.32332700000000
C           46.31824699999999        2.49003900000000       -0.13477700000000
N           48.40103499999999        1.41951300000000       -0.29530500000000
C           47.00187300000000        1.20315200000000       -0.11265400000000
C           46.40548600000000        0.00349000000000       -0.01177800000000
C           47.16335000000000       -1.26838600000000       -0.01545800000000
C           46.62005599999999       -2.45824200000000       -0.23904600000000
C           47.66272800000000       -3.44897100000000       -0.06142900000000
C           48.77438300000000       -2.79986900000000        0.26289300000000
N           48.54963299999999       -1.38960300000000        0.30517000000000
C           50.05949000000000       -3.46164500000000        0.60707000000000
C           50.03664199999999       -4.89396200000000        0.99297000000000
C           50.69835499999999       -5.85550000000000        0.21538800000000
C           50.65414500000000       -7.19773400000000        0.59942300000000
N           49.96750999999999       -7.56692500000000        1.71364200000000
C           49.30830800000000       -6.65730000000000        2.47876700000000
C           49.32720900000000       -5.30466200000000        2.13093900000000
C           51.22638100000000       -2.78933700000000        0.58810800000000
C           52.53858700000000       -3.32381100000000        0.94895000000000
C           53.40082799999999       -2.34592400000000        0.74985000000000
C           52.64843600000000       -1.18542900000000        0.27663500000000
N           51.38007300000000       -1.43176100000000        0.17852900000000
H           54.36650200000000        0.12192300000000       -0.08049200000000
H           54.33643500000000        2.66289400000000       -0.75705600000000
H           52.52072700000000        4.43539900000000       -1.07651600000000
H           49.45968400000000        5.42163600000000        1.10835500000000
H           49.40860199999999        7.84644600000000        0.59313700000000
H           50.07719000000000        7.06349700000000       -3.50826700000000
H           50.13679200000000        4.62236600000000       -3.07646400000000
H           47.07478100000000        4.46272700000000       -0.40130300000000
H           45.26048899999999        2.69090200000000       -0.03481900000000
H           45.58687700000000       -2.66331900000000       -0.48364600000000
H           47.54474300000000       -4.52057300000000       -0.15154500000000
H           51.23899800000000       -5.56786800000000       -0.67705800000000
H           51.16480400000000       -7.94708600000000        0.00947900000000
H           48.77005100000000       -6.98378500000000        3.35884400000000
H           48.80171500000000       -4.58385500000000        2.74514200000000
H           52.78311200000000       -4.31300900000000        1.31310100000000
H           54.46794800000000       -2.40340100000000        0.92016200000000
C           32.18213200000000        0.00349000000000       -0.01177800000000
C           33.40405000000000        0.00349000000000       -0.01177800000000
C           42.96820000000000        0.00349000000000       -0.01177800000000
C           44.19011700000000        0.00349000000000       -0.01177800000000
Zn          38.11196400000000        0.02718600000000       -0.04496300000000
C           34.74432100000000       -0.00737500000000        0.02489000000000
C           35.39964200000000       -0.80566800000000        0.88760600000000
C           34.75876500000000       -1.62728100000000        1.91636200000000
C           35.69507800000000       -2.31163400000000        2.54295900000000
C           36.99232899999999       -1.97203200000000        1.94941200000000
N           36.81455200000000       -1.01072200000000        0.90598200000000
C           38.17672099999999       -2.49974700000000        2.32608200000000
C           38.21278500000000       -3.53614900000000        3.38415100000000
C           37.68520500000000       -4.81385800000000        3.14746600000000
C           37.74476300000000       -5.77842700000000        4.15603700000000
N           38.31531300000000       -5.47908700000000        5.35344000000000
C           38.83945500000000       -4.25016800000000        5.60629900000000
C           38.79983399999999       -3.25600300000000        4.62581900000000
C           39.47335700000000       -2.08567600000000        1.73173100000000
C           40.74148100000000       -2.78884700000000        1.96439300000000
C           41.69351400000000       -2.11987200000000        1.34600500000000
N           39.64120600000000       -1.03165700000000        0.99529000000000
C           41.03892800000000       -0.98508900000000        0.70809600000000
C           41.65389000000000       -0.00737500000000        0.02489000000000
C           40.90282900000000        1.09288800000000       -0.61475300000000
C           41.43532399999999        2.25031200000000       -0.98522700000000
C           40.40321600000000        2.99335100000000       -1.68352700000000
C           39.31220199999999        2.23605400000000       -1.69527200000000
N           39.53765899999999        1.00050300000000       -1.01892400000000
C           38.05948900000000        2.57698000000000       -2.41167000000000
C           38.12245599999999        3.56607000000000       -3.51596900000000
C           38.92944200000000        3.32090100000000       -4.63622800000000
C           38.99390500000000        4.27075900000000       -5.65841200000000
N           38.28365000000000        5.42612200000000       -5.56202400000000
C           37.49984199999999        5.69323400000000       -4.48367200000000
C           37.40743100000000        4.77090100000000       -3.43875800000000
C           36.88817900000000        1.99354100000000       -2.09147600000000
C           35.61326100000000        2.19432500000000       -2.77280700000000
C           34.72553500000000        1.48587600000000       -2.10514700000000
C           35.42242200000000        0.82232000000000       -0.99778900000000
N           36.68650200000000        1.11206000000000       -0.98640700000000
H           33.70409100000000       -1.68295700000000        2.15037700000000
H           35.50847600000000       -2.99587000000000        3.36031000000000
H           37.23537800000000       -5.05826100000000        2.19304900000000
H           37.33893700000000       -6.76664400000000        3.98579800000000
H           39.28812700000000       -4.04471100000000        6.56883200000000
H           39.22000100000000       -2.27895400000000        4.83082100000000
H           40.89090099999999       -3.69353500000000        2.53894900000000
H           42.74237200000000       -2.38491000000000        1.33416200000000
H           42.45709600000000        2.57102800000000       -0.83177500000000
H           40.51759799999999        3.96580200000000       -2.14471700000000
H           39.49864100000000        2.40297200000000       -4.71761300000000
H           39.61024500000000        4.08953500000000       -6.52876700000000
H           36.95032200000000        6.62384400000000       -4.43559700000000
H           36.78979200000000        4.99376000000000       -2.57738000000000
H           35.40960400000000        2.78918800000000       -3.65341500000000
H           33.67580400000000        1.41458700000000       -2.35608700000000
165
 energy: -284.961520102593 gnorm: 0.304774372130 xtb: 6.5.1 (b24c23e)
Zn          26.45786693678611        0.00920776203776       -0.01336159427695
C           23.08796932739228       -0.08217241880057       -0.04339979080450
C           23.75572499792008       -1.26049574166642        0.01528433589914
C           23.10062818239345       -2.55597691062271        0.07321929741274
C           24.05258305051503       -3.48589254892320        0.18121327968469
C           25.34670493640892       -2.80499892866759        0.19311391592360
N           25.14577269845011       -1.42141085642011        0.08310195085272
C           26.55579136800878       -3.42050862982351        0.34822924162270
C           26.57887671383008       -4.89718054966071        0.49815356549304
C           26.77818165885145       -5.47888124510608        1.75157386747584
C           26.80143362626946       -6.86479076760320        1.85904353376979
N           26.63221239240822       -7.65154502224909        0.78203912229630
C           26.43269593841535       -7.10871529627131       -0.43164603391404
C           26.39750361047842       -5.72986488088739       -0.60897977479014
C           27.82880455000102       -2.71336052548607        0.38999153128001
C           29.10775674323921       -3.34948020827555        0.67740951778451
C           30.05714046521435       -2.40759254535267        0.59168680891442
N           27.99969762517460       -1.42924882312634        0.13613359738628
C           29.39881731501127       -1.16645116337737        0.23916554500117
C           30.00328932127087        0.02124825717109       -0.02105948637340
C           29.22411315084134        1.20976043517263       -0.36976135465273
C           29.76261469982507        2.32108290789652       -0.95225806198940
C           28.73837566935159        3.29560405995096       -1.06463917183322
C           27.59567819406359        2.75114484994919       -0.54935261477403
N           27.84324007461170        1.42794111527968       -0.12099560323902
C           26.33152332283185        3.48377623815270       -0.42487133559430
C           26.34818849224756        4.97166784687913       -0.47942306698895
C           25.67845360796168        5.67321465039838       -1.48930918169648
C           25.72955721873816        7.06384989110175       -1.50251651784258
N           26.40462405532561        7.74736440661938       -0.56211290760305
C           27.05124633882555        7.09331197342900        0.41807263148219
C           27.04375242360057        5.70409831813015        0.48737864803971
C           25.14504439074357        2.84794829178591       -0.24812151250916
C           23.84079035622270        3.46409141428685       -0.06203616894023
C           22.95764241325711        2.46078655393290        0.03401906447023
C           23.69992354394354        1.21734609618742       -0.08130141034732
N           24.98635665969431        1.44549247304552       -0.23932602971822
H           22.00517209063734       -0.11978860646710       -0.04266357096708
H           22.03635930100000       -2.74516013722385        0.04699485950582
H           23.86864693639322       -4.54811883473653        0.25836809761910
H           26.91219086134178       -4.85726866600251        2.63125756162060
H           26.96055782368079       -7.32928114877402        2.83031693694853
H           26.29799968867997       -7.76833801835437       -1.28701664083693
H           26.23677714020800       -5.30768343948277       -1.59617811842309
H           29.28400039412828       -4.38584991884099        0.91242624208524
H           31.11354597632039       -2.56281328727024        0.74534022797552
H           30.79118598626402        2.43132222908128       -1.24574111802986
H           28.83760546843193        4.29191403245225       -1.46497451036776
H           25.13615656028495        5.14110927517331       -2.26423399523544
H           25.21776177038925        7.61785707502980       -2.28799919895995
H           27.59180609347791        7.67003716059031        1.16690397845502
H           27.56896833150833        5.19508169269712        1.28887350233040
H           23.60433313259636        4.51731405438056       -0.00124950920041
H           21.89586729708773        2.56689105197350        0.18050406895477
Zn          49.91449561835602       -0.00246633008986       -0.01167100834908
C           53.28425709246595        0.07627977175588       -0.06693971719396
C           52.61654180502327        1.22074826665556       -0.35337010176347
C           53.27162161620357        2.47712057706049       -0.67457326557598
C           52.31966189140017        3.39823521780038       -0.84160713713807
C           51.02553592169237        2.75017962953929       -0.63224148881682
N           51.22644730744445        1.39444568960745       -0.33525384845456
C           49.81636702231233        3.38424421301379       -0.66274616685310
C           49.79333303087601        4.84076192678347       -0.94867440725757
C           49.59406928849979        5.76170518205999        0.08150338501527
C           49.57081737711423        7.11900672947117       -0.21862281669520
N           49.74008290767821        7.55860314702751       -1.47781936744021
C           49.93953889631998        6.68640903060817       -2.48127656405950
C           49.97474243223387        5.31554078891014       -2.25007327789907
C           48.54349455994524        2.71982682367961       -0.41727289916970
C           47.26438560482344        3.41200564979177       -0.32724740257705
C           46.31503935810244        2.48603745091494       -0.13533949326418
N           48.37267951865967        1.41727506853976       -0.28696621996847
C           46.97355948638201        1.19601120457678       -0.11202843642856
C           46.37053605133060       -0.01629621150943       -0.01565205995639
C           47.14819775820947       -1.25509524109067       -0.00354180350862
C           46.60956607709227       -2.48761328361811       -0.23781557257697
C           47.63386205671474       -3.45256649927110       -0.06196619384282
C           48.77654700506909       -2.78177888809064        0.27270231039457
N           48.52902495533685       -1.39119504049708        0.29816783794504
C           50.04075784006502       -3.44657415423840        0.60478713193896
C           50.02404642754558       -4.88606962312979        0.98520334470701
C           50.69380707455614       -5.85088613720682        0.22289815747579
C           50.64268969575272       -7.18530080580160        0.61457649292552
N           49.96763175136647       -7.56583737801332        1.71307164171478
C           49.32100275197139       -6.65511700161792        2.46077736884685
C           49.32847932524690       -5.30574546060563        2.12318658406646
C           51.22719035730640       -2.78680816038641        0.58907883968563
C           52.53146978967172       -3.32223566894461        0.94626084545588
C           53.41459423580473       -2.33436509378446        0.74646861652984
C           52.67229720067132       -1.17815742884557        0.27461342247052
N           51.38587278235731       -1.44235663443126        0.18975655625559
H           54.36705477630230        0.11246840690512       -0.07717151731134
H           54.33588042762200        2.65049999292877       -0.75467074591285
H           52.50358356973620        4.43700669340892       -1.07660708981296
H           49.46005381769570        5.42269916674740        1.10390796637820
H           49.41168812310814        7.84580133248570        0.57565209745021
H           50.07424348295051        7.06883940135036       -3.49146406390211
H           50.13545953257250        4.62458893393051       -3.07188435791795
H           47.08819215223386        4.47189886215809       -0.40365667027233
H           45.25866119148186        2.67915023059267       -0.03351721609999
H           45.58102621525780       -2.67829793500561       -0.48655690001015
H           47.53464618361861       -4.52218965828040       -0.15539687721663
H           51.23609058778438       -5.56706584548338       -0.67325717689266
H           51.15448565176360       -7.94373428416868        0.02409388392358
H           48.78044254154576       -6.98920604692186        3.34492313997123
H           48.80328000428893       -4.58569395575918        2.74208120688996
H           52.76791659589127       -4.31228520953688        1.31062138109140
H           54.47636402357863       -2.39327848200636        0.91747134155759
C           32.08982806014367        0.00281287082442       -0.00934344735054
C           33.32148807488305        0.00858718605061       -0.01587120218159
C           43.04919493072664        0.01625815874914       -0.01889440144305
C           44.28242910204506        0.00496776730871       -0.01450956404375
Zn          38.11418047795664        0.02506801727170       -0.04046723131940
C           34.72568689615679       -0.00145341471138        0.00468246601984
C           35.40019203433352       -0.80767419566183        0.88950709934285
C           34.75716025610287       -1.62098019088546        1.90892799316799
C           35.70660485141623       -2.31398511557251        2.54329272595050
C           36.99056342912736       -1.96843827735381        1.94574486237346
N           36.78709328023825       -1.01946055425015        0.92871301356014
C           38.19290157523136       -2.49895110276859        2.32101784647327
C           38.22016701789284       -3.53671911028641        3.38002612243688
C           37.68725970760264       -4.80896200649862        3.15374948183224
C           37.75337631423385       -5.76085551209719        4.16497176144059
N           38.31530185013197       -5.47924113074212        5.35357728462991
C           38.82959050974788       -4.25961338953792        5.58988222961635
C           38.79927763905543       -3.26285759698684        4.62133794144821
C           39.46738853517709       -2.10112162754735        1.74937226077336
C           40.72596594812880       -2.79998527599064        1.97828857621701
C           41.68860964814748       -2.11557495307090        1.34499938399385
N           39.65477867096266       -1.04276200174199        0.98897188368234
C           41.03582915841551       -0.99125094892563        0.70969529625071
C           41.65608735362751        0.00676109219318        0.01710670529824
C           40.89433196332750        1.08276815209725       -0.62152402849875
C           41.43941244415461        2.27381104341675       -1.00244837171263
C           40.43004555200843        2.99902760468644       -1.68663104831049
C           39.30764043736075        2.22000181790452       -1.69903420066058
N           39.54465755873015        1.01269683438743       -1.01423239697130
C           38.07545620952665        2.56752691191035       -2.40327938170976
C           38.13310704589193        3.56471790919465       -3.50526865552562
C           38.92769552964894        3.32643996458802       -4.63058448196025
C           38.97987902292532        4.27834239287556       -5.64325177847113
N           38.28353707127508        5.42544191657155       -5.56126063046260
C           37.51232044878429        5.67504890220568       -4.48881588985884
C           37.41217451415547        4.76349021453359       -3.44232312396264
C           36.88630581295611        1.99202593183213       -2.09133877535156
C           35.61946627728603        2.19460280827675       -2.76906028067206
C           34.71001287058840        1.47767694923362       -2.09534967701545
C           35.39712745986782        0.81987913454626       -0.99518733251460
N           36.67993379509463        1.11387543750485       -1.00273616548548
H           33.70241085514911       -1.67260057912539        2.13828088340543
H           35.52472694548727       -2.99828633380461        3.35973852386514
H           37.23771934947676       -5.05613097598821        2.19697069328200
H           37.34723403049725       -6.75686740189523        3.99811729118461
H           39.27980975409789       -4.05759804861137        6.55996011465313
H           39.21825745570981       -2.28314051580572        4.82913487523642
H           40.87772684212230       -3.70117589447940        2.54709273798400
H           42.73892390383741       -2.37300653289048        1.32619583383678
H           42.45828541037663        2.58314618307374       -0.83525770494668
H           40.52788544033285        3.97097160557544       -2.14180533890888
H           39.49662431836877        2.40630732430300       -4.71625528169371
H           39.59877891013677        4.10119156977888       -6.52119753122533
H           36.96177485584094        6.61355617865708       -4.44523774069453
H           36.79311475965947        4.99101265849357       -2.58012144361007
H           35.42401024197476        2.78999693120124       -3.64995249361833
H           33.66564492027588        1.40636029470228       -2.34666562670328
165
 energy: -285.075591117837 gnorm: 0.131088155212 xtb: 6.5.1 (b24c23e)
Zn          26.46806726615975        0.00900994973631       -0.01449382722250
C           23.09186713159820       -0.06160976779336       -0.04382795680010
C           23.76221832345741       -1.26533162115011        0.01472588940726
C           23.10248013060860       -2.54970685888200        0.07331815772721
C           24.06550238062773       -3.48721222430842        0.18179753920756
C           25.34366903963014       -2.79661397283051        0.19037575966683
N           25.11786305236019       -1.44841211601169        0.08295411629195
C           26.58147890814325       -3.40413044238502        0.34775196231608
C           26.58653039977649       -4.88906093364968        0.49797574441463
C           26.78048853962640       -5.47907238855801        1.74584923860467
C           26.79819273997872       -6.86206825696028        1.84018723730852
N           26.63247140838659       -7.65270161747780        0.78216006395470
C           26.43477739090685       -7.10072150326081       -0.41308669157255
C           26.39877854403762       -5.72718862062570       -0.60195457706005
C           27.83028019289761       -2.72514698909345        0.39153841744809
C           29.09812761321545       -3.35799936509966        0.67542073782382
C           30.05990450628422       -2.40739135145244        0.58876027354027
N           28.03862163777822       -1.41525031765926        0.14333419962252
C           29.43391329320320       -1.16414243137976        0.24057296365647
C           30.07464084450249        0.03588350841408       -0.03200716746300
C           29.25726381806167        1.19534369671999       -0.35457037348717
C           29.77442045432386        2.35589460252813       -0.95545981835823
C           28.77497812237023        3.29405148493010       -1.06098389248205
C           27.59893991407356        2.73154319766315       -0.53287868303033
N           27.88294867723470        1.42869720260578       -0.13240046250438
C           26.36053175063545        3.45991638730843       -0.42336838365778
C           26.36394412565875        4.95561444307064       -0.48636367218389
C           25.68433717102548        5.66720984164231       -1.48243140450918
C           25.73970955126405        7.05466143966911       -1.48507980940605
N           26.40487532405136        7.74652988468991       -0.56248997654051
C           27.03998483853368        7.08552546001498        0.40273421989362
C           27.04487058931508        5.70030070970361        0.47974475242827
C           25.14286989476870        2.83931874248632       -0.24369932111026
C           23.84945744802152        3.45775479733167       -0.06495243273309
C           22.94858482437743        2.45051154350499        0.03115760149262
C           23.67493929861322        1.20872409866151       -0.08019655025142
N           24.98538243178773        1.46179610428401       -0.22932581208451
H           22.00772872672865       -0.11318449348625       -0.04003376376581
H           22.03814985032824       -2.73224569249265        0.04581301862534
H           23.88723435128762       -4.54894293388158        0.25862270927939
H           26.91286855604754       -4.85940624887804        2.62785710860073
H           26.95707951750128       -7.33368600958837        2.81339688430318
H           26.30042973992225       -7.76774422037897       -1.26908960777697
H           26.23818800757420       -5.30804173566494       -1.59135134276061
H           29.27150111135127       -4.39258664377577        0.91234251079901
H           31.11620023128781       -2.55468136410347        0.74363057319875
H           30.80097061910009        2.44564031884325       -1.25342558792526
H           28.84522808792806        4.29020036332460       -1.46738850345900
H           25.13926400104041        5.14059878089534       -2.26060857435524
H           25.22764806431493        7.61680540481091       -2.27201410228979
H           27.58056168808311        7.67031457684437        1.15243990392224