242
 energy: -439.852294949077 gnorm: 0.794742573743 xtb: 6.5.1 (b24c23e)
Ni          48.32331199999999       -0.38620500000000       -0.26172200000000
C           44.93760600000000       -0.24388200000000       -0.21384600000000
C           45.60310199999999        0.54592100000000        0.63367500000000
C           44.95549600000000        1.43145000000000        1.59440900000000
C           45.90000799999999        2.07942400000000        2.25109700000000
C           47.20452999999999        1.64086100000000        1.73570900000000
N           47.02288500000000        0.66334400000000        0.71105100000000
C           48.39790200000000        2.11429000000000        2.14197800000000
C           48.43931500000000        3.12816700000000        3.17218600000000
C           48.47634400000000        3.97338500000000        4.03092700000000
C           48.52125300000000        4.98169700000000        5.05570800000000
C           49.72684599999999        5.62685700000000        5.35498600000000
C           49.74869700000000        6.60343600000000        6.35433300000000
N           48.60765199999999        6.91865000000000        7.02518600000000
C           47.42514100000000        6.30412900000000        6.75072100000000
C           47.35971400000000        5.32211900000000        5.75866000000000
C           49.69280300000000        1.65936200000000        1.57620500000000
C           50.98411800000000        2.27907300000000        1.89712700000000
C           51.92046800000000        1.61701000000000        1.24917300000000
N           49.83321800000000        0.65545700000000        0.76473100000000
C           51.23503200000000        0.56393100000000        0.50880900000000
C           51.83106400000000       -0.37415900000000       -0.24668000000000
C           51.07407599999999       -1.42140100000000       -0.97283200000000
C           51.62695800000000       -2.50227700000000       -1.50956700000000
C           50.58051100000000       -3.22449200000000       -2.20470300000000
C           49.45393500000000       -2.53861800000000       -2.04739700000000
N           49.67568299999999       -1.36599900000000       -1.26038600000000
C           48.15646900000000       -2.90970200000000       -2.66655100000000
C           48.14977199999999       -3.91991800000000       -3.70278000000000
C           48.14463500000000       -4.76165400000000       -4.56580700000000
C           48.13833700000000       -5.76599600000000       -5.59550700000000
C           49.33141400000000       -6.39023100000000       -5.97614300000000
C           49.30354700000000       -7.36284800000000       -6.97924400000000
N           48.12662700000000       -7.69476300000000       -7.57505200000000
C           46.95527800000000       -7.10103400000000       -7.22058800000000
C           46.93914200000000       -6.12342800000000       -6.22199600000000
C           46.99340599999999       -2.34713000000000       -2.29540100000000
C           45.67371300000000       -2.66362500000000       -2.83953400000000
C           44.81156599999999       -1.93588600000000       -2.15640900000000
C           45.57102399999999       -1.15263400000000       -1.18280700000000
N           46.84399300000000       -1.38522200000000       -1.25371300000000
H           43.85416200000000       -0.22030000000000       -0.19477600000000
H           43.89114700000000        1.55030400000000        1.75183600000000
H           45.71761200000000        2.81115700000000        3.02772200000000
H           50.63757800000000        5.37801100000000        4.82250200000000
H           50.67324600000000        7.11084700000000        6.59670200000000
H           46.53547099999999        6.57788900000000        7.30261400000000
H           46.41618299999999        4.83474400000000        5.54233500000000
H           51.15879000000000        3.12719800000000        2.54629800000000
H           52.97967499999999        1.83401300000000        1.28520900000000
H           52.66877300000000       -2.78938600000000       -1.46379700000000
H           50.70619600000000       -4.14074800000000       -2.76702400000000
H           50.27053800000000       -6.12833700000000       -5.50351100000000
H           50.21809099999999       -7.85398400000000       -7.28405800000000
H           46.03610200000000       -7.38774300000000       -7.71390200000000
H           46.00428600000000       -5.65255800000000       -5.94216700000000
H           45.42639400000000       -3.35734200000000       -3.63283300000000
H           43.73886499999999       -1.93246600000000       -2.29861200000000
Ni          88.99654099999999       -0.35506700000000       -0.24406500000000
C           92.38224700000001       -0.46921600000000       -0.34162500000000
C           91.71675200000000       -1.60199000000000       -0.58432600000000
C           92.36435700000000       -2.88106200000000       -0.85105800000000
C           91.41984500000000       -3.77725900000000       -1.07001300000000
C           90.11532300000000       -3.10982600000000       -0.95823000000000
N           90.29696799999999       -1.72867200000000       -0.64537400000000
C           88.92195100000001       -3.70151500000000       -1.15595100000000
C           88.88053800000000       -5.10609600000000       -1.49716300000000
C           88.84350900000000       -6.27694700000000       -1.78166000000000
C           88.79859999999998       -7.67401500000000       -2.12088200000000
C           87.59300700000000       -8.26204700000000       -2.52090200000000
C           87.57115599999999       -9.62099800000000       -2.84594800000000
N           88.71220200000000      -10.35852500000000       -2.77206500000000
C           89.89471199999998       -9.80751400000000       -2.38560000000000
C           89.96014000000000       -8.45202800000000       -2.05215300000000
C           87.62704999999998       -2.98244200000000       -1.05599200000000
C           86.33573499999999       -3.57598400000000       -1.42306100000000
C           85.39938499999998       -2.68005000000000       -1.18753200000000
N           87.48663500000001       -1.77069000000000       -0.61104700000000
C           86.08482200000000       -1.50407900000000       -0.66388400000000
C           85.48878900000000       -0.37415900000000       -0.24668000000000
C           86.24577700000000        0.78661800000000        0.27925400000000
C           85.69289499999999        1.80210900000000        0.93129300000000
C           86.73934199999998        2.76941400000000        1.19422000000000
C           87.86591900000001        2.28231600000000        0.68637800000000
N           87.64417000000000        1.00494700000000        0.08409100000000
C           89.16338399999998        3.00415800000000        0.68698100000000
C           89.17008100000000        4.41202800000000        1.02196000000000
C           89.17521799999999        5.58476800000000        1.30126900000000
C           89.18151599999999        6.98401900000000        1.63455800000000
C           87.98844000000000        7.63112900000000        1.97485600000000
C           88.01630600000000        8.99126700000000        2.29457400000000
N           89.19322699999999        9.67296500000000        2.27354900000000
C           90.36457600000000        9.06397600000000        1.94599600000000
C           90.38071100000001        7.70514600000000        1.61968100000000
C           90.32644800000000        2.39684400000000        0.39473200000000
C           91.64613999999999        3.02628100000000        0.38700300000000
C           92.50828700000000        2.06644800000000        0.11316700000000
C           91.74883000000000        0.82883700000000       -0.05918700000000
N           90.47585999999998        1.00908900000000        0.10401300000000
H           93.46569100000001       -0.49768800000000       -0.35207200000000
H           93.42870600000001       -3.07717700000000       -0.87223800000000
H           91.60224099999999       -4.81938000000000       -1.29927600000000
H           86.68227600000000       -7.67733700000000       -2.58070600000000
H           86.64660700000000      -10.08947800000000       -3.15697100000000
H           90.78438199999999      -10.42167100000000       -2.33721200000000
H           90.90367000000001       -8.01618400000000       -1.74495500000000
H           86.16106299999998       -4.56848000000000       -1.81763800000000
H           84.34017799999999       -2.82237600000000       -1.35525800000000
H           84.65107999999998        1.91022200000000        1.20117800000000
H           86.61365699999999        3.72235300000000        1.69185200000000
H           87.04931500000001        7.09108300000000        1.99273700000000
H           87.10176199999998        9.50498000000000        2.55957300000000
H           91.28375099999998        9.63451000000000        1.93879300000000
H           91.31556700000000        7.22327800000000        1.35924700000000
H           91.89345899999998        4.06319600000000        0.57508100000000
H           93.58098800000000        2.18672700000000        0.03723100000000
C           54.99138200000000       -0.36172300000000       -0.24423900000000
C           53.73911100000000       -0.38090400000000       -0.24858700000000
C           56.30505000000000       -0.36248900000000       -0.24230600000000
C           57.80818299999999       -0.38090400000000       -0.24858700000000
C           67.92266399999998       -0.36172300000000       -0.24423900000000
C           66.67039300000000       -0.38090400000000       -0.24858700000000
C           69.23633199999999       -0.36248900000000       -0.24230600000000
C           70.73946599999999       -0.38090400000000       -0.24858700000000
C           80.85394599999999       -0.36172300000000       -0.24423900000000
C           79.60167600000000       -0.38090400000000       -0.24858700000000
C           82.16761400000000       -0.36248900000000       -0.24230600000000
C           83.67074800000000       -0.38090400000000       -0.24858700000000
Ni          62.26134200000000        0.29374300000000        0.27604100000000
C           58.77972999999999        0.42081900000000        0.27717500000000
C           59.43487499999999        0.97100200000000       -0.75879100000000
C           58.78177800000000        1.53134800000000       -1.93903600000000
C           59.70947500000000        1.80168700000000       -2.83125300000000
C           61.01673099999999        1.48648500000000       -2.25039100000000
N           60.85159899999999        0.94585900000000       -0.94249900000000
C           62.19644100000000        1.67309700000000       -2.87135500000000
C           62.20332899999999        2.07047300000000       -4.26055500000000
C           62.19814199999999        2.35650600000000       -5.43369200000000
C           62.17963200000000        2.65938900000000       -6.83760400000000
C           63.12416600000000        2.08328100000000       -7.69207900000000
C           63.07612499999999        2.37357900000000       -9.05839100000000
N           62.11372100000000        3.20244000000000       -9.54544100000000
C           61.17778800000000        3.76278800000000       -8.73242600000000
C           61.19477400000000        3.50540700000000       -7.35975200000000
C           63.50830600000000        1.46692400000000       -2.21225300000000
C           64.77989300000000        1.95171400000000       -2.75670200000000
C           65.73113100000000        1.62751800000000       -1.90420200000000
N           63.67446300000000        0.86693200000000       -1.07911800000000
C           65.07410000000000        0.92451500000000       -0.81226800000000
C           65.67952500000000        0.42081900000000        0.27717500000000
C           64.95294300000000       -0.34800100000000        1.31405300000000
C           65.54319200000000       -0.98631000000000        2.32126500000000
C           64.51750600000000       -1.71985900000000        3.03816800000000
C           63.36483100000000       -1.47991500000000        2.42495600000000
N           63.54859199999999       -0.60000300000000        1.31291400000000
C           62.06608899999999       -2.07374700000000        2.83103000000000
C           62.08689600000000       -3.27164000000000        3.63910200000000
C           62.12056600000000       -4.30942700000000        4.25191500000000
C           62.18448200000000       -5.58611200000000        4.90670300000000
C           61.01487300000000       -6.21979200000000        5.33362400000000
C           61.08113800000000       -7.54342700000000        5.77107400000000
N           62.27357200000000       -8.19526200000000        5.79715400000000
C           63.42753999999999       -7.58779200000000        5.42470400000000
C           63.40495300000000       -6.27002700000000        4.97507400000000
C           60.88581400000000       -1.58432700000000        2.41572200000000
C           59.57135199999999       -2.06885800000000        2.82667200000000
C           58.69038599999999       -1.34710600000000        2.16307800000000
C           59.43073500000000       -0.41372100000000        1.30826400000000
N           60.71549900000000       -0.54653300000000        1.45095000000000
H           57.72814300000000        1.69519500000000       -2.08422900000000
H           59.52232600000000        2.23531400000000       -3.79621000000000
H           63.88616699999999        1.41669600000000       -7.31042100000000
H           63.80830000000000        1.94580600000000       -9.72715800000000
H           60.42235900000000        4.41032000000000       -9.15265200000000
H           60.44180099999999        3.94643300000000       -6.72055800000000
H           64.92907700000001        2.49104400000000       -3.68066400000000
H           66.78002499999999        1.84861900000000       -2.02638700000000
H           66.60011000000000       -1.00702900000000        2.55181900000000
H           64.67409600000001       -2.36017500000000        3.90333200000000
H           60.05537100000000       -5.71332200000000        5.26708500000000
H           60.17833300000000       -8.06362800000000        6.05826100000000
H           64.35651000000000       -8.13621800000000        5.44313700000000
H           64.31904800000000       -5.80599100000000        4.62915400000000
H           59.33674500000000       -2.85614800000000        3.53205900000000
H           57.61494900000000       -1.45356000000000        2.24110900000000
Ni          75.19262500000001        0.29374300000000        0.27604100000000
C           71.71101200000000        0.42081900000000        0.27717500000000
C           72.36615800000000        0.97100200000000       -0.75879100000000
C           71.71306100000000        1.53134800000000       -1.93903600000000
C           72.64075800000001        1.80168700000000       -2.83125300000000
C           73.94801400000000        1.48648500000000       -2.25039100000000
N           73.78288100000000        0.94585900000000       -0.94249900000000
C           75.12772300000000        1.67309700000000       -2.87135500000000
C           75.13461100000001        2.07047300000000       -4.26055500000000
C           75.12942400000000        2.35650600000000       -5.43369200000000
C           75.11091399999998        2.65938900000000       -6.83760400000000
C           76.05544899999998        2.08328100000000       -7.69207900000000
C           76.00740700000000        2.37357900000000       -9.05839100000000
N           75.04500299999999        3.20244000000000       -9.54544100000000
C           74.10906999999999        3.76278800000000       -8.73242600000000
C           74.12605700000000        3.50540700000000       -7.35975200000000
C           76.43958799999999        1.46692400000000       -2.21225300000000
C           77.71117500000000        1.95171400000000       -2.75670200000000
C           78.66241399999998        1.62751800000000       -1.90420200000000
N           76.60574600000000        0.86693200000000       -1.07911800000000
C           78.00538299999998        0.92451500000000       -0.81226800000000
C           78.61080699999998        0.42081900000000        0.27717500000000
C           77.88422600000000       -0.34800100000000        1.31405300000000
C           78.47447400000000       -0.98631000000000        2.32126500000000
C           77.44878900000000       -1.71985900000000        3.03816800000000
C           76.29611300000001       -1.47991500000000        2.42495600000000
N           76.47987400000000       -0.60000300000000        1.31291400000000
C           74.99737100000000       -2.07374700000000        2.83103000000000
C           75.01817900000000       -3.27164000000000        3.63910200000000
C           75.05184799999999       -4.30942700000000        4.25191500000000
C           75.11576400000000       -5.58611200000000        4.90670300000000
C           73.94615499999999       -6.21979200000000        5.33362400000000
C           74.01241999999999       -7.54342700000000        5.77107400000000
N           75.20485400000000       -8.19526200000000        5.79715400000000
C           76.35882300000000       -7.58779200000000        5.42470400000000
C           76.33623600000000       -6.27002700000000        4.97507400000000
C           73.81709600000001       -1.58432700000000        2.41572200000000
C           72.50263400000000       -2.06885800000000        2.82667200000000
C           71.62166900000000       -1.34710600000000        2.16307800000000
C           72.36201799999999       -0.41372100000000        1.30826400000000
N           73.64678199999999       -0.54653300000000        1.45095000000000
H           70.65942500000000        1.69519500000000       -2.08422900000000
H           72.45360899999999        2.23531400000000       -3.79621000000000
H           76.81744900000000        1.41669600000000       -7.31042100000000
H           76.73958199999998        1.94580600000000       -9.72715800000000
H           73.35364199999999        4.41032000000000       -9.15265200000000
H           73.37308400000001        3.94643300000000       -6.72055800000000
H           77.86035999999999        2.49104400000000       -3.68066400000000
H           79.71130800000000        1.84861900000000       -2.02638700000000
H           79.53139299999999       -1.00702900000000        2.55181900000000
H           77.60537799999999       -2.36017500000000        3.90333200000000
H           72.98665300000000       -5.71332200000000        5.26708500000000
H           73.10961600000000       -8.06362800000000        6.05826100000000
H           77.28779200000000       -8.13621800000000        5.44313700000000
H           77.25033100000000       -5.80599100000000        4.62915400000000
H           72.26802700000000       -2.85614800000000        3.53205900000000
H           70.54623100000001       -1.45356000000000        2.24110900000000
242
 energy: -440.199155157255 gnorm: 0.531354702473 xtb: 6.5.1 (b24c23e)
Ni          48.32645638473472       -0.38108391077429       -0.25983979084894
C           44.93873747941101       -0.25522405049830       -0.22626625585896
C           45.61112037068690        0.54547751199036        0.63416049067712
C           44.95595774789912        1.42619321425898        1.58892200517181
C           45.91022887934354        2.07997026916926        2.25149013161161
C           47.20220302392185        1.63388463673726        1.73048310478673
N           47.01119172427552        0.67180749620789        0.71972972940208
C           48.41458074073142        2.11667651199025        2.14313906899264
C           48.44453145001952        3.12356638877098        3.16537279919701
C           48.47700161319376        3.97434729226502        4.03241615679350
C           48.52085325967489        4.97778589117138        5.05167906882980
C           49.72334087623387        5.62739714467520        5.35676536105354
C           49.73317279344133        6.59787942981767        6.35332633831194
N           48.60762027470047        6.91776946206633        7.02428490268387
C           47.44032196429345        6.30258263730142        6.74447987413197
C           47.36313043227792        5.32378778781587        5.75909508262740
C           49.68706704979066        1.66822710531816        1.58527160727662
C           50.97080887773726        2.28419583512120        1.90445721771858
C           51.91948831499413        1.61150544098562        1.24517758414477
N           49.84367788397874        0.65212410266488        0.75253043419828
C           51.24876403704238        0.56003991365224        0.50515376821460
C           51.86668978952665       -0.38760038391570       -0.25185676439556
C           51.07785863119605       -1.40345620085762       -0.96827049422634
C           51.63016648763391       -2.51939708340325       -1.52286291116392
C           50.60205236769475       -3.22619630340035       -2.20371958328134
C           49.44529640609159       -2.52340277255328       -2.04272332984938
N           49.68070234963458       -1.36876824834590       -1.25143776136847
C           48.17265329716836       -2.90727042653994       -2.66397997421213
C           48.15672765568785       -3.91381026720606       -3.69318384245550
C           48.14608856880598       -4.76135070962857       -4.56568753073317
C           48.13818463909581       -5.76165624638534       -5.59113322583560
C           49.32787484162805       -6.39073451812966       -5.97745124201834
C           49.28814986211659       -7.35756526623655       -6.97711878278635
N           48.12661805791038       -7.69372302776294       -7.57397893028790
C           46.97068510433782       -7.09916938496935       -7.21531592029272
C           46.94252814615375       -6.12475471371532       -6.22256966023954
C           46.99260902825794       -2.34330919500247       -2.29308858797515
C           45.68248450863342       -2.66234190462549       -2.83698813943667
C           44.80370145953983       -1.92723809639737       -2.14656978961408
C           45.55499410249852       -1.14546555577575       -1.17512342906753
N           46.85087353899044       -1.38596816319998       -1.25909115196174
H           43.85509869553309       -0.22369929638799       -0.19933575638370
H           43.89196869090051        1.54452619211634        1.74582903404670
H           45.72798132413454        2.81118687350441        3.02758000329965
H           50.63563958087074        5.37850087293905        4.82360975696240
H           50.66282438529240        7.11036631685824        6.59935349434232
H           46.54596379796362        6.58009865332731        7.30172866095448
H           46.41806273336433        4.83570555750848        5.54277597519881
H           51.14987386385925        3.12952600110664        2.54951771851504
H           52.97837743184773        1.82704995016528        1.27979998318613
H           52.66994964769187       -2.79493589332691       -1.46706674911478
H           50.71125956035811       -4.14120213511130       -2.76567883560147
H           50.26875399729040       -6.12880694209550       -5.50440390016237
H           50.20763679412384       -7.85367429411258       -7.28601446127725
H           46.04651106205286       -7.38977073847791       -7.71372686407122
H           46.00598072833415       -5.65340021143411       -5.94269164460424
H           45.43638857118095       -3.35640811561445       -3.63085584307995
H           43.73570290012584       -1.92719838163668       -2.29329942578067
Ni          88.99330583886653       -0.35931579692975       -0.24750355448412
C           92.38111879795370       -0.45272246790852       -0.33826358409747
C           91.70872405110637       -1.60218633880169       -0.58369329633462
C           92.36388421784399       -2.87365011856669       -0.84936376775809
C           91.40959334333117       -3.77787115577738       -1.07027524672861
C           90.11762500201316       -3.10174782491780       -0.95491936967944
N           90.30865840133387       -1.74041989524082       -0.64817291115174
C           88.90514767004585       -3.70360359692862       -1.15737196828699
C           88.87528893124878       -5.09785106640003       -1.49670485750564
C           88.84285152436836       -6.27869010582770       -1.78171378872317
C           88.79900033386183       -7.66856310996553       -2.11959794497817
C           87.59651233121730       -8.26384309242101       -2.52044981255957
C           87.58667880341689       -9.61728796199482       -2.84169741467111
N           88.71223549431440      -10.35727451361388       -2.77176758994905
C           89.87953085714450       -9.80136998388147       -2.38747628633762
C           89.95672506131285       -8.45324965222234       -2.05335948184767
C           87.63258065953661       -2.99453752611553       -1.05886775018574
C           86.34923890844195       -3.58491698715661       -1.42367303666933
C           85.40032601103819       -2.67379270327262       -1.18485662723280
N           87.47488755070478       -1.75767199633109       -0.61433654813012
C           86.06948983071680       -1.49887336579890       -0.66227462056621
C           85.44307634311586       -0.36206448284035       -0.23659047900464
C           86.24071564771916        0.77376402943346        0.26618018664664
C           85.68958239409790        1.82243096398788        0.93926777530012
C           86.71792811387691        2.76946876651222        1.19615831295960
C           87.87443625091423        2.27035289800791        0.67564413741051
N           87.63835230609735        0.99835348815893        0.09099564942237
C           89.14722163071271        3.00066637095046        0.68619656623193
C           89.16312101509341        4.40063655754689        1.02163136488181
C           89.17375767561043        5.58450198051814        1.30107231530916
C           89.18167299793799        6.97803691170105        1.63307817955888
C           87.99197930107132        7.63250947556264        1.97461448858128
C           88.03170557871944        8.98673216540241        2.29113416569949
N           89.19323307989734        9.67150300003810        2.27319917627373
C           90.34917062694355        9.05849689493018        1.94710362600746
C           90.37732709177638        7.70631767065228        1.62052332756862
C           90.32722469844200        2.39289573770527        0.39264999775877
C           91.63738202069082        3.02343859093953        0.38720624299101
C           92.51614437851130        2.05358344250657        0.11079835553555
C           91.76484690830040        0.81855268750204       -0.06139491482431
N           90.46897388873069        1.01405438453651        0.10188545058850
H           93.46475156468614       -0.49202621699208       -0.35149564746854
H           93.42787355549433       -3.06905226530213       -0.87036309039443
H           91.59185972161441       -4.81926509410820       -1.29937247716971
H           86.68421429458203       -7.67853713310965       -2.58055665071326
H           86.65703092963739      -10.09150622225796       -3.15519577757333
H           90.77388772659057      -10.42204477963690       -2.33956221877353
H           90.90179207100368       -8.01705331337128       -1.74555171440686
H           86.17005410367513       -4.57241895869812       -1.81797416271420
H           84.34139196214676       -2.81411009056615       -1.35205832974058
H           84.64977743510443        1.91590505503055        1.20432109171612
H           86.60865155064523        3.72142893138161        1.69292798595333
H           87.05109701428464        7.09208863338522        1.99268362536918
H           87.11221648648558        9.50649998920937        2.55830356156017
H           91.27334042947103        9.63540059492576        1.94062324202951
H           91.31387185228292        7.22416049321334        1.35970080742395
H           91.88346752830438        4.06101882213865        0.57529416376801
H           93.58414284881272        2.17946671556383        0.03543919656341
C           54.97461335345382       -0.36779072364625       -0.25214446402999
C           53.70492905439130       -0.38735677784522       -0.25255534559718
C           56.32939383782652       -0.35376631280596       -0.23391006881322
C           57.68960037189054       -0.36099871107870       -0.23403445758450
C           67.97191140216380       -0.36623966562636       -0.24795406315010
C           66.71046168696590       -0.37410633376618       -0.22999999676025
C           69.28142469162721       -0.36581002972164       -0.24161014396943
C           70.63872899436298       -0.36142661931094       -0.23628525830490
C           80.92107239370786       -0.35839562596063       -0.23981713152497
C           79.65823510354838       -0.37194270614468       -0.22889041387046
C           82.26557506655473       -0.36795421287415       -0.24837377829635
C           83.64328916146573       -0.37783679673797       -0.24879970911266
Ni          62.24951829830560        0.27572111313701        0.26305991315559
C           58.77489338906498        0.37493213733798        0.27152215693939
C           59.45176037184719        0.97706938925261       -0.76876439804204
C           58.78307764427463        1.52845141035407       -1.92971866903660
C           59.72276642603190        1.80571597245921       -2.83332576986743
C           61.01409180519659        1.48367166977021       -2.24690301575257
N           60.84181263867995        0.96447987778092       -0.95099861769115
C           62.21313350510798        1.67165288718900       -2.87878878869523
C           62.20694650336085        2.07005225828196       -4.25468783399926
C           62.19867230830290        2.35688592915354       -5.43474542884124
C           62.17867312108582        2.65747553063998       -6.83259927764928
C           63.12185913806015        2.08633687912000       -7.69326302919096