794
 energy: -1378.983467771171 gnorm: 0.000614429909 xtb: 6.5.1 (b24c23e)
C          113.06710331938694        0.11697724379624        0.01016129684358
C          113.69590160224496        0.12206403252214        1.24860714868406
C          113.07319939758624        0.11432478707604        2.52890323807688
C          114.05789111718046        0.12929407678947        3.47623187444498
C          115.31367223136583        0.14347464782930        2.80499810628836
N          115.04487434035177        0.14265094100861        1.46533629295865
C          116.58519162696982        0.15620897152245        3.38493922247797
C          117.79388853016837        0.13068732538980        2.68955191929753
C          119.09140928803455        0.09792722248016        3.33973841720933
C          120.01251413573301        0.09133324834636        2.35367452734495
N          117.94785179154078        0.15204171381614        1.33667973708555
C          119.27553094009158        0.12543872180297        1.10482265623424
C          119.90599811896429        0.13670407416158       -0.15648005028649
C          119.25110399724743        0.17258363059612       -1.40173619826951
C          119.86774084756713        0.20590042872012       -2.68115684320549
C          118.87905505172510        0.24494134378312       -3.62473130164337
C          117.62731449469483        0.23324068437842       -2.94896355295742
C          116.35702863105401        0.25766329805324       -3.52912256069684
C          116.31311885768582        0.26816374622716       -5.02321008020357
C          116.43646618277677        1.41354948492623       -5.81400171385504
O          116.58765216933715        2.68512415652631       -5.35784011063900
C          116.21711955063054        3.09516580018498       -4.05446465646507
C          116.43817056874468        1.30121850707269       -7.21038837491216
C          116.30730589716291        0.06726784810658       -7.81368309199288
C          116.16570331258772       -1.08386242989521       -7.04776904428875
C          116.17227582756172       -0.97977705473997       -5.66158945678730
O          116.06000026263807       -2.04741422364443       -4.82593348516946
C          115.89495373721249       -3.34996859815923       -5.34897687881233
C          115.14733091211612        0.20124709777147       -2.83272920433570
C          113.84370160188456        0.18322373054794       -3.47687684700133
C          112.92914671276996        0.14245614994173       -2.48663557595656
C          113.67384429201785        0.14198384292706       -1.23931289713768
N          115.00630970741945        0.18041015420832       -1.48606160577966
N          117.90415236776025        0.19180767543454       -1.60736668863560
C          116.63000067804693        0.10387296953585        4.87889138876332
C          116.54679930596677        1.21412549848687        5.72277088258665
O          116.42869447612470        2.51047249622043        5.33284587695967
C          116.73118148449618        2.96819432225268        4.02826180807256
C          116.55613170387204        1.03597206984619        7.11272376058705
C          116.65637753415903       -0.22771122109136        7.65695483096967
C          116.75313512147544       -1.34600131343612        6.83717366965173
C          116.73648259265912       -1.17643483392604        5.45777091943979
O          116.80775808677879       -2.20637932921557        4.57177056861767
C          116.95981951554340       -3.53461957248665        5.03015494108770
H          111.98232412603788        0.09452830037154        0.03018283072774
H          112.00689116884817        0.09994365741972        2.68946343332407
H          113.93732249021849        0.12781994987019        4.54758677949748
H          115.75011866501553        0.13245509026120        0.73638254843320
H          119.24682740162601        0.07637347546732        4.40650915240466
H          121.08745695128199        0.06601755707485        2.43552763788122
H          120.93313272508821        0.20109258439115       -2.84639974030839
H          118.99673981469608        0.27567613635667       -4.69577710895987
H          116.94095910649024        2.76020424380140       -3.30355565018635
H          116.20572309877713        4.18772412269663       -4.07390751244220
H          115.21990351423095        2.72950018656607       -3.78748672676552
H          116.54309712874742        2.20511532379723       -7.79694830534976
H          116.30906675051840       -0.00786542626792       -8.89520559843671
H          116.05953617388867       -2.04385267480221       -7.53462624323542
H          115.81602485586770       -4.01543041981406       -4.48728408359877
H          114.98063378680280       -3.42858606645265       -5.94952899702994
H          116.75591972025991       -3.65058934542051       -5.95829184213989
H          113.68291043589150        0.19403783071504       -4.54320679084915
H          111.85311701318831        0.11559308198797       -2.56053008434695
H          117.20183351303908        0.15828272742376       -0.87600394357066
H          117.71420273454970        2.61677235835153        3.69732548956455
H          116.74133265895095        4.05927619909798        4.08766378236058
H          115.97037623242456        2.65826859805049        3.30360482811057
H          116.48459484311500        1.91427912618762        7.74166709433374
H          116.66418945174172       -0.35271088463066        8.73382979944949
H          116.83395061940706       -2.33060067815137        7.27751290845162
H          116.10258837919392       -3.85158698932773        5.63654002791023
H          117.01706450045852       -4.15931326500686        4.13680216440178
H          117.88076061626715       -3.65478522570463        5.61335397755429
C          287.61073931343958        0.07966722283155       -0.18331655510052
C          287.00082124150777       -0.04702745990931       -1.42472306144228
C          287.64296947959372       -0.17449021066350       -2.68899839685310
C          286.67269573825484       -0.26698362583115       -3.64674024961013
C          285.40676206444454       -0.20245296876577       -2.99788500518221
N          285.65516125125146       -0.06601247739365       -1.66121612475218
C          284.14409531067975       -0.26558965798993       -3.59369265350858
C          282.92546511747724       -0.23869638072889       -2.91585825586272
C          281.63837143810912       -0.35513256360126       -3.57702599397383
C          280.70261097186619       -0.27190233874286       -2.60842201113861
N          282.75084857044607       -0.08081434921605       -1.57451623152585
C          281.42016239637462       -0.09905227220538       -1.35974992524276
C          280.77023249593219        0.04181173870127       -0.11618213605586
C          281.40575080810657        0.21613755736265        1.12754131219787
C          280.76944395968718        0.37659272545083        2.38749350960768
C          281.74336091616647        0.51906784738836        3.33654569625284
C          283.00532797071338        0.44723000822953        2.68395061227069
C          284.26649581388557        0.53990292470276        3.27708783945342
C          284.28824772162943        0.69725607522702        4.76343567713585
C          284.14366939769531        1.91243403249920        5.43784891665743
O          283.98829252089917        3.13280948660012        4.85998512318398
C          284.35670095725635        3.41653036228125        3.52284583941282
C          284.12449611686714        1.93565522171298        6.83854979008357
C          284.25870032135936        0.76746808815677        7.56027221049573
C          284.42093093270910       -0.45092918732611        6.91140118491298
C          284.43205052540634       -0.48143935359201        5.52172959254705
O          284.56557381957845       -1.62375234845403        4.79500366514998
C          284.73938956117280       -2.86729186071560        5.44368537801912
C          285.48698845240887        0.42535079816601        2.60719083214307
C          286.78085005258492        0.48533581672970        3.26827392476535
C          287.71060464474402        0.35575191864139        2.30009028259798
C          286.98487816638288        0.22262471329588        1.04868952411665
N          285.64855230001393        0.27132914784258        1.27148960408948
N          282.74926430441212        0.26673332118333        1.34973791349679
C          284.12246121691078       -0.46309010161442       -5.07590132316686
C          284.21365859626610        0.56176457574580       -6.02106075472255
O          284.31948165374791        1.89018047688120       -5.75496395163485
C          283.98535126407984        2.46966456285363       -4.50779387040672
C          284.22719209358610        0.25142390318885       -7.38746455002249
C          284.14156339072315       -1.05920571764588       -7.80951331287547
C          284.03708112282027       -2.09435578749620       -6.88786345094821
C          284.03107186738401       -1.79351707611767       -5.53089213507535
O          283.95105573788612       -2.73454511216126       -4.55162327565104
C          283.81023240063041       -4.10113629439919       -4.88345369379017
H          288.69587419558007        0.06838296967663       -0.18571879475013
H          288.71169193480910       -0.19087758665548       -2.83239348428500
H          286.80958796785484       -0.37394923447188       -4.71076523081808
H          284.93904447637743       -0.01212647240478       -0.94488810274698
H          281.49931269133037       -0.48844595816819       -4.63791379296084
H          279.62938423381848       -0.31924675393489       -2.70210469984062
H          279.70169822451578        0.38090430697738        2.53679521700383
H          281.60912710499031        0.65854327737993        4.39695889618280
H          283.63625439465392        3.00371024195514        2.80833200776563
H          284.35882188652903        4.50581834749201        3.43557229950448
H          285.35719838299343        3.03509927717349        3.29288312459361
H          284.00362989506732        2.89099047839906        7.33334534903686
H          284.24327242532240        0.79745192310153        8.64388469098790
H          284.52930717323937       -1.35816055675592        7.49025563402921
H          284.83761417259262       -3.61185788767136        4.65149384546638
H          285.64664166174879       -2.87533760284403        6.05984823467122
H          283.87419869433495       -3.11901836084256        6.06898929332190
H          286.92543262818634        0.60461381964739        4.33030208523674
H          288.78559901186986        0.34795723739746        2.39148633881203
H          283.46292097382593        0.16311480981260        0.63612412848199
H          282.99982055858067        2.13962284802434       -4.16270404326285
H          283.96428155281154        3.54948108013574       -4.67422164055707
H          284.73469417709924        2.24230292059271       -3.74175541992551
H          284.30440541892733        1.06594404669849       -8.09647401986981
H          284.15130940712237       -1.28684130720345       -8.86942372653596
H          283.96801172772672       -3.11706150401772       -7.23306865831415
H          284.67767825094927       -4.47056052902507       -5.44388059271746
H          283.74115993378899       -4.63812549160022       -3.93557990200089
H          282.89877975806149       -4.28049311540690       -5.46634631397116
C          121.31104138177699        0.11644514060423       -0.18651297727931
C          122.53534091809712        0.10315344546160       -0.20985658244621
C          123.87808607396366        0.08944591738176       -0.23101183252884
C          125.10868030128549        0.08033948944404       -0.24679087833400
C          126.44677851204406        0.07178901373545       -0.26103062686722
C          127.67751593391097        0.06485508900095       -0.27312799564522
C          129.02016049814284        0.05937165771440       -0.28459184115382
C          130.24500647052648        0.05559637843837       -0.29523627894063
C          139.94232163303687       -0.00916714008755       -0.26339363683088
C          141.16767818694026       -0.01901450232500       -0.25709641709876
C          142.50918831096234       -0.02535221277399       -0.25228613374139
C          143.74064471196050       -0.02977726708710       -0.24967089256217
C          145.07752523844428       -0.03308186074573       -0.24896393851151
C          146.30900683214657       -0.03583140052419       -0.25248403759623
C          147.65048247171089       -0.03599787917729       -0.25661010537390
C          148.87594972394854       -0.03741013320406       -0.26296185480135
C          158.57706082656503       -0.04120070560829       -0.24227544821264
C          159.80262226575900       -0.04321419304019       -0.23996213499950
C          161.14430680335974       -0.04120124017408       -0.23908866303719
C          162.37591329952343       -0.04048796561871       -0.24083932390808
C          163.71295552411604       -0.03638674395898       -0.24367114610768
C          164.94456668914884       -0.03404469653412       -0.24876047481323
C          166.28621145971650       -0.03033138834835       -0.25543195474710
C          167.51178470098520       -0.02901735129684       -0.26298740302467
C          177.22090112063088       -0.03390371298880       -0.24303281353971
C          178.44654115931601       -0.03459996336741       -0.24196171587401
C          179.78841681404595       -0.03237280018254       -0.24157644997501
C          181.02008142178934       -0.03159384305039       -0.24365615101957
C          182.35731472663329       -0.02947015328148       -0.24758441169798
C          183.58906658139955       -0.02957584093749       -0.25184066231254
C          184.93090015835512       -0.02715726613014       -0.25852246201774
C          186.15653167310089       -0.02778278249692       -0.26590636409645
C          195.87014736907949       -0.03422188371410       -0.24424126595584
C          197.09582344416165       -0.03747155762569       -0.24039482489590
C          198.43775546824179       -0.03591712396135       -0.23882159019982
C          199.66947567944320       -0.03797274270476       -0.24047360605516
C          201.00676635649785       -0.03472494153991       -0.24383704537283
C          202.23847603457105       -0.03243119222441       -0.24954725053097
C          203.58035470448996       -0.02809335979191       -0.25920613229392
C          204.80601377447567       -0.02727789841302       -0.26903335676278
C          214.51843858175022       -0.03180146954522       -0.24627260186329
C          215.74407436526613       -0.03437769364131       -0.24330826542093
C          217.08593280282341       -0.03354961401858       -0.24143378100224
C          218.31761560212752       -0.03371594823618       -0.24307642124281
C          219.65484747577707       -0.03283868258877       -0.24762101510727
C          220.88651817406455       -0.03096556710279       -0.25388290264039
C          222.22834723069445       -0.02738945330357       -0.26247315249424
C          223.45396321061637       -0.02629507051185       -0.27211757197590
C          233.16180569245572       -0.02942700576207       -0.24863187113349
C          234.38738461106442       -0.03231025583439       -0.24473512673789
C          235.72906291409734       -0.03277371259338       -0.24190194304325
C          236.96068026088770       -0.03362414746713       -0.24505267552011
C          238.29774358751783       -0.03184457589976       -0.24985431471128
C          239.52936500284667       -0.03081950853931       -0.25568348038588
C          240.87102889457955       -0.02802031358334       -0.26419377712529
C          242.09658229579358       -0.02773748640765       -0.27476196145452
C          251.79866014080244       -0.03874412512211       -0.25058825028997
C          253.02415814148074       -0.04312663077348       -0.24478418997009
C          254.36575329696794       -0.04409676334221       -0.24077770053395
C          255.59726412098715       -0.04258238122893       -0.23884743876180
C          256.93422839599151       -0.04160101751276       -0.24027039502999
C          258.16576743684516       -0.04100107479759       -0.24252199882343
C          259.50739209372887       -0.03767675991376       -0.24596955380228
C          260.73287412551559       -0.03629892454984       -0.25037108715407
C          270.43073858959150       -0.04013072646892       -0.14554569926445
C          271.65553748896883       -0.04358844413579       -0.12912312349926
C          272.99809304741603       -0.04077691272460       -0.11350237453721
C          274.22890337702177       -0.03675368040899       -0.10298016217709
C          275.56705286153948       -0.02981162783580       -0.09712179590321
C          276.79776351859056       -0.01862018903856       -0.09456299325275
C          278.14060898075064       -0.00213990887231       -0.09685323216626
C          279.36509586813037        0.01581146416651       -0.10497957868403
C          131.64946870582040        0.05186778955311       -0.30644975995404
C          132.28561937559417        1.25774869854626        0.04522186555073
C          131.64867438521850        2.47136085708594        0.41512974639177
C          132.62362534225451        3.39304840008764        0.68046950894569
C          133.88478229020947        2.76953220480315        0.47660989138229
N          133.62908026780136        1.47939457819923        0.09615695921723
C          135.14714090397183        3.34595913916105        0.64996414110565
C          136.37036242462656        2.70050613663807        0.47527048197811
C          137.65619559888023        3.35504570528383        0.63807838607797
C          138.59629639505579        2.42229671282403        0.38323098106304
N          136.55092485442947        1.39867518329853        0.11715404776389
C          137.88289418976177        1.20201304569820        0.05895400766825
C          138.53909984270342       -0.00127847070821       -0.27252208156652
C          137.90448386210022       -1.20838393041079       -0.62582833435634
C          138.53917183615843       -2.42818993656882       -0.97682301793666
C          137.56257612138967       -3.34180908907309       -1.26669906205052
C          136.30353473766365       -2.70453388367207       -1.09867616580106
C          135.04119226681823       -3.27153964183677       -1.29952219500335
C          135.02608107732334       -4.71724213524716       -1.68336547174845
C          134.94793835069012       -5.64325510659536       -0.62402388923924
O          134.87418949365531       -5.09348825847540        0.61834995677577
C          134.75819241511027       -5.91924646995334        1.75940181327046
C          134.95750805310610       -7.01288531858526       -0.85959650452200
C          135.05201117375802       -7.47276024343792       -2.16793156923580
C          135.12543270700056       -6.58502559215075       -3.22108915621042
C          135.10927591989659       -5.20250050570568       -2.99085814290310
O          135.20298944094867       -4.45597662700741       -4.12157232721230
C          134.92395257339032       -3.06963760453628       -4.17755316783702
C          133.81798342174673       -2.63464797191926       -1.09886870132959
C          132.53465177361332       -3.28726756830097       -1.28359280029730
C          131.59238651519681       -2.36095586937888       -1.00899696260960
C          132.30310760639298       -1.14580482540696       -0.66167035374842
N          133.63551997628193       -1.33718640525436       -0.72769515314402
N          136.56095636175903       -1.41623595155267       -0.71100475209585
C          135.16766142573198        4.78011339664421        1.05737448981911
C          134.75998418865851        5.77693694940520        0.16103444679330
O          134.35676314024039        5.34556462846824       -1.06371947433185
C          133.95401268005793        6.27324737047862       -2.05161519255409
C          134.79161223255883        7.11908920480977        0.53780720344799
C          135.22351892330980        7.45789569727023        1.81117394440642
C          135.62445547635275        6.48822388323160        2.71758846343714
C          135.59833368441053        5.14615575380827        2.33986257442328
O          135.96006512436256        4.12409871382575        3.15827083611471
C          136.44639411298303        4.38560357625017        4.45960160803691
H          130.58090450211284        2.60994607340692        0.47047621119748
H          132.48644033671616        4.41575242908443        0.99150501360753
H          134.34126427150949        0.78663428096320       -0.10861237387529
H          137.79556404620487        4.38937660344400        0.90770876775370
H          139.66976770257412        2.52362413181446        0.40063508226510
H          139.60655441650442       -2.57757945670874       -1.00254826405278
H          137.69488850831672       -4.36782009257209       -1.56954239435381
H          134.69546521406627       -5.24592925664881        2.61632518484159
H          135.63374222746447       -6.56948244543232        1.87599456781010
H          133.85185836221851       -6.53540554209294        1.71847107311686
H          134.89833262893816       -7.72018667583601       -0.04348093726961
H          135.06466048274464       -8.53978612070019       -2.35936679384610
H          135.19618753190449       -6.93204221433666       -4.24417409970204
H          134.92527989875254       -2.80663474657711       -5.23809115096235
H          133.94149657526842       -2.84031072703961       -3.75139347858399
H          135.69122631417730       -2.48063355575284       -3.66357113021452
H          132.40203896646804       -4.31638676988619       -1.57677280231170
H          130.51913564108975       -2.46367236557526       -1.03058986169161
H          135.85084641698134       -0.72222382000859       -0.50291771122957
H          134.76646042035193        6.96344651488703       -2.30866087286785
H          133.07761415888575        6.84835382571353       -1.72923425632564
H          133.69166456346946        5.68412178594861       -2.93230385872111
H          134.48437325924630        7.89678227539462       -0.14839814099189
H          135.24676776649395        8.50169400944638        2.10430118897955
H          135.95221086360789        6.78116586909762        3.70595443695162
H          137.35217988616242        5.00317604168951        4.43244597175272
H          136.68766750593210        3.41381389026536        4.89415269663081
H          135.68888598127168        4.87952455986414        5.08008190789878
C          150.27894823065546       -0.03355624477841       -0.27312587457339
C          150.90911504046468        1.17828649010353        0.07112715921553
C          150.26582540815696        2.38983110891189        0.43520523595311
C          151.23613828185506        3.31797772311275        0.69608737382662
C          152.50032711056835        2.70025706866934        0.49475280836251
N          152.25129597236219        1.40690792808616        0.12085455529773
C          153.75959539392679        3.28519728378193        0.66449024710616
C          154.98695634227994        2.64694709798723        0.49402029892756
C          156.26840757625658        3.30987503383893        0.65695417198548
C          157.21475778504418        2.38245420390792        0.40552831479819
N          155.17640785583745        1.34506626136006        0.13975089171987
C          156.50963592639656        1.15697236058642        0.08273579647453
C          157.17374340245701       -0.04241892775076       -0.24825149692708
C          156.54562407358728       -1.25402267547240       -0.59879742600044
C          157.18663712438135       -2.47015957890290       -0.95086406705904
C          156.21466372008692       -3.39034450947907       -1.23596627495304
C          154.95233737354715       -2.76107886357041       -1.06357122095693
C          153.69293513647506       -3.33700414526093       -1.25838478176941
C          153.68421803961635       -4.78472644102930       -1.63523237760208
C          153.64246468928869       -5.70500017371132       -0.56876917419915
O          153.60145804080770       -5.14805171821110        0.67199132854014
C          153.51493587269084       -5.96728921033450        1.82034982370496
C          153.65159902543459       -7.07590125379765       -0.79643379769740
C          153.70873256843970       -7.54296563116409       -2.10440340581762
C          153.74779703943972       -6.66105078558367       -3.16418946186957
C          153.73224693268426       -5.27713841706376       -2.94177418874624
O          153.79138410445739       -4.53790258362763       -4.07942676857426
C          153.51958523307746       -3.15023105423879       -4.13549386354962
C          152.46578933967555       -2.70867746133128       -1.05569747638890
C          151.18696260604671       -3.37231715763639       -1.23169289908701
C          150.23843130294097       -2.45165818361198       -0.95910803625746
C          150.94095377794406       -1.22936323760597       -0.62136906564251
N          152.27425926004886       -1.41045050790566       -0.69050206291528
N          155.20310135320770       -1.47050574827399       -0.67891875741718
C          153.76752505119407        4.72261693419358        1.06093626045496
C          153.34969331879878        5.70735807056785        0.15578972230499
O          152.95548704471440        5.26123080703256       -1.06655818628263
C          152.52900866569431        6.17429083162012       -2.05806223358569
C          153.36202584984375        7.05255952804054        0.52247552808376
C          153.78491466031821        7.40649819810335        1.79477323139332
C          154.19603115324986        6.44902362957870        2.70952902795109
C          154.18904839759719        5.10383766701782        2.34189722842915
O          154.56089892011079        4.09288509436968        3.16953794694909
C          155.02566943886754        4.37010947253327        4.47546251840848
H          149.19737222744942        2.52308931813620        0.49028395163958
H          151.09325746395803        4.34124273243804        1.00265635695624
H          152.96677515117932        0.71691322154292       -0.08177956937400
H          156.40072291604946        4.34549836362757        0.92518879770054
H          158.28755354612395        2.49053172896723        0.42446478597920
H          158.25483656625664       -2.61282388790279       -0.98064503760461
H          156.35221818930140       -4.41575689380143       -1.53855263473469
H          153.47134170401080       -5.28903929641795        2.67456878715268
H          154.39448013876344       -6.61499389565695        1.91970734478583
H          152.60924844986388       -6.58554783569615        1.80477860936235
H          153.61949302745285       -7.77859954232459        0.02514938513296
H          153.71952645168341       -8.61101727707734       -2.29011699409937
H          153.78982509917867       -7.01374535989821       -4.18690914144825
H          153.51057393902087       -2.88995252406048       -5.19664272972237
H          152.54301640758709       -2.91462966480535       -3.69920438381575
H          154.29551594438306       -2.56409492177787       -3.63136675346829
H          151.06106897981275       -4.40419718380797       -1.51800186454249
H          149.16594339029928       -2.56279200297063       -0.97616146765975
H          154.48959167346766       -0.78044754400050       -0.46933427583417
H          153.32626442211964        6.87834884825106       -2.32492755986343
H          151.64362904373064        6.73448107083718       -1.73388540878134
H          152.27266114542573        5.57421209920833       -2.93310849225580
H          153.04628684687276        7.82084826529258       -0.17044226037750
H          153.79257333403177        8.45259588334505        2.08044614097111
H          154.51629597888666        6.75373980183501        3.69679068225370
H          155.92332975491149        4.99975577352515        4.45654984008950
H          155.27392870775176        3.40479848708042        4.92037033549529
H          154.25291781519232        4.85809175711880        5.08172102503611
C          168.91492486272404       -0.02463648992679       -0.27384838203418
C          169.54632630421918        1.18712238257561        0.06872132255121
C          168.90496484873793        2.40000565737786        0.43157746095127
C          169.87678215470294        3.32667566357885        0.69220711058488
C          171.14015084375146        2.70679977052584        0.49180789992936
N          170.88897260206070        1.41369155820644        0.11847357050673
C          172.40003428261224        3.29038189210431        0.66201941504868
C          173.62779109102098        2.65252520054013        0.49197435339554
C          174.90863122021349        3.31691986505064        0.65460126083202
C          175.85609063937187        2.39043823272639        0.40387400552095
N          173.81884393296639        1.35069514139620        0.13859243314390
C          175.15242047955320        1.16400588952787        0.08198108499777
C          175.81742880380983       -0.03520796709951       -0.24798145342287
C          175.18804282115227       -1.24664999383422       -0.59706484157706
C          175.82707008818400       -2.46360473759205       -0.94958485124913
C          174.85349971363328       -3.38223520090851       -1.23432289291626
C          173.59209494614132       -2.75134052396255       -1.06074333385085
C          172.33219993566817       -3.32590093642395       -1.25701252239082
C          172.32356268109442       -4.77331384243730       -1.63561059452576
C          172.31804348230006       -5.69444135082122       -0.56894596070874
O          172.31092651941734       -5.13808571821248        0.67283414794227