      -----------------------------------------------------------      
     |                   =====================                   |     
     |                           x T B                           |     
     |                   =====================                   |     
     |                         S. Grimme                         |     
     |          Mulliken Center for Theoretical Chemistry        |     
     |                    University of Bonn                     |     
      -----------------------------------------------------------      

   * xtb version 6.5.1 (b24c23e) compiled by 'conda@728c89f4b128' on 2022-07-12

   xtb is free software: you can redistribute it and/or modify it under
   the terms of the GNU Lesser General Public License as published by
   the Free Software Foundation, either version 3 of the License, or
   (at your option) any later version.
   
   xtb is distributed in the hope that it will be useful,
   but WITHOUT ANY WARRANTY; without even the implied warranty of
   MERCHANTABILITY or FITNESS FOR A PARTICULAR PURPOSE.  See the
   GNU Lesser General Public License for more details.
   
   Cite this work as:
   * C. Bannwarth, E. Caldeweyher, S. Ehlert, A. Hansen, P. Pracht,
     J. Seibert, S. Spicher, S. Grimme, WIREs Comput. Mol. Sci., 2020, 11,
     e01493. DOI: 10.1002/wcms.1493
   
   for GFN2-xTB:
   * C. Bannwarth, S. Ehlert and S. Grimme., J. Chem. Theory Comput., 2019,
     15, 1652-1671. DOI: 10.1021/acs.jctc.8b01176
   for GFN1-xTB:
   * S. Grimme, C. Bannwarth, P. Shushkov, J. Chem. Theory Comput., 2017,
     13, 1989-2009. DOI: 10.1021/acs.jctc.7b00118
   for GFN0-xTB:
   * P. Pracht, E. Caldeweyher, S. Ehlert, S. Grimme, ChemRxiv, 2019, preprint.
     DOI: 10.26434/chemrxiv.8326202.v1
   for GFN-FF:
   * S. Spicher and S. Grimme, Angew. Chem. Int. Ed., 2020, 59, 15665-15673.
     DOI: 10.1002/anie.202004239
   
   for ALPB and GBSA implicit solvation:
   * S. Ehlert, M. Stahn, S. Spicher, S. Grimme, J. Chem. Theory Comput.,
     2021, 17, 4250-4261. DOI: 10.1021/acs.jctc.1c00471
   
   for DFT-D4:
   * E. Caldeweyher, C. Bannwarth and S. Grimme, J. Chem. Phys., 2017,
     147, 034112. DOI: 10.1063/1.4993215
   * E. Caldeweyher, S. Ehlert, A. Hansen, H. Neugebauer, S. Spicher,
     C. Bannwarth and S. Grimme, J. Chem. Phys., 2019, 150, 154122.
     DOI: 10.1063/1.5090222
   * E. Caldeweyher, J.-M. Mewes, S. Ehlert and S. Grimme, Phys. Chem. Chem. Phys.
     2020, 22, 8499-8512. DOI: 10.1039/D0CP00502A
   
   for sTDA-xTB:
   * S. Grimme and C. Bannwarth, J. Chem. Phys., 2016, 145, 054103.
     DOI: 10.1063/1.4959605
   
   in the mass-spec context:
   * V. Asgeirsson, C. Bauer and S. Grimme, Chem. Sci., 2017, 8, 4879.
     DOI: 10.1039/c7sc00601b
   * J. Koopman and S. Grimme, ACS Omega 2019, 4, 12, 15120-15133.
     DOI: 10.1021/acsomega.9b02011
   
   for metadynamics refer to:
   * S. Grimme, J. Chem. Theory Comput., 2019, 155, 2847-2862
     DOI: 10.1021/acs.jctc.9b00143
   
   for SPH calculations refer to:
   * S. Spicher and S. Grimme, J. Chem. Theory Comput., 2021, 17, 1701-1714
     DOI: 10.1021/acs.jctc.0c01306
   
   with help from (in alphabetical order)
   P. Atkinson, C. Bannwarth, F. Bohle, G. Brandenburg, E. Caldeweyher
   M. Checinski, S. Dohm, S. Ehlert, S. Ehrlich, I. Gerasimov, C. Hölzer
   A. Katbashev, J. Koopman, C. Lavigne, S. Lehtola, F. März, M. Müller,
   F. Musil, H. Neugebauer, J. Pisarek, C. Plett, P. Pracht, F. Pultar,
   J. Seibert, P. Shushkov, S. Spicher, M. Stahn, M. Steiner, T. Strunk,
   J. Stückrath, T. Rose, and J. Unsleber
   
 * started run on 2022/07/29 at 18:55:12.828     

           -------------------------------------------------
          |                Calculation Setup                |
           -------------------------------------------------

          program call               : xtb xtbopt.xyz --gfn 1 --vipea
          hostname                   : cx3-5-14.cx3.hpc.ic.ac.uk
          coordinate file            : xtbopt.xyz
          omp threads                :                     1

   ID    Z sym.   atoms
    1    6 C      1-5, 7-10, 12, 14, 16-19, 21-26, 28-31, 33, 35, 37-41,
                  64-68, 70-73, 75, 77, 79-82, 84-89, 91-94, 96, 98, 100-104,
                  127-167, 169-172, 174, 176, 178-181, 183-188, 190-193, 195,
                  197, 199-203, 225-229, 231-234, 236, 238, 240-243, 245-250,
                  252-255, 257, 259, 261-265, 287-291, 293-296, 298, 300,
                  302-305, 307-312, 314-317, 319, 321, 323-327, 349-353,
                  355-358, 360, 362, 364-367, 369-374, 376-379, 381, 383,
                  385-389, 411-415, 417-420, 422, 424, 426-429, 431-436,
                  438-441, 443, 445, 447-451, 473-477, 479-482, 484, 486,
                  488-491, 493-498, 500-503, 505, 507, 509-513, 535-539,
                  541-544, 546, 548, 550-553, 555-560, 562-565, 567, 569,
                  571-575, 597-601, 603-606, 608, 610, 612-615, 617-622,
                  624-627, 629, 631, 633-637
    2    7 N      6, 20, 27, 42, 69, 83, 90, 105, 168, 182, 189, 204, 230,
                  244, 251, 266, 292, 306, 313, 328, 354, 368, 375, 390, 416,
                  430, 437, 452, 478, 492, 499, 514, 540, 554, 561, 576, 602,
                  616, 623, 638
    3    8 O      11, 13, 15, 32, 34, 36, 74, 76, 78, 95, 97, 99, 173, 175,
                  177, 194, 196, 198, 235, 237, 239, 256, 258, 260, 297, 299,
                  301, 318, 320, 322, 359, 361, 363, 380, 382, 384, 421, 423,
                  425, 442, 444, 446, 483, 485, 487, 504, 506, 508, 545, 547,
                  549, 566, 568, 570, 607, 609, 611, 628, 630, 632
    4    1 H      43-63, 106-126, 205-224, 267-286, 329-348, 391-410,
                  453-472, 515-534, 577-596, 639-658

           -------------------------------------------------
          |                 I P E A - x T B                 |
           -------------------------------------------------

        Reference                      10.1039/c7sc00601b
      * Hamiltonian:
        H0-scaling (s, p, d)           2.150000    2.300000    2.000000
        zeta-weighting                 0.000000
      * Dispersion:
        s8                             2.400000
        a1                             0.630000
        a2                             5.000000
        s9                             0.000000
      * Repulsion:
        kExp                           1.500000
        rExp                           1.000000
      * Coulomb:
        alpha                          1.000000
        third order                    atomic
        anisotropic                    false
      * Halogen bond correction:
        rad-scale                      1.300000
        damping                        0.440000


          ...................................................
          :                      SETUP                      :
          :.................................................:
          :  # basis functions                2684          :
          :  # atomic orbitals                2684          :
          :  # shells                         1772          :
          :  # electrons                      2186          :
          :  # halogen bonds                     0          :
          :  max. iterations                   250          :
          :  Hamiltonian                  GFN1-xTB          :
          :  restarted?                      false          :
          :  GBSA solvation                  false          :
          :  PC potential                    false          :
          :  electronic temp.          300.0000000     K    :
          :  accuracy                    1.0000000          :
          :  -> integral cutoff          0.2500000E+02      :
          :  -> integral neglect         0.1000000E-07      :
          :  -> SCF convergence          0.1000000E-05 Eh   :
          :  -> wf. convergence          0.2000000E-04 e    :
          :  Broyden damping             0.4000000          :
          ...................................................

 iter      E             dE          RMSdq      gap      omega  full diag
   1  -1423.0445893 -0.142304E+04  0.100E+01    0.11       0.0  T
   2  -1427.1673875 -0.412280E+01  0.615E+00    1.02       1.0  T
   3  -1412.0889268  0.150785E+02  0.440E+00    0.09       1.0  T
   4  -1429.9028545 -0.178139E+02  0.137E+00    1.03       1.0  T
   5  -1432.7626272 -0.285977E+01  0.263E-01    0.78       1.0  T
   6  -1432.8587343 -0.961071E-01  0.105E-01    0.83       1.0  T
   7  -1432.8700888 -0.113545E-01  0.519E-02    0.81       1.0  T
   8  -1432.8730858 -0.299695E-02  0.289E-02    0.81       1.0  T
   9  -1432.8734993 -0.413575E-03  0.204E-02    0.81       1.0  T
  10  -1432.8739171 -0.417710E-03  0.505E-03    0.81       1.0  T
  11  -1432.8739260 -0.892259E-05  0.236E-03    0.81       1.7  T
  12  -1432.8739322 -0.618441E-05  0.104E-03    0.81       3.7  T
  13  -1432.8739334 -0.120070E-05  0.490E-04    0.81       7.9  T
  14  -1432.8739336 -0.235079E-06  0.195E-04    0.81      20.0  T
  15  -1432.8739336 -0.343828E-07  0.787E-05    0.81      49.6  T

   *** convergence criteria satisfied after 15 iterations ***

         #    Occupation            Energy/Eh            Energy/eV
      -------------------------------------------------------------
         1        2.0000           -1.0466764             -28.4815
       ...           ...                  ...                  ...
      1087        2.0000           -0.3755415             -10.2190
      1088        2.0000           -0.3728961             -10.1470
      1089        2.0000           -0.3703242             -10.0770
      1090        2.0000           -0.3675228             -10.0008
      1091        2.0000           -0.3643965              -9.9157
      1092        2.0000           -0.3614654              -9.8360
      1093        2.0000           -0.3595383              -9.7835 (HOMO)
      1094        0.0000           -0.3299200              -8.9776 (LUMO)
      1095                         -0.3270158              -8.8986
      1096                         -0.3232738              -8.7967
      1097                         -0.3191163              -8.6836
      1098                         -0.3149648              -8.5706
       ...                                ...                  ...
      2684                        561.2287923           15271.8128
      -------------------------------------------------------------
                  HL-Gap            0.0296183 Eh            0.8060 eV
             Fermi-level           -0.3446901 Eh           -9.3795 eV

 SCC (total)                   0 d,  0 h,  1 min, 36.151 sec
 SCC setup                      ...        0 min,  0.047 sec (  0.048%)
 Dispersion                     ...        0 min,  0.048 sec (  0.050%)
 classical contributions        ...        0 min,  0.011 sec (  0.011%)
 integral evaluation            ...        0 min,  2.759 sec (  2.870%)
 iterations                     ...        1 min, 27.297 sec ( 90.791%)
 molecular gradient             ...        0 min,  4.977 sec (  5.176%)
 printout                       ...        0 min,  1.013 sec (  1.053%)

         :::::::::::::::::::::::::::::::::::::::::::::::::::::
         ::                     SUMMARY                     ::
         :::::::::::::::::::::::::::::::::::::::::::::::::::::
         :: total energy           -1408.100729458944 Eh    ::
         :: gradient norm              0.163868563103 Eh/a0 ::
         :: HOMO-LUMO gap              0.805955926436 eV    ::
         ::.................................................::
         :: SCC energy             -1432.873933633085 Eh    ::
         :: -> electrostatic           1.470486976333 Eh    ::
         :: repulsion energy          25.340966402009 Eh    ::
         :: dispersion energy         -0.567762227867 Eh    ::
         :: halogen bond corr.         0.000000000000 Eh    ::
         :: add. restraining           0.000000000000 Eh    ::
         :: total charge               0.000000000017 e     ::
         :::::::::::::::::::::::::::::::::::::::::::::::::::::

           ------------------------------------------------- 
          |        vertical delta SCC IP calculation        |
           ------------------------------------------------- 
   1  -1432.4986839 -0.143250E+04  0.329E-02    0.81       0.0  T
   2  -1432.4943712  0.431274E-02  0.410E-02    0.75       1.0  T
   3  -1432.4990822 -0.471100E-02  0.251E-02    0.79       1.0  T
   4  -1432.5005257 -0.144352E-02  0.191E-02    0.80       1.0  T
   5  -1432.5018245 -0.129882E-02  0.111E-02    0.79       1.0  T
   6  -1432.5021269 -0.302368E-03  0.529E-03    0.80       1.0  T
   7  -1432.5021651 -0.382286E-04  0.326E-03    0.80       1.2  T
   8  -1432.5021908 -0.256736E-04  0.142E-03    0.80       2.7  T
   9  -1432.5021947 -0.389302E-05  0.679E-04    0.80       5.7  T
  10  -1432.5021953 -0.618571E-06  0.300E-04    0.80      13.0  T
  11  -1432.5021954 -0.122671E-06  0.136E-04    0.80      28.7  T
  12  -1432.5021954 -0.172922E-07  0.764E-05    0.80      51.0  T
     SCC iter.                  ...        1 min,  8.384 sec
     gradient                   ...        0 min,  4.898 sec
------------------------------------------------------------------------
empirical IP shift (eV):    4.8455
delta SCC IP (eV):    5.2700
------------------------------------------------------------------------
           ------------------------------------------------- 
          |        vertical delta SCC EA calculation        |
           ------------------------------------------------- 
   1  -1433.1794335 -0.143318E+04  0.575E-02    0.08       0.0  T
   2  -1433.1824504 -0.301691E-02  0.535E-02    0.02       1.0  T
   3  -1433.1876269 -0.517651E-02  0.321E-02    0.07       1.0  T
   4  -1433.1875040  0.122954E-03  0.272E-02    0.05       1.0  T
   5  -1433.1858865  0.161743E-02  0.265E-02    0.07       1.0  T
   6  -1433.1889121 -0.302552E-02  0.156E-02    0.06       1.0  T
   7  -1433.1900950 -0.118293E-02  0.500E-03    0.04       1.0  T
   8  -1433.1901266 -0.315648E-04  0.213E-03    0.04       1.8  T
   9  -1433.1901313 -0.472821E-05  0.137E-03    0.04       2.8  T
  10  -1433.1901335 -0.224591E-05  0.562E-04    0.04       6.9  T
  11  -1433.1901339 -0.339851E-06  0.298E-04    0.04      13.1  T
  12  -1433.1901340 -0.105368E-06  0.113E-04    0.04      34.4  T
  13  -1433.1901340 -0.109883E-07  0.557E-05    0.04      70.0  T
     SCC iter.                  ...        1 min, 14.429 sec
     gradient                   ...        0 min,  4.912 sec
------------------------------------------------------------------------
empirical EA shift (eV):    4.8455
delta SCC EA (eV):    3.7587
------------------------------------------------------------------------
           -------------------------------------------------
          |                Property Printout                |
           -------------------------------------------------

    * Orbital Energies and Occupations

         #    Occupation            Energy/Eh            Energy/eV
      -------------------------------------------------------------
         1        2.0000           -1.0282658             -27.9805
       ...           ...                  ...                  ...
      1082        2.0000           -0.3639225              -9.9028
      1083        2.0000           -0.3637930              -9.8993
      1084        2.0000           -0.3567259              -9.7070
      1085        2.0000           -0.3562138              -9.6931
      1086        2.0000           -0.3543911              -9.6435
      1087        2.0000           -0.3522790              -9.5860
      1088        2.0000           -0.3496959              -9.5157
      1089        2.0000           -0.3464180              -9.4265
      1090        2.0000           -0.3426694              -9.3245
      1091        2.0000           -0.3387764              -9.2186
      1092        2.0000           -0.3350115              -9.1161
      1093        2.0000           -0.3320441              -9.0354
      1094        0.6915           -0.3021256              -8.2213 (HOMO)
      1095        0.2915           -0.3005149              -8.1774 (LUMO)
      1096        0.0166           -0.2974838              -8.0949
      1097        0.0004           -0.2939283              -7.9982
      1098        0.0000           -0.2907047              -7.9105
      1099        0.0000           -0.2878225              -7.8320
      1100        0.0000           -0.2862796              -7.7901
      1101                         -0.2857567              -7.7758
      1102                         -0.2840159              -7.7285
      1103                         -0.2820039              -7.6737
      1104                         -0.2815395              -7.6611
      1105                         -0.2802784              -7.6268
       ...                                ...                  ...
      2684                        561.2561585           15272.5574
      -------------------------------------------------------------
                  HL-Gap            0.0016107 Eh            0.0438 eV
             Fermi-level           -0.3092530 Eh           -8.4152 eV

  Mulliken/CM5 charges         n(s)   n(p)   n(d)
     1C    -0.02066 -0.06149   1.089  2.931  0.000
     2C     0.06258  0.12298   1.105  2.832  0.000
     3C    -0.03363 -0.07895   1.082  2.952  0.000
     4C    -0.03152 -0.07651   1.076  2.955  0.000
     5C     0.06372  0.12763   1.103  2.834  0.000
     6N    -0.15873 -0.51165   1.312  3.846  0.000
     7C     0.01016  0.01595   1.092  2.898  0.000
     8C    -0.00399 -0.01201   1.076  2.928  0.000
     9C    -0.04684 -0.09626   1.050  2.996  0.000
    10C     0.07376  0.08882   1.104  2.822  0.000
    11O    -0.30111 -0.50465   1.624  4.677  0.000
    12C     0.06833  0.08813   1.093  2.839  0.000
    13O    -0.29999 -0.49988   1.623  4.677  0.000
    14C     0.08237  0.09948   1.115  2.803  0.000
    15O    -0.29252 -0.48772   1.629  4.663  0.000
    16C    -0.04114 -0.08926   1.060  2.981  0.000
    17C     0.05932  0.12743   1.119  2.822  0.000
    18C    -0.03831 -0.08429   1.085  2.953  0.000
    19C    -0.03832 -0.08375   1.091  2.947  0.000
    20N    -0.28488 -0.47155   1.294  3.991  0.000
    21C     0.06396  0.13470   1.130  2.806  0.000
    22C     0.01798  0.02518   1.086  2.896  0.000
    23C     0.06678  0.13167   1.110  2.823  0.000
    24C    -0.03221 -0.07664   1.080  2.952  0.000
    25C    -0.03150 -0.07649   1.075  2.956  0.000
    26C     0.06281  0.12612   1.101  2.837  0.000
    27N    -0.15687 -0.50902   1.315  3.842  0.000
    28C     0.00985  0.01570   1.092  2.898  0.000
    29C    -0.00394 -0.01195   1.076  2.928  0.000
    30C    -0.04063 -0.08873   1.060  2.981  0.000
    31C     0.08263  0.09973   1.115  2.802  0.000
    32O    -0.29209 -0.48730   1.629  4.663  0.000
    33C     0.06835  0.08814   1.093  2.839  0.000
    34O    -0.29993 -0.49982   1.623  4.677  0.000
    35C     0.07349  0.08855   1.104  2.822  0.000
    36O    -0.30148 -0.50505   1.624  4.678  0.000
    37C    -0.04723 -0.09670   1.050  2.997  0.000
    38C     0.06064  0.13000   1.122  2.818  0.000
    39C    -0.03833 -0.08433   1.087  2.952  0.000
    40C    -0.03963 -0.08601   1.092  2.947  0.000
    41C     0.05911  0.12480   1.125  2.816  0.000
    42N    -0.28681 -0.47386   1.294  3.993  0.000
    43H     0.03022  0.08924   0.970  0.000  0.000
    44H     0.04105  0.09773   0.959  0.000  0.000
    45H     0.03477  0.09360   0.965  0.000  0.000
    46H     0.16418  0.37253   0.836  0.000  0.000
    47H     0.03271  0.09298   0.967  0.000  0.000
    48H     0.23386  0.40636   0.766  0.000  0.000
    49H     0.24004  0.41939   0.760  0.000  0.000
    50H     0.23536  0.41477   0.765  0.000  0.000
    51H     0.03444  0.09529   0.966  0.000  0.000
    52H     0.02401  0.08278   0.976  0.000  0.000
    53H     0.02490  0.08295   0.975  0.000  0.000
    54H     0.03579  0.09389   0.964  0.000  0.000
    55H     0.03494  0.09380   0.965  0.000  0.000
    56H     0.16284  0.37116   0.837  0.000  0.000
    57H     0.03515  0.09603   0.965  0.000  0.000
    58H     0.23545  0.41487   0.765  0.000  0.000
    59H     0.23981  0.41917   0.760  0.000  0.000
    60H     0.23324  0.40575   0.767  0.000  0.000
    61H     0.03201  0.09228   0.968  0.000  0.000
    62H     0.02385  0.08258   0.976  0.000  0.000
    63H     0.03061  0.08704   0.969  0.000  0.000
    64C    -0.02038 -0.06121   1.090  2.931  0.000
    65C     0.06261  0.12300   1.105  2.832  0.000
    66C    -0.03351 -0.07883   1.082  2.952  0.000
    67C    -0.03149 -0.07646   1.076  2.955  0.000
    68C     0.06386  0.12778   1.103  2.833  0.000
    69N    -0.15862 -0.51152   1.312  3.846  0.000
    70C     0.01022  0.01600   1.092  2.898  0.000
    71C    -0.00394 -0.01198   1.076  2.928  0.000
    72C    -0.04689 -0.09635   1.050  2.997  0.000
    73C     0.07376  0.08881   1.104  2.822  0.000
    74O    -0.30115 -0.50470   1.624  4.677  0.000
    75C     0.06829  0.08807   1.093  2.839  0.000
    76O    -0.30009 -0.49998   1.623  4.677  0.000
    77C     0.08240  0.09949   1.115  2.803  0.000
    78O    -0.29251 -0.48772   1.629  4.663  0.000
    79C    -0.04110 -0.08920   1.060  2.981  0.000
    80C     0.05955  0.12765   1.119  2.821  0.000
    81C    -0.03816 -0.08414   1.085  2.953  0.000
    82C    -0.03804 -0.08347   1.091  2.947  0.000
    83N    -0.28486 -0.47142   1.294  3.991  0.000
    84C     0.06412  0.13485   1.130  2.806  0.000
    85C     0.01833  0.02551   1.086  2.896  0.000
    86C     0.06704  0.13191   1.110  2.823  0.000
    87C    -0.03170 -0.07614   1.080  2.951  0.000
    88C    -0.03105 -0.07603   1.076  2.956  0.000
    89C     0.06316  0.12646   1.101  2.836  0.000
    90N    -0.15683 -0.50893   1.314  3.842  0.000
    91C     0.01015  0.01599   1.092  2.898  0.000
    92C    -0.00398 -0.01200   1.076  2.928  0.000
    93C    -0.04061 -0.08873   1.060  2.981  0.000
    94C     0.08283  0.09994   1.115  2.802  0.000
    95O    -0.29177 -0.48700   1.629  4.663  0.000
    96C     0.06846  0.08826   1.093  2.839  0.000
    97O    -0.29977 -0.49966   1.623  4.677  0.000
    98C     0.07353  0.08858   1.104  2.822  0.000
    99O    -0.30143 -0.50500   1.624  4.678  0.000
   100C    -0.04730 -0.09675   1.050  2.997  0.000
   101C     0.06086  0.13023   1.122  2.817  0.000
   102C    -0.03819 -0.08417   1.087  2.952  0.000
   103C    -0.03952 -0.08590   1.092  2.947  0.000
   104C     0.05918  0.12487   1.125  2.816  0.000
   105N    -0.28661 -0.47367   1.294  3.993  0.000
   106H     0.03034  0.08937   0.970  0.000  0.000
   107H     0.04112  0.09780   0.959  0.000  0.000
   108H     0.03482  0.09364   0.965  0.000  0.000
   109H     0.16429  0.37261   0.836  0.000  0.000
   110H     0.03262  0.09284   0.967  0.000  0.000
   111H     0.23372  0.40623   0.766  0.000  0.000
   112H     0.23996  0.41933   0.760  0.000  0.000
   113H     0.23532  0.41474   0.765  0.000  0.000
   114H     0.03454  0.09538   0.965  0.000  0.000
   115H     0.02424  0.08304   0.976  0.000  0.000
   116H     0.02510  0.08317   0.975  0.000  0.000
   117H     0.03635  0.09448   0.964  0.000  0.000
   118H     0.03564  0.09452   0.964  0.000  0.000
   119H     0.16295  0.37123   0.837  0.000  0.000
   120H     0.03527  0.09611   0.965  0.000  0.000
   121H     0.23569  0.41510   0.764  0.000  0.000
   122H     0.23989  0.41925   0.760  0.000  0.000
   123H     0.23322  0.40574   0.767  0.000  0.000
   124H     0.03205  0.09231   0.968  0.000  0.000
   125H     0.02405  0.08278   0.976  0.000  0.000
   126H     0.03071  0.08713   0.969  0.000  0.000
   127C    -0.01933 -0.02019   1.061  2.959  0.000
   128C    -0.01928 -0.02091   1.090  2.929  0.000
   129C    -0.02173 -0.02257   1.059  2.963  0.000
   130C    -0.01708 -0.01869   1.093  2.924  0.000
   131C    -0.02061 -0.02144   1.060  2.961  0.000
   132C    -0.01955 -0.02115   1.090  2.930  0.000
   133C    -0.02186 -0.02269   1.059  2.963  0.000
   134C    -0.01850 -0.02009   1.092  2.927  0.000
   135C    -0.02107 -0.02190   1.060  2.962  0.000
   136C    -0.01891 -0.02050   1.091  2.928  0.000
   137C    -0.02125 -0.02208   1.059  2.962  0.000
   138C    -0.01892 -0.02051   1.091  2.928  0.000
   139C    -0.02104 -0.02188   1.059  2.962  0.000
   140C    -0.01858 -0.02018   1.091  2.928  0.000
   141C    -0.02096 -0.02180   1.060  2.961  0.000
   142C    -0.01889 -0.02048   1.091  2.928  0.000
   143C    -0.02091 -0.02174   1.059  2.961  0.000
   144C    -0.01853 -0.02013   1.091  2.928  0.000
   145C    -0.02095 -0.02178   1.060  2.961  0.000
   146C    -0.01878 -0.02038   1.091  2.928  0.000
   147C    -0.02092 -0.02176   1.060  2.961  0.000
   148C    -0.01862 -0.02022   1.091  2.928  0.000
   149C    -0.02106 -0.02190   1.059  2.962  0.000
   150C    -0.01883 -0.02043   1.091  2.928  0.000
   151C    -0.02119 -0.02202   1.059  2.962  0.000
   152C    -0.01859 -0.02019   1.091  2.928  0.000
   153C    -0.02102 -0.02185   1.060  2.961  0.000
   154C    -0.01913 -0.02073   1.091  2.929  0.000
   155C    -0.02169 -0.02252   1.059  2.963  0.000
   156C    -0.01810 -0.01969   1.092  2.926  0.000
   157C    -0.02044 -0.02127   1.060  2.960  0.000
   158C    -0.01963 -0.02122   1.090  2.930  0.000
   159C    -0.02084 -0.02167   1.059  2.962  0.000
   160C    -0.01641 -0.01800   1.093  2.923  0.000
   161C    -0.01866 -0.01953   1.061  2.958  0.000
   162C    -0.01864 -0.02029   1.090  2.928  0.000
   163C     0.01473  0.02195   1.083  2.902  0.000
   164C     0.06563  0.13047   1.110  2.824  0.000
   165C    -0.03511 -0.07955   1.079  2.956  0.000
   166C    -0.03381 -0.07875   1.076  2.958  0.000
   167C     0.06027  0.12365   1.099  2.841  0.000
   168N    -0.15698 -0.50925   1.314  3.843  0.000
   169C     0.01162  0.01730   1.093  2.895  0.000
   170C    -0.00512 -0.01332   1.073  2.932  0.000
   171C    -0.04597 -0.09535   1.050  2.996  0.000
   172C     0.08273  0.10004   1.113  2.805  0.000
   173O    -0.29215 -0.48909   1.624  4.668  0.000
   174C     0.07829  0.10053   1.102  2.820  0.000
   175O    -0.29237 -0.48495   1.626  4.666  0.000
   176C     0.07269  0.08773   1.105  2.823  0.000
   177O    -0.30054 -0.50552   1.622  4.679  0.000
   178C    -0.04767 -0.09712   1.048  2.999  0.000
   179C     0.05759  0.12550   1.117  2.825  0.000
   180C    -0.03879 -0.08480   1.085  2.953  0.000
   181C    -0.03934 -0.08477   1.090  2.949  0.000
   182N    -0.28472 -0.47087   1.294  3.991  0.000
   183C     0.06373  0.13461   1.130  2.806  0.000
   184C     0.01686  0.02408   1.085  2.898  0.000
   185C     0.06626  0.13119   1.110  2.824  0.000
   186C    -0.03370 -0.07814   1.079  2.955  0.000
   187C    -0.03241 -0.07735   1.075  2.957  0.000
   188C     0.06136  0.12468   1.098  2.840  0.000
   189N    -0.15610 -0.50843   1.314  3.842  0.000
   190C     0.01203  0.01772   1.093  2.895  0.000
   191C    -0.00337 -0.01148   1.076  2.927  0.000
   192C    -0.04053 -0.08865   1.060  2.981  0.000
   193C     0.08252  0.09963   1.115  2.802  0.000
   194O    -0.29225 -0.48747   1.629  4.663  0.000
   195C     0.06810  0.08789   1.093  2.839  0.000
   196O    -0.30036 -0.50024   1.623  4.678  0.000
   197C     0.07355  0.08862   1.104  2.822  0.000
   198O    -0.30159 -0.50515   1.624  4.678  0.000
   199C    -0.04676 -0.09624   1.050  2.997  0.000
   200C     0.05819  0.12630   1.117  2.824  0.000
   201C    -0.03882 -0.08480   1.086  2.953  0.000
   202C    -0.03988 -0.08532   1.090  2.949  0.000
   203C     0.06324  0.13391   1.130  2.807  0.000
   204N    -0.28549 -0.47158   1.293  3.992  0.000
   205H     0.03359  0.09169   0.966  0.000  0.000
   206H     0.03292  0.09184   0.967  0.000  0.000
   207H     0.16270  0.37062   0.837  0.000  0.000
   208H     0.03301  0.09357   0.967  0.000  0.000
   209H     0.23155  0.40427   0.768  0.000  0.000
   210H     0.23675  0.41751   0.763  0.000  0.000
   211H     0.23370  0.40634   0.766  0.000  0.000
   212H     0.03255  0.09275   0.967  0.000  0.000
   213H     0.02405  0.08291   0.976  0.000  0.000
   214H     0.02413  0.08215   0.976  0.000  0.000
   215H     0.03486  0.09294   0.965  0.000  0.000
   216H     0.03381  0.09274   0.966  0.000  0.000
   217H     0.16256  0.37050   0.837  0.000  0.000
   218H     0.03478  0.09561   0.965  0.000  0.000
   219H     0.23502  0.41443   0.765  0.000  0.000
   220H     0.23941  0.41876   0.761  0.000  0.000
   221H     0.23318  0.40567   0.767  0.000  0.000
   222H     0.03231  0.09252   0.968  0.000  0.000
   223H     0.02266  0.08151   0.977  0.000  0.000
   224H     0.02285  0.08086   0.977  0.000  0.000
   225C     0.01525  0.02247   1.084  2.901  0.000
   226C     0.06565  0.13056   1.110  2.824  0.000
   227C    -0.03520 -0.07962   1.079  2.957  0.000
   228C    -0.03400 -0.07894   1.075  2.959  0.000
   229C     0.05994  0.12328   1.098  2.842  0.000
   230N    -0.15659 -0.50892   1.315  3.842  0.000
   231C     0.01181  0.01748   1.094  2.895  0.000
   232C    -0.00508 -0.01327   1.073  2.932  0.000
   233C    -0.04598 -0.09536   1.050  2.996  0.000
   234C     0.08263  0.09995   1.113  2.805  0.000
   235O    -0.29231 -0.48925   1.624  4.668  0.000
   236C     0.07832  0.10057   1.102  2.820  0.000
   237O    -0.29235 -0.48494   1.626  4.666  0.000
   238C     0.07280  0.08785   1.105  2.822  0.000
   239O    -0.30039 -0.50537   1.622  4.679  0.000
   240C    -0.04749 -0.09693   1.048  2.999  0.000
   241C     0.05739  0.12528   1.117  2.825  0.000
   242C    -0.03882 -0.08483   1.085  2.953  0.000
   243C    -0.03960 -0.08504   1.090  2.950  0.000
   244N    -0.28490 -0.47100   1.294  3.991  0.000
   245C     0.06366  0.13454   1.130  2.806  0.000
   246C     0.01619  0.02342   1.085  2.899  0.000
   247C     0.06618  0.13112   1.110  2.824  0.000
   248C    -0.03412 -0.07856   1.079  2.956  0.000
   249C    -0.03250 -0.07746   1.075  2.957  0.000
   250C     0.06103  0.12436   1.098  2.841  0.000
   251N    -0.15615 -0.50851   1.314  3.842  0.000
   252C     0.01251  0.01820   1.093  2.894  0.000
   253C    -0.00325 -0.01135   1.076  2.927  0.000
   254C    -0.04040 -0.08852   1.060  2.981  0.000
   255C     0.08258  0.09970   1.115  2.802  0.000
   256O    -0.29223 -0.48745   1.629  4.663  0.000
   257C     0.06820  0.08800   1.093  2.839  0.000
   258O    -0.30029 -0.50018   1.623  4.678  0.000
   259C     0.07359  0.08866   1.104  2.822  0.000
   260O    -0.30160 -0.50516   1.624  4.678  0.000
   261C    -0.04658 -0.09606   1.050  2.997  0.000
   262C     0.05774  0.12568   1.117  2.825  0.000
   263C    -0.03886 -0.08486   1.085  2.954  0.000
   264C    -0.03985 -0.08529   1.090  2.950  0.000
   265C     0.06347  0.13431   1.130  2.806  0.000
   266N    -0.28501 -0.47114   1.293  3.992  0.000
   267H     0.03388  0.09195   0.966  0.000  0.000
   268H     0.03277  0.09167   0.967  0.000  0.000
   269H     0.16255  0.37047   0.837  0.000  0.000
   270H     0.03271  0.09329   0.967  0.000  0.000
   271H     0.23133  0.40404   0.769  0.000  0.000
   272H     0.23676  0.41751   0.763  0.000  0.000
   273H     0.23395  0.40657   0.766  0.000  0.000
   274H     0.03287  0.09309   0.967  0.000  0.000
   275H     0.02382  0.08268   0.976  0.000  0.000
   276H     0.02375  0.08177   0.976  0.000  0.000
   277H     0.03441  0.09250   0.966  0.000  0.000
   278H     0.03348  0.09242   0.967  0.000  0.000
   279H     0.16251  0.37045   0.837  0.000  0.000
   280H     0.03484  0.09568   0.965  0.000  0.000
   281H     0.23497  0.41437   0.765  0.000  0.000
   282H     0.23937  0.41872   0.761  0.000  0.000
   283H     0.23311  0.40561   0.767  0.000  0.000
   284H     0.03225  0.09250   0.968  0.000  0.000
   285H     0.02267  0.08151   0.977  0.000  0.000
   286H     0.02326  0.08128   0.977  0.000  0.000
   287C     0.01595  0.02317   1.085  2.899  0.000
   288C     0.06574  0.13067   1.110  2.824  0.000
   289C    -0.03484 -0.07927   1.079  2.956  0.000
   290C    -0.03384 -0.07878   1.075  2.958  0.000
   291C     0.06016  0.12349   1.099  2.841  0.000
   292N    -0.15643 -0.50877   1.315  3.842  0.000
   293C     0.01182  0.01751   1.094  2.895  0.000
   294C    -0.00511 -0.01330   1.073  2.932  0.000
   295C    -0.04599 -0.09539   1.050  2.996  0.000
   296C     0.08264  0.09995   1.113  2.805  0.000
   297O    -0.29230 -0.48924   1.624  4.668  0.000
   298C     0.07838  0.10063   1.102  2.820  0.000
   299O    -0.29228 -0.48487   1.626  4.666  0.000
   300C     0.07286  0.08791   1.105  2.822  0.000
   301O    -0.30028 -0.50527   1.622  4.678  0.000
   302C    -0.04746 -0.09690   1.048  2.999  0.000
   303C     0.05754  0.12543   1.117  2.825  0.000
   304C    -0.03872 -0.08474   1.085  2.953  0.000
   305C    -0.03956 -0.08500   1.090  2.950  0.000
   306N    -0.28489 -0.47100   1.294  3.991  0.000
   307C     0.06370  0.13459   1.130  2.806  0.000
   308C     0.01618  0.02340   1.085  2.899  0.000
   309C     0.06624  0.13118   1.110  2.824  0.000
   310C    -0.03406 -0.07850   1.079  2.955  0.000
   311C    -0.03239 -0.07734   1.075  2.957  0.000
   312C     0.06114  0.12448   1.098  2.841  0.000
   313N    -0.15614 -0.50851   1.314  3.842  0.000
   314C     0.01263  0.01832   1.093  2.894  0.000
   315C    -0.00327 -0.01137   1.076  2.927  0.000
   316C    -0.04040 -0.08852   1.060  2.981  0.000
   317C     0.08261  0.09973   1.115  2.802  0.000
   318O    -0.29221 -0.48743   1.629  4.663  0.000
   319C     0.06826  0.08806   1.093  2.839  0.000
   320O    -0.30023 -0.50012   1.623  4.678  0.000
   321C     0.07365  0.08871   1.104  2.822  0.000
   322O    -0.30152 -0.50508   1.624  4.678  0.000
   323C    -0.04656 -0.09603   1.050  2.996  0.000
   324C     0.05787  0.12580   1.117  2.825  0.000
   325C    -0.03874 -0.08474   1.085  2.954  0.000
   326C    -0.03958 -0.08502   1.090  2.950  0.000
   327C     0.06357  0.13442   1.130  2.806  0.000
   328N    -0.28475 -0.47089   1.293  3.991  0.000
   329H     0.03427  0.09235   0.966  0.000  0.000
   330H     0.03299  0.09190   0.967  0.000  0.000
   331H     0.16262  0.37054   0.837  0.000  0.000
   332H     0.03268  0.09326   0.967  0.000  0.000
   333H     0.23131  0.40403   0.769  0.000  0.000
   334H     0.23684  0.41759   0.763  0.000  0.000
   335H     0.23407  0.40670   0.766  0.000  0.000
   336H     0.03299  0.09322   0.967  0.000  0.000
   337H     0.02391  0.08277   0.976  0.000  0.000
   338H     0.02376  0.08178   0.976  0.000  0.000
   339H     0.03444  0.09252   0.966  0.000  0.000
   340H     0.03357  0.09251   0.966  0.000  0.000
   341H     0.16260  0.37054   0.837  0.000  0.000
   342H     0.03488  0.09572   0.965  0.000  0.000
   343H     0.23501  0.41441   0.765  0.000  0.000
   344H     0.23944  0.41878   0.761  0.000  0.000
   345H     0.23320  0.40570   0.767  0.000  0.000
   346H     0.03233  0.09258   0.968  0.000  0.000
   347H     0.02289  0.08173   0.977  0.000  0.000
   348H     0.02363  0.08165   0.976  0.000  0.000
   349C     0.01622  0.02344   1.085  2.899  0.000
   350C     0.06583  0.13076   1.110  2.824  0.000
   351C    -0.03464 -0.07906   1.079  2.956  0.000
   352C    -0.03370 -0.07865   1.075  2.958  0.000
   353C     0.06031  0.12364   1.099  2.841  0.000
   354N    -0.15637 -0.50871   1.315  3.842  0.000
   355C     0.01187  0.01755   1.094  2.894  0.000
   356C    -0.00514 -0.01333   1.073  2.932  0.000
   357C    -0.04601 -0.09540   1.050  2.996  0.000
   358C     0.08265  0.09997   1.113  2.805  0.000
   359O    -0.29226 -0.48920   1.624  4.668  0.000
   360C     0.07843  0.10068   1.102  2.819  0.000
   361O    -0.29222 -0.48480   1.626  4.666  0.000
   362C     0.07290  0.08795   1.105  2.822  0.000
   363O    -0.30021 -0.50520   1.622  4.678  0.000
   364C    -0.04746 -0.09690   1.048  2.999  0.000
   365C     0.05765  0.12554   1.118  2.825  0.000
   366C    -0.03865 -0.08467   1.085  2.953  0.000
   367C    -0.03948 -0.08491   1.090  2.949  0.000
   368N    -0.28480 -0.47091   1.294  3.991  0.000
   369C     0.06373  0.13461   1.130  2.806  0.000
   370C     0.01637  0.02359   1.085  2.899  0.000
   371C     0.06629  0.13123   1.110  2.824  0.000
   372C    -0.03394 -0.07838   1.079  2.955  0.000
   373C    -0.03230 -0.07726   1.075  2.957  0.000
   374C     0.06126  0.12460   1.098  2.840  0.000
   375N    -0.15607 -0.50845   1.314  3.842  0.000
   376C     0.01268  0.01837   1.093  2.894  0.000
   377C    -0.00330 -0.01139   1.076  2.927  0.000
   378C    -0.04041 -0.08853   1.060  2.981  0.000
   379C     0.08263  0.09975   1.115  2.802  0.000
   380O    -0.29218 -0.48740   1.629  4.663  0.000
   381C     0.06830  0.08811   1.093  2.839  0.000
   382O    -0.30017 -0.50006   1.623  4.678  0.000
   383C     0.07368  0.08875   1.104  2.822  0.000
   384O    -0.30146 -0.50502   1.624  4.678  0.000
   385C    -0.04656 -0.09603   1.050  2.997  0.000
   386C     0.05800  0.12592   1.117  2.825  0.000
   387C    -0.03863 -0.08464   1.085  2.953  0.000
   388C    -0.03944 -0.08488   1.090  2.949  0.000
   389C     0.06364  0.13451   1.130  2.806  0.000
   390N    -0.28464 -0.47079   1.293  3.991  0.000
   391H     0.03449  0.09257   0.966  0.000  0.000
   392H     0.03318  0.09209   0.967  0.000  0.000
   393H     0.16269  0.37062   0.837  0.000  0.000
   394H     0.03272  0.09330   0.967  0.000  0.000
   395H     0.23134  0.40406   0.769  0.000  0.000
   396H     0.23692  0.41766   0.763  0.000  0.000
   397H     0.23415  0.40678   0.766  0.000  0.000
   398H     0.03305  0.09329   0.967  0.000  0.000
   399H     0.02400  0.08286   0.976  0.000  0.000
   400H     0.02385  0.08187   0.976  0.000  0.000
   401H     0.03454  0.09263   0.965  0.000  0.000
   402H     0.03368  0.09261   0.966  0.000  0.000
   403H     0.16268  0.37062   0.837  0.000  0.000
   404H     0.03491  0.09575   0.965  0.000  0.000
   405H     0.23506  0.41446   0.765  0.000  0.000
   406H     0.23950  0.41885   0.760  0.000  0.000
   407H     0.23327  0.40577   0.767  0.000  0.000
   408H     0.03239  0.09264   0.968  0.000  0.000
   409H     0.02306  0.08190   0.977  0.000  0.000
   410H     0.02384  0.08186   0.976  0.000  0.000
   411C     0.01616  0.02338   1.085  2.899  0.000
   412C     0.06585  0.13079   1.110  2.824  0.000
   413C    -0.03463 -0.07906   1.079  2.956  0.000
   414C    -0.03369 -0.07863   1.075  2.958  0.000
   415C     0.06031  0.12364   1.099  2.841  0.000
   416N    -0.15638 -0.50873   1.314  3.842  0.000
   417C     0.01188  0.01756   1.094  2.894  0.000
   418C    -0.00514 -0.01332   1.073  2.932  0.000
   419C    -0.04600 -0.09539   1.050  2.996  0.000
   420C     0.08266  0.09997   1.113  2.805  0.000
   421O    -0.29226 -0.48920   1.624  4.668  0.000
   422C     0.07844  0.10069   1.102  2.819  0.000
   423O    -0.29221 -0.48480   1.626  4.666  0.000
   424C     0.07291  0.08796   1.105  2.822  0.000
   425O    -0.30020 -0.50519   1.622  4.678  0.000
   426C    -0.04746 -0.09690   1.048  2.999  0.000
   427C     0.05764  0.12554   1.118  2.825  0.000
   428C    -0.03869 -0.08471   1.085  2.953  0.000
   429C    -0.03948 -0.08491   1.090  2.949  0.000
   430N    -0.28476 -0.47088   1.294  3.991  0.000
   431C     0.06372  0.13461   1.130  2.806  0.000
   432C     0.01643  0.02365   1.085  2.899  0.000
   433C     0.06625  0.13119   1.110  2.824  0.000
   434C    -0.03394 -0.07837   1.079  2.955  0.000
   435C    -0.03233 -0.07729   1.075  2.957  0.000
   436C     0.06127  0.12461   1.098  2.840  0.000
   437N    -0.15607 -0.50844   1.314  3.842  0.000
   438C     0.01266  0.01836   1.093  2.894  0.000
   439C    -0.00330 -0.01139   1.076  2.927  0.000
   440C    -0.04041 -0.08854   1.060  2.981  0.000
   441C     0.08262  0.09974   1.115  2.802  0.000
   442O    -0.29219 -0.48741   1.629  4.663  0.000
   443C     0.06830  0.08811   1.093  2.839  0.000
   444O    -0.30018 -0.50007   1.623  4.678  0.000
   445C     0.07368  0.08875   1.104  2.822  0.000
   446O    -0.30146 -0.50501   1.624  4.678  0.000
   447C    -0.04656 -0.09603   1.050  2.996  0.000
   448C     0.05802  0.12593   1.117  2.825  0.000
   449C    -0.03861 -0.08462   1.085  2.953  0.000
   450C    -0.03943 -0.08487   1.090  2.949  0.000
   451C     0.06366  0.13452   1.130  2.806  0.000
   452N    -0.28467 -0.47082   1.293  3.991  0.000
   453H     0.03450  0.09259   0.965  0.000  0.000
   454H     0.03321  0.09211   0.967  0.000  0.000
   455H     0.16270  0.37063   0.837  0.000  0.000
   456H     0.03272  0.09330   0.967  0.000  0.000
   457H     0.23133  0.40405   0.769  0.000  0.000
   458H     0.23693  0.41768   0.763  0.000  0.000
   459H     0.23417  0.40680   0.766  0.000  0.000
   460H     0.03306  0.09330   0.967  0.000  0.000
   461H     0.02398  0.08283   0.976  0.000  0.000
   462H     0.02383  0.08185   0.976  0.000  0.000
   463H     0.03452  0.09260   0.965  0.000  0.000
   464H     0.03366  0.09259   0.966  0.000  0.000
   465H     0.16267  0.37062   0.837  0.000  0.000
   466H     0.03491  0.09574   0.965  0.000  0.000
   467H     0.23505  0.41445   0.765  0.000  0.000
   468H     0.23951  0.41885   0.760  0.000  0.000
   469H     0.23327  0.40577   0.767  0.000  0.000
   470H     0.03239  0.09265   0.968  0.000  0.000
   471H     0.02308  0.08192   0.977  0.000  0.000
   472H     0.02385  0.08187   0.976  0.000  0.000
   473C     0.01601  0.02323   1.085  2.899  0.000
   474C     0.06581  0.13075   1.110  2.824  0.000
   475C    -0.03472 -0.07915   1.079  2.956  0.000
   476C    -0.03377 -0.07871   1.075  2.958  0.000
   477C     0.06021  0.12353   1.099  2.841  0.000
   478N    -0.15643 -0.50877   1.315  3.842  0.000
   479C     0.01184  0.01752   1.094  2.895  0.000
   480C    -0.00511 -0.01330   1.073  2.932  0.000
   481C    -0.04601 -0.09540   1.050  2.996  0.000
   482C     0.08262  0.09994   1.113  2.805  0.000
   483O    -0.29233 -0.48927   1.624  4.668  0.000
   484C     0.07840  0.10065   1.102  2.820  0.000
   485O    -0.29227 -0.48486   1.626  4.666  0.000
   486C     0.07289  0.08794   1.105  2.822  0.000
   487O    -0.30023 -0.50522   1.622  4.678  0.000
   488C    -0.04744 -0.09688   1.048  2.999  0.000
   489C     0.05753  0.12543   1.117  2.825  0.000
   490C    -0.03879 -0.08480   1.085  2.953  0.000
   491C    -0.03961 -0.08505   1.090  2.950  0.000
   492N    -0.28488 -0.47098   1.294  3.991  0.000
   493C     0.06364  0.13450   1.130  2.806  0.000
   494C     0.01617  0.02339   1.085  2.899  0.000
   495C     0.06618  0.13112   1.110  2.824  0.000
   496C    -0.03413 -0.07856   1.079  2.956  0.000
   497C    -0.03246 -0.07742   1.075  2.957  0.000
   498C     0.06114  0.12447   1.098  2.841  0.000
   499N    -0.15612 -0.50849   1.314  3.842  0.000
   500C     0.01262  0.01831   1.093  2.894  0.000
   501C    -0.00327 -0.01137   1.076  2.927  0.000
   502C    -0.04040 -0.08853   1.060  2.981  0.000
   503C     0.08259  0.09971   1.115  2.803  0.000
   504O    -0.29225 -0.48748   1.629  4.663  0.000
   505C     0.06827  0.08807   1.093  2.839  0.000
   506O    -0.30023 -0.50012   1.623  4.678  0.000
   507C     0.07367  0.08873   1.104  2.822  0.000
   508O    -0.30149 -0.50505   1.624  4.678  0.000
   509C    -0.04655 -0.09602   1.050  2.996  0.000
   510C     0.05792  0.12584   1.117  2.825  0.000
   511C    -0.03868 -0.08469   1.085  2.953  0.000
   512C    -0.03949 -0.08493   1.090  2.950  0.000
   513C     0.06363  0.13451   1.130  2.806  0.000
   514N    -0.28474 -0.47089   1.293  3.991  0.000
   515H     0.03442  0.09250   0.966  0.000  0.000
   516H     0.03311  0.09202   0.967  0.000  0.000
   517H     0.16263  0.37056   0.837  0.000  0.000
   518H     0.03266  0.09324   0.967  0.000  0.000
   519H     0.23128  0.40400   0.769  0.000  0.000
   520H     0.23689  0.41764   0.763  0.000  0.000
   521H     0.23414  0.40676   0.766  0.000  0.000
   522H     0.03303  0.09328   0.967  0.000  0.000
   523H     0.02384  0.08269   0.976  0.000  0.000
   524H     0.02364  0.08166   0.976  0.000  0.000
   525H     0.03430  0.09239   0.966  0.000  0.000
   526H     0.03348  0.09241   0.967  0.000  0.000
   527H     0.16261  0.37055   0.837  0.000  0.000
   528H     0.03485  0.09570   0.965  0.000  0.000
   529H     0.23499  0.41439   0.765  0.000  0.000
   530H     0.23947  0.41881   0.761  0.000  0.000
   531H     0.23325  0.40576   0.767  0.000  0.000
   532H     0.03236  0.09261   0.968  0.000  0.000
   533H     0.02300  0.08185   0.977  0.000  0.000
   534H     0.02378  0.08180   0.976  0.000  0.000
   535C     0.01611  0.02333   1.085  2.899  0.000
   536C     0.06578  0.13072   1.110  2.824  0.000
   537C    -0.03474 -0.07917   1.079  2.956  0.000
   538C    -0.03383 -0.07878   1.075  2.958  0.000
   539C     0.06015  0.12347   1.099  2.841  0.000
   540N    -0.15641 -0.50874   1.315  3.842  0.000
   541C     0.01176  0.01744   1.094  2.895  0.000
   542C    -0.00511 -0.01330   1.073  2.932  0.000
   543C    -0.04603 -0.09542   1.050  2.996  0.000
   544C     0.08258  0.09989   1.113  2.805  0.000
   545O    -0.29238 -0.48932   1.624  4.668  0.000
   546C     0.07836  0.10061   1.102  2.820  0.000
   547O    -0.29232 -0.48490   1.626  4.666  0.000
   548C     0.07288  0.08793   1.105  2.822  0.000
   549O    -0.30024 -0.50522   1.622  4.678  0.000
   550C    -0.04744 -0.09688   1.048  2.999  0.000
   551C     0.05744  0.12536   1.117  2.825  0.000
   552C    -0.03883 -0.08484   1.085  2.953  0.000
   553C    -0.03983 -0.08526   1.090  2.950  0.000
   554N    -0.28510 -0.47118   1.294  3.992  0.000
   555C     0.06357  0.13442   1.130  2.806  0.000
   556C     0.01555  0.02278   1.084  2.900  0.000
   557C     0.06612  0.13104   1.110  2.824  0.000
   558C    -0.03444 -0.07888   1.078  2.956  0.000
   559C    -0.03256 -0.07752   1.075  2.957  0.000
   560C     0.06096  0.12431   1.098  2.841  0.000
   561N    -0.15625 -0.50861   1.314  3.842  0.000
   562C     0.01264  0.01833   1.094  2.894  0.000
   563C    -0.00325 -0.01135   1.076  2.927  0.000
   564C    -0.04043 -0.08856   1.060  2.981  0.000
   565C     0.08254  0.09965   1.115  2.803  0.000
   566O    -0.29236 -0.48758   1.629  4.663  0.000
   567C     0.06824  0.08804   1.093  2.839  0.000
   568O    -0.30028 -0.50017   1.623  4.678  0.000
   569C     0.07367  0.08874   1.104  2.822  0.000
   570O    -0.30148 -0.50503   1.624  4.678  0.000
   571C    -0.04651 -0.09599   1.050  2.996  0.000
   572C     0.05782  0.12573   1.117  2.825  0.000
   573C    -0.03874 -0.08475   1.085  2.954  0.000
   574C    -0.03951 -0.08495   1.090  2.950  0.000
   575C     0.06361  0.13448   1.130  2.806  0.000
   576N    -0.28471 -0.47085   1.293  3.991  0.000
   577H     0.03444  0.09252   0.966  0.000  0.000
   578H     0.03308  0.09199   0.967  0.000  0.000
   579H     0.16256  0.37049   0.837  0.000  0.000
   580H     0.03261  0.09319   0.967  0.000  0.000
   581H     0.23121  0.40393   0.769  0.000  0.000
   582H     0.23687  0.41762   0.763  0.000  0.000
   583H     0.23414  0.40677   0.766  0.000  0.000
   584H     0.03302  0.09326   0.967  0.000  0.000
   585H     0.02370  0.08256   0.976  0.000  0.000
   586H     0.02338  0.08139   0.977  0.000  0.000
   587H     0.03399  0.09208   0.966  0.000  0.000
   588H     0.03331  0.09225   0.967  0.000  0.000
   589H     0.16257  0.37050   0.837  0.000  0.000
   590H     0.03475  0.09559   0.965  0.000  0.000
   591H     0.23493  0.41433   0.765  0.000  0.000
   592H     0.23947  0.41882   0.761  0.000  0.000
   593H     0.23328  0.40578   0.767  0.000  0.000
   594H     0.03239  0.09265   0.968  0.000  0.000
   595H     0.02296  0.08181   0.977  0.000  0.000
   596H     0.02381  0.08182   0.976  0.000  0.000
   597C     0.01692  0.02415   1.086  2.898  0.000
   598C     0.06591  0.13086   1.110  2.824  0.000
   599C    -0.03423 -0.07866   1.079  2.955  0.000
   600C    -0.03356 -0.07852   1.075  2.958  0.000
   601C     0.06067  0.12398   1.099  2.840  0.000
   602N    -0.15628 -0.50863   1.315  3.842  0.000
   603C     0.01140  0.01709   1.093  2.895  0.000
   604C    -0.00525 -0.01343   1.073  2.932  0.000
   605C    -0.04601 -0.09538   1.050  2.996  0.000
   606C     0.08270  0.10002   1.113  2.805  0.000
   607O    -0.29220 -0.48914   1.624  4.668  0.000
   608C     0.07853  0.10078   1.102  2.819  0.000
   609O    -0.29212 -0.48471   1.626  4.666  0.000
   610C     0.07294  0.08798   1.105  2.822  0.000
   611O    -0.30014 -0.50512   1.622  4.678  0.000
   612C    -0.04749 -0.09694   1.048  2.999  0.000
   613C     0.05821  0.12631   1.118  2.824  0.000
   614C    -0.03831 -0.08432   1.086  2.952  0.000
   615C    -0.03933 -0.08478   1.090  2.949  0.000
   616N    -0.28533 -0.47148   1.293  3.992  0.000
   617C     0.06359  0.13423   1.130  2.806  0.000
   618C     0.01550  0.02275   1.084  2.901  0.000
   619C     0.06612  0.13096   1.110  2.824  0.000
   620C    -0.03430 -0.07874   1.079  2.955  0.000
   621C    -0.03233 -0.07729   1.076  2.957  0.000
   622C     0.06142  0.12484   1.099  2.840  0.000
   623N    -0.15654 -0.50891   1.314  3.843  0.000
   624C     0.01237  0.01807   1.093  2.894  0.000
   625C    -0.00334 -0.01143   1.076  2.927  0.000
   626C    -0.04058 -0.08869   1.060  2.981  0.000
   627C     0.08241  0.09951   1.115  2.803  0.000
   628O    -0.29260 -0.48781   1.629  4.663  0.000
   629C     0.06828  0.08807   1.093  2.839  0.000
   630O    -0.30024 -0.50014   1.623  4.678  0.000
   631C     0.07378  0.08884   1.104  2.822  0.000
   632O    -0.30129 -0.50485   1.624  4.678  0.000
   633C    -0.04644 -0.09592   1.050  2.996  0.000
   634C     0.05812  0.12606   1.117  2.825  0.000
   635C    -0.03864 -0.08466   1.085  2.954  0.000
   636C    -0.03920 -0.08464   1.090  2.949  0.000
   637C     0.06370  0.13458   1.130  2.806  0.000
   638N    -0.28442 -0.47063   1.293  3.991  0.000
   639H     0.03497  0.09305   0.965  0.000  0.000
   640H     0.03351  0.09243   0.966  0.000  0.000
   641H     0.16268  0.37065   0.837  0.000  0.000
   642H     0.03278  0.09337   0.967  0.000  0.000
   643H     0.23142  0.40413   0.769  0.000  0.000
   644H     0.23703  0.41778   0.763  0.000  0.000
   645H     0.23421  0.40685   0.766  0.000  0.000
   646H     0.03302  0.09327   0.967  0.000  0.000
   647H     0.02437  0.08320   0.976  0.000  0.000
   648H     0.02400  0.08201   0.976  0.000  0.000
   649H     0.03372  0.09179   0.966  0.000  0.000
   650H     0.03340  0.09231   0.967  0.000  0.000
   651H     0.16280  0.37080   0.837  0.000  0.000
   652H     0.03459  0.09544   0.965  0.000  0.000
   653H     0.23494  0.41437   0.765  0.000  0.000
   654H     0.23965  0.41901   0.760  0.000  0.000
   655H     0.23351  0.40602   0.766  0.000  0.000
   656H     0.03260  0.09286   0.967  0.000  0.000
   657H     0.02324  0.08208   0.977  0.000  0.000
   658H     0.02426  0.08227   0.976  0.000  0.000

Wiberg/Mayer (AO) data.
largest (>0.10) Wiberg bond orders for each atom

 ---------------------------------------------------------------------------
     #   Z sym  total        # sym  WBO       # sym  WBO       # sym  WBO
 ---------------------------------------------------------------------------
     1   6 C    3.819 --    41 C    1.385     2 C    1.375    43 H    0.996
     2   6 C    3.926 --     1 C    1.375     3 C    1.239     6 N    1.230
     3   6 C    3.843 --     4 C    1.602     2 C    1.239    44 H    0.992
     4   6 C    3.825 --     3 C    1.602     5 C    1.251    45 H    0.999
     5   6 C    3.901 --     7 C    1.345     4 C    1.251     6 N    1.231
     6   7 N    3.250 --     5 C    1.231     2 C    1.230    46 H    0.961
     7   6 C    3.838 --    17 C    1.366     5 C    1.345     8 C    1.053
     8   6 C    3.889 --    16 C    1.411     9 C    1.403     7 C    1.053
     9   6 C    3.816 --     8 C    1.403    10 C    1.401    47 H    0.992
    10   6 C    3.939 --     9 C    1.401    12 C    1.368    11 O    1.096
    11   8 O    2.114 --    10 C    1.096    48 H    0.962
    12   6 C    3.914 --    10 C    1.368    14 C    1.357    13 O    1.093
    13   8 O    2.105 --    12 C    1.093    49 H    0.960
    14   6 C    3.977 --    16 C    1.393    12 C    1.357    15 O    1.126
    15   8 O    2.160 --    14 C    1.126    50 H    0.962
    16   6 C    3.839 --     8 C    1.411    14 C    1.393    51 H    0.993
    17   6 C    3.928 --     7 C    1.366    20 N    1.359    18 C    1.162
    18   6 C    3.840 --    19 C    1.693    17 C    1.162    52 H    0.999
    19   6 C    3.853 --    18 C    1.693    21 C    1.166    53 H    0.999
    20   7 N    2.570 --    21 C    1.410    17 C    1.359
    21   6 C    3.946 --    20 N    1.410    22 C    1.294    19 C    1.166
    22   6 C    3.853 --    23 C    1.294    21 C    1.294   128 C    1.209
    23   6 C    3.907 --    22 C    1.294    24 C    1.263    27 N    1.249
    24   6 C    3.838 --    25 C    1.589    23 C    1.263    54 H    0.998
    25   6 C    3.820 --    24 C    1.589    26 C    1.257    55 H    0.999
    26   6 C    3.897 --    28 C    1.349    25 C    1.257    27 N    1.223
    27   7 N    3.261 --    23 C    1.249    26 C    1.223    56 H    0.960
    28   6 C    3.827 --    38 C    1.355    26 C    1.349    29 C    1.055
    29   6 C    3.889 --    30 C    1.409    37 C    1.403    28 C    1.055
    30   6 C    3.839 --    29 C    1.409    31 C    1.393    57 H    0.992
    31   6 C    3.978 --    30 C    1.393    33 C    1.357    32 O    1.126
    32   8 O    2.160 --    31 C    1.126    58 H    0.962
    33   6 C    3.914 --    35 C    1.368    31 C    1.357    34 O    1.093
    34   8 O    2.105 --    33 C    1.093    59 H    0.960
    35   6 C    3.939 --    37 C    1.401    33 C    1.368    36 O    1.095
    36   8 O    2.113 --    35 C    1.095    60 H    0.962
    37   6 C    3.815 --    29 C    1.403    35 C    1.401    61 H    0.992
    38   6 C    3.946 --    42 N    1.384    28 C    1.355    39 C    1.155
    39   6 C    3.843 --    40 C    1.706    38 C    1.155    62 H    1.000
    40   6 C    3.863 --    39 C    1.706    41 C    1.148    63 H    0.993
    41   6 C    3.968 --     1 C    1.385    42 N    1.374    40 C    1.148
    42   7 N    2.559 --    38 C    1.384    41 C    1.374
    43   1 H    1.032 --     1 C    0.996
    44   1 H    1.015 --     3 C    0.992
    45   1 H    1.026 --     4 C    0.999
    46   1 H    1.082 --     6 N    0.961
    47   1 H    1.024 --     9 C    0.992
    48   1 H    0.995 --    11 O    0.962
    49   1 H    0.990 --    13 O    0.960
    50   1 H    0.994 --    15 O    0.962
    51   1 H    1.030 --    16 C    0.993
    52   1 H    1.028 --    18 C    0.999
    53   1 H    1.029 --    19 C    0.999
    54   1 H    1.026 --    24 C    0.998
    55   1 H    1.026 --    25 C    0.999
    56   1 H    1.085 --    27 N    0.960
    57   1 H    1.030 --    30 C    0.992
    58   1 H    0.994 --    32 O    0.962
    59   1 H    0.990 --    34 O    0.960
    60   1 H    0.995 --    36 O    0.962
    61   1 H    1.023 --    37 C    0.992
    62   1 H    1.028 --    39 C    1.000
    63   1 H    1.018 --    40 C    0.993
    64   6 C    3.821 --   104 C    1.385    65 C    1.375   106 H    0.996
    65   6 C    3.926 --    64 C    1.375    66 C    1.239    69 N    1.229
    66   6 C    3.843 --    67 C    1.602    65 C    1.239   107 H    0.992
    67   6 C    3.825 --    66 C    1.602    68 C    1.250   108 H    0.999
    68   6 C    3.902 --    70 C    1.345    67 C    1.250    69 N    1.231
    69   7 N    3.251 --    68 C    1.231    65 C    1.229   109 H    0.961
    70   6 C    3.838 --    80 C    1.367    68 C    1.345    71 C    1.052
    71   6 C    3.889 --    79 C    1.411    72 C    1.404    70 C    1.052
    72   6 C    3.816 --    71 C    1.404    73 C    1.401   110 H    0.992
    73   6 C    3.939 --    72 C    1.401    75 C    1.368    74 O    1.095
    74   8 O    2.114 --    73 C    1.095   111 H    0.962
    75   6 C    3.914 --    73 C    1.368    77 C    1.357    76 O    1.092
    76   8 O    2.105 --    75 C    1.092   112 H    0.960
    77   6 C    3.978 --    79 C    1.393    75 C    1.357    78 O    1.126
    78   8 O    2.160 --    77 C    1.126   113 H    0.963
    79   6 C    3.839 --    71 C    1.411    77 C    1.393   114 H    0.992
    80   6 C    3.928 --    70 C    1.367    83 N    1.359    81 C    1.162
    81   6 C    3.841 --    82 C    1.694    80 C    1.162   115 H    0.999
    82   6 C    3.853 --    81 C    1.694    84 C    1.165   116 H    0.999
    83   7 N    2.572 --    84 C    1.410    80 C    1.359
    84   6 C    3.947 --    83 N    1.410    85 C    1.295    82 C    1.165
    85   6 C    3.855 --    86 C    1.296    84 C    1.295   162 C    1.206
    86   6 C    3.908 --    85 C    1.296    87 C    1.262    90 N    1.249
    87   6 C    3.838 --    88 C    1.591    86 C    1.262   117 H    0.998
    88   6 C    3.821 --    87 C    1.591    89 C    1.256   118 H    0.998
    89   6 C    3.898 --    91 C    1.350    88 C    1.256    90 N    1.223
    90   7 N    3.261 --    86 C    1.249    89 C    1.223   119 H    0.960
    91   6 C    3.828 --   101 C    1.354    89 C    1.350    92 C    1.054
    92   6 C    3.889 --    93 C    1.410   100 C    1.403    91 C    1.054
    93   6 C    3.839 --    92 C    1.410    94 C    1.393   120 H    0.992
    94   6 C    3.978 --    93 C    1.393    96 C    1.357    95 O    1.127
    95   8 O    2.161 --    94 C    1.127   121 H    0.962
    96   6 C    3.914 --    98 C    1.368    94 C    1.357    97 O    1.093
    97   8 O    2.105 --    96 C    1.093   122 H    0.960
    98   6 C    3.939 --   100 C    1.401    96 C    1.368    99 O    1.095
    99   8 O    2.113 --    98 C    1.095   123 H    0.962
   100   6 C    3.815 --    92 C    1.403    98 C    1.401   124 H    0.992
   101   6 C    3.946 --   105 N    1.384    91 C    1.354   102 C    1.155
   102   6 C    3.843 --   103 C    1.706   101 C    1.155   125 H    1.000
   103   6 C    3.864 --   102 C    1.706   104 C    1.148   126 H    0.993
   104   6 C    3.968 --    64 C    1.385   105 N    1.374   103 C    1.148
   105   7 N    2.561 --   101 C    1.384   104 C    1.374
   106   1 H    1.032 --    64 C    0.996
   107   1 H    1.015 --    66 C    0.992
   108   1 H    1.026 --    67 C    0.999
   109   1 H    1.082 --    69 N    0.961
   110   1 H    1.024 --    72 C    0.992
   111   1 H    0.995 --    74 O    0.962
   112   1 H    0.990 --    76 O    0.960
   113   1 H    0.994 --    78 O    0.963
   114   1 H    1.030 --    79 C    0.992
   115   1 H    1.028 --    81 C    0.999
   116   1 H    1.030 --    82 C    0.999
   117   1 H    1.026 --    87 C    0.998
   118   1 H    1.025 --    88 C    0.998
   119   1 H    1.085 --    90 N    0.960
   120   1 H    1.030 --    93 C    0.992
   121   1 H    0.994 --    95 O    0.962
   122   1 H    0.990 --    97 O    0.960
   123   1 H    0.995 --    99 O    0.962
   124   1 H    1.023 --   100 C    0.992
   125   1 H    1.028 --   102 C    1.000
   126   1 H    1.017 --   103 C    0.993
   127   6 C    3.803 --   128 C    2.510   129 C    1.319
   128   6 C    3.798 --   127 C    2.510    22 C    1.209   130 C    0.181
   129   6 C    3.798 --   130 C    2.508   127 C    1.319
   130   6 C    3.801 --   129 C    2.508   163 C    1.213   128 C    0.181
   131   6 C    3.799 --   132 C    2.492   133 C    1.334
   132   6 C    3.801 --   131 C    2.492   184 C    1.227   134 C    0.180
   133   6 C    3.799 --   134 C    2.492   131 C    1.334
   134   6 C    3.801 --   133 C    2.492   225 C    1.228   132 C    0.180
   135   6 C    3.799 --   136 C    2.491   137 C    1.335
   136   6 C    3.801 --   135 C    2.491   246 C    1.228   138 C    0.180
   137   6 C    3.799 --   138 C    2.491   135 C    1.335
   138   6 C    3.801 --   137 C    2.491   287 C    1.228   136 C    0.180
   139   6 C    3.799 --   140 C    2.492   141 C    1.334
   140   6 C    3.801 --   139 C    2.492   308 C    1.227   142 C    0.181
   141   6 C    3.799 --   142 C    2.492   139 C    1.334
   142   6 C    3.801 --   141 C    2.492   349 C    1.227   140 C    0.181
   143   6 C    3.799 --   144 C    2.493   145 C    1.334
   144   6 C    3.801 --   143 C    2.493   370 C    1.227   146 C    0.181
   145   6 C    3.799 --   146 C    2.492   143 C    1.334
   146   6 C    3.801 --   145 C    2.492   411 C    1.227   144 C    0.181
   147   6 C    3.799 --   148 C    2.492   149 C    1.334
   148   6 C    3.801 --   147 C    2.492   432 C    1.227   150 C    0.181
   149   6 C    3.799 --   150 C    2.492   147 C    1.334
   150   6 C    3.801 --   149 C    2.492   473 C    1.227   148 C    0.181
   151   6 C    3.799 --   152 C    2.491   153 C    1.335
   152   6 C    3.801 --   151 C    2.491   494 C    1.228   154 C    0.181
   153   6 C    3.799 --   154 C    2.491   151 C    1.335
   154   6 C    3.801 --   153 C    2.491   535 C    1.228   152 C    0.181
   155   6 C    3.799 --   156 C    2.492   157 C    1.334
   156   6 C    3.801 --   155 C    2.492   556 C    1.227   158 C    0.181
   157   6 C    3.800 --   158 C    2.492   155 C    1.334
   158   6 C    3.801 --   157 C    2.492   597 C    1.227   156 C    0.181
   159   6 C    3.798 --   160 C    2.510   161 C    1.316
   160   6 C    3.801 --   159 C    2.510   618 C    1.211   162 C    0.181
   161   6 C    3.803 --   162 C    2.513   159 C    1.316
   162   6 C    3.798 --   161 C    2.513    85 C    1.206   160 C    0.181
   163   6 C    3.831 --   203 C    1.291   164 C    1.287   130 C    1.213
   164   6 C    3.908 --   163 C    1.287   165 C    1.269   168 N    1.250
   165   6 C    3.829 --   166 C    1.580   164 C    1.269   205 H    0.998
   166   6 C    3.821 --   165 C    1.580   167 C    1.264   206 H    0.999
   167   6 C    3.888 --   169 C    1.340   166 C    1.264   168 N    1.222
   168   7 N    3.251 --   164 C    1.250   167 C    1.222   207 H    0.961
   169   6 C    3.830 --   179 C    1.372   167 C    1.340   170 C    1.052
   170   6 C    3.885 --   171 C    1.411   178 C    1.402   169 C    1.052
   171   6 C    3.813 --   170 C    1.411   172 C    1.394   208 H    0.992
   172   6 C    3.970 --   171 C    1.394   174 C    1.353   173 O    1.119
   173   8 O    2.150 --   172 C    1.119   209 H    0.963
   174   6 C    3.947 --   176 C    1.358   172 C    1.353   175 O    1.118
   175   8 O    2.148 --   174 C    1.118   210 H    0.961
   176   6 C    3.937 --   178 C    1.407   174 C    1.358   177 O    1.091
   177   8 O    2.108 --   176 C    1.091   211 H    0.962
   178   6 C    3.811 --   176 C    1.407   170 C    1.402   212 H    0.992
   179   6 C    3.924 --   169 C    1.372   182 N    1.353   180 C    1.164
   180   6 C    3.839 --   181 C    1.690   179 C    1.164   213 H    1.000
   181   6 C    3.849 --   180 C    1.690   183 C    1.168   214 H    1.000
   182   7 N    2.556 --   183 C    1.417   179 C    1.353
   183   6 C    3.944 --   182 N    1.417   184 C    1.284   181 C    1.168
   184   6 C    3.833 --   183 C    1.284   185 C    1.283   132 C    1.227
   185   6 C    3.905 --   184 C    1.283   186 C    1.271   189 N    1.252
   186   6 C    3.831 --   187 C    1.579   185 C    1.271   215 H    0.998
   187   6 C    3.817 --   186 C    1.579   188 C    1.264   216 H    0.999
   188   6 C    3.888 --   190 C    1.339   187 C    1.264   189 N    1.223
   189   7 N    3.253 --   185 C    1.252   188 C    1.223   217 H    0.961
   190   6 C    3.827 --   200 C    1.373   188 C    1.339   191 C    1.051
   191   6 C    3.889 --   192 C    1.411   199 C    1.405   190 C    1.051
   192   6 C    3.839 --   191 C    1.411   193 C    1.393   218 H    0.992
   193   6 C    3.978 --   192 C    1.393   195 C    1.357   194 O    1.126
   194   8 O    2.160 --   193 C    1.126   219 H    0.963
   195   6 C    3.914 --   197 C    1.368   193 C    1.357   196 O    1.092
   196   8 O    2.104 --   195 C    1.092   220 H    0.960
   197   6 C    3.939 --   199 C    1.400   195 C    1.368   198 O    1.095
   198   8 O    2.113 --   197 C    1.095   221 H    0.962
   199   6 C    3.815 --   191 C    1.405   197 C    1.400   222 H    0.992
   200   6 C    3.927 --   190 C    1.373   204 N    1.355   201 C    1.162
   201   6 C    3.841 --   202 C    1.693   200 C    1.162   223 H    1.000
   202   6 C    3.850 --   201 C    1.693   203 C    1.167   224 H    0.999
   203   6 C    3.948 --   204 N    1.412   163 C    1.291   202 C    1.167
   204   7 N    2.552 --   203 C    1.412   200 C    1.355
   205   1 H    1.025 --   165 C    0.998
   206   1 H    1.023 --   166 C    0.999
   207   1 H    1.083 --   168 N    0.961
   208   1 H    1.022 --   171 C    0.992
   209   1 H    1.001 --   173 O    0.963
   210   1 H    0.995 --   175 O    0.961
   211   1 H    0.995 --   177 O    0.962
   212   1 H    1.020 --   178 C    0.992
   213   1 H    1.026 --   180 C    1.000
   214   1 H    1.029 --   181 C    1.000
   215   1 H    1.026 --   186 C    0.998
   216   1 H    1.026 --   187 C    0.999
   217   1 H    1.083 --   189 N    0.961
   218   1 H    1.031 --   192 C    0.992
   219   1 H    0.994 --   194 O    0.963
   220   1 H    0.990 --   196 O    0.960
   221   1 H    0.995 --   198 O    0.962
   222   1 H    1.024 --   199 C    0.992
   223   1 H    1.028 --   201 C    1.000
   224   1 H    1.030 --   202 C    0.999
   225   6 C    3.829 --   265 C    1.283   226 C    1.280   134 C    1.228
   226   6 C    3.906 --   225 C    1.280   227 C    1.272   230 N    1.252
   227   6 C    3.829 --   228 C    1.576   226 C    1.272   267 H    0.999
   228   6 C    3.819 --   227 C    1.576   229 C    1.267   268 H    0.999
   229   6 C    3.888 --   231 C    1.337   228 C    1.267   230 N    1.222
   230   7 N    3.252 --   226 C    1.252   229 C    1.222   269 H    0.961
   231   6 C    3.828 --   241 C    1.374   229 C    1.337   232 C    1.053
   232   6 C    3.885 --   233 C    1.411   240 C    1.401   231 C    1.053
   233   6 C    3.813 --   232 C    1.411   234 C    1.395   270 H    0.993
   234   6 C    3.969 --   233 C    1.395   236 C    1.353   235 O    1.118
   235   8 O    2.150 --   234 C    1.118   271 H    0.963
   236   6 C    3.947 --   238 C    1.357   234 C    1.353   237 O    1.118
   237   8 O    2.148 --   236 C    1.118   272 H    0.961
   238   6 C    3.937 --   240 C    1.407   236 C    1.357   239 O    1.091
   239   8 O    2.108 --   238 C    1.091   273 H    0.961
   240   6 C    3.811 --   238 C    1.407   232 C    1.401   274 H    0.992
   241   6 C    3.925 --   231 C    1.374   244 N    1.352   242 C    1.164
   242   6 C    3.839 --   243 C    1.690   241 C    1.164   275 H    1.000
   243   6 C    3.849 --   242 C    1.690   245 C    1.168   276 H    1.000
   244   7 N    2.553 --   245 C    1.418   241 C    1.352
   245   6 C    3.945 --   244 N    1.418   246 C    1.283   243 C    1.168
   246   6 C    3.830 --   245 C    1.283   247 C    1.282   136 C    1.228
   247   6 C    3.906 --   246 C    1.282   248 C    1.271   251 N    1.252
   248   6 C    3.830 --   249 C    1.578   247 C    1.271   277 H    0.998
   249   6 C    3.818 --   248 C    1.578   250 C    1.265   278 H    0.999
   250   6 C    3.888 --   252 C    1.338   249 C    1.265   251 N    1.223
   251   7 N    3.252 --   247 C    1.252   250 C    1.223   279 H    0.962
   252   6 C    3.828 --   262 C    1.374   250 C    1.338   253 C    1.052
   253   6 C    3.889 --   254 C    1.411   261 C    1.404   252 C    1.052
   254   6 C    3.839 --   253 C    1.411   255 C    1.393   280 H    0.992
   255   6 C    3.977 --   254 C    1.393   257 C    1.357   256 O    1.126
   256   8 O    2.160 --   255 C    1.126   281 H    0.963
   257   6 C    3.914 --   259 C    1.368   255 C    1.357   258 O    1.092
   258   8 O    2.104 --   257 C    1.092   282 H    0.960
   259   6 C    3.939 --   261 C    1.401   257 C    1.368   260 O    1.095
   260   8 O    2.113 --   259 C    1.095   283 H    0.962
   261   6 C    3.815 --   253 C    1.404   259 C    1.401   284 H    0.992
   262   6 C    3.925 --   252 C    1.374   266 N    1.352   263 C    1.164
   263   6 C    3.839 --   264 C    1.690   262 C    1.164   285 H    1.000
   264   6 C    3.848 --   263 C    1.690   265 C    1.168   286 H    1.000
   265   6 C    3.945 --   266 N    1.417   225 C    1.283   264 C    1.168
   266   7 N    2.552 --   265 C    1.417   262 C    1.352
   267   1 H    1.025 --   227 C    0.999
   268   1 H    1.024 --   228 C    0.999
   269   1 H    1.083 --   230 N    0.961
   270   1 H    1.022 --   233 C    0.993
   271   1 H    1.001 --   235 O    0.963
   272   1 H    0.995 --   237 O    0.961
   273   1 H    0.995 --   239 O    0.961
   274   1 H    1.020 --   240 C    0.992
   275   1 H    1.026 --   242 C    1.000
   276   1 H    1.030 --   243 C    1.000
   277   1 H    1.026 --   248 C    0.998
   278   1 H    1.026 --   249 C    0.999
   279   1 H    1.083 --   251 N    0.962
   280   1 H    1.031 --   254 C    0.992
   281   1 H    0.994 --   256 O    0.963
   282   1 H    0.991 --   258 O    0.960
   283   1 H    0.995 --   260 O    0.962
   284   1 H    1.024 --   261 C    0.992
   285   1 H    1.028 --   263 C    1.000
   286   1 H    1.030 --   264 C    1.000
   287   6 C    3.831 --   327 C    1.284   288 C    1.281   138 C    1.228
   288   6 C    3.906 --   287 C    1.281   289 C    1.272   292 N    1.252
   289   6 C    3.829 --   290 C    1.577   288 C    1.272   329 H    0.998
   290   6 C    3.819 --   289 C    1.577   291 C    1.266   330 H    0.999
   291   6 C    3.888 --   293 C    1.337   290 C    1.266   292 N    1.223
   292   7 N    3.252 --   288 C    1.252   291 C    1.223   331 H    0.961
   293   6 C    3.828 --   303 C    1.374   291 C    1.337   294 C    1.054
   294   6 C    3.885 --   295 C    1.411   302 C    1.401   293 C    1.054
   295   6 C    3.813 --   294 C    1.411   296 C    1.395   332 H    0.993
   296   6 C    3.969 --   295 C    1.395   298 C    1.353   297 O    1.118
   297   8 O    2.150 --   296 C    1.118   333 H    0.963
   298   6 C    3.947 --   300 C    1.357   296 C    1.353   299 O    1.118
   299   8 O    2.148 --   298 C    1.118   334 H    0.960
   300   6 C    3.937 --   302 C    1.407   298 C    1.357   301 O    1.092
   301   8 O    2.108 --   300 C    1.092   335 H    0.961
   302   6 C    3.811 --   300 C    1.407   294 C    1.401   336 H    0.992
   303   6 C    3.925 --   293 C    1.374   306 N    1.352   304 C    1.164
   304   6 C    3.840 --   305 C    1.691   303 C    1.164   337 H    1.000
   305   6 C    3.849 --   304 C    1.691   307 C    1.168   338 H    1.000
   306   7 N    2.553 --   307 C    1.418   303 C    1.352
   307   6 C    3.945 --   306 N    1.418   308 C    1.283   305 C    1.168
   308   6 C    3.831 --   307 C    1.283   309 C    1.282   140 C    1.227
   309   6 C    3.906 --   308 C    1.282   310 C    1.271   313 N    1.252
   310   6 C    3.830 --   311 C    1.579   309 C    1.271   339 H    0.998
   311   6 C    3.818 --   310 C    1.579   312 C    1.265   340 H    0.999
   312   6 C    3.888 --   314 C    1.339   311 C    1.265   313 N    1.222
   313   7 N    3.252 --   309 C    1.252   312 C    1.222   341 H    0.961
   314   6 C    3.828 --   324 C    1.373   312 C    1.339   315 C    1.052
   315   6 C    3.889 --   316 C    1.411   323 C    1.404   314 C    1.052
   316   6 C    3.839 --   315 C    1.411   317 C    1.393   342 H    0.992
   317   6 C    3.977 --   316 C    1.393   319 C    1.357   318 O    1.126
   318   8 O    2.160 --   317 C    1.126   343 H    0.963
   319   6 C    3.914 --   321 C    1.368   317 C    1.357   320 O    1.092
   320   8 O    2.105 --   319 C    1.092   344 H    0.960
   321   6 C    3.939 --   323 C    1.401   319 C    1.368   322 O    1.095
   322   8 O    2.113 --   321 C    1.095   345 H    0.962
   323   6 C    3.815 --   315 C    1.404   321 C    1.401   346 H    0.992
   324   6 C    3.925 --   314 C    1.373   328 N    1.353   325 C    1.164
   325   6 C    3.839 --   326 C    1.690   324 C    1.164   347 H    1.000
   326   6 C    3.849 --   325 C    1.690   327 C    1.168   348 H    1.000
   327   6 C    3.945 --   328 N    1.417   287 C    1.284   326 C    1.168
   328   7 N    2.553 --   327 C    1.417   324 C    1.353
   329   1 H    1.025 --   289 C    0.998
   330   1 H    1.024 --   290 C    0.999
   331   1 H    1.083 --   292 N    0.961
   332   1 H    1.022 --   295 C    0.993
   333   1 H    1.001 --   297 O    0.963
   334   1 H    0.995 --   299 O    0.960
   335   1 H    0.995 --   301 O    0.961
   336   1 H    1.020 --   302 C    0.992
   337   1 H    1.026 --   304 C    1.000
   338   1 H    1.029 --   305 C    1.000
   339   1 H    1.026 --   310 C    0.998
   340   1 H    1.026 --   311 C    0.999
   341   1 H    1.083 --   313 N    0.961
   342   1 H    1.031 --   316 C    0.992
   343   1 H    0.994 --   318 O    0.963
   344   1 H    0.990 --   320 O    0.960
   345   1 H    0.995 --   322 O    0.962
   346   1 H    1.024 --   323 C    0.992
   347   1 H    1.028 --   325 C    1.000
   348   1 H    1.030 --   326 C    1.000
   349   6 C    3.832 --   389 C    1.284   350 C    1.281   142 C    1.227
   350   6 C    3.906 --   349 C    1.281   351 C    1.272   354 N    1.252
   351   6 C    3.830 --   352 C    1.577   350 C    1.272   391 H    0.998
   352   6 C    3.819 --   351 C    1.577   353 C    1.266   392 H    0.999
   353   6 C    3.889 --   355 C    1.337   352 C    1.266   354 N    1.223
   354   7 N    3.252 --   350 C    1.252   353 C    1.223   393 H    0.961
   355   6 C    3.828 --   365 C    1.373   353 C    1.337   356 C    1.054
   356   6 C    3.885 --   357 C    1.411   364 C    1.401   355 C    1.054
   357   6 C    3.813 --   356 C    1.411   358 C    1.395   394 H    0.993
   358   6 C    3.969 --   357 C    1.395   360 C    1.353   359 O    1.118
   359   8 O    2.150 --   358 C    1.118   395 H    0.963
   360   6 C    3.947 --   362 C    1.357   358 C    1.353   361 O    1.119
   361   8 O    2.148 --   360 C    1.119   396 H    0.960
   362   6 C    3.937 --   364 C    1.407   360 C    1.357   363 O    1.092
   363   8 O    2.108 --   362 C    1.092   397 H    0.961
   364   6 C    3.811 --   362 C    1.407   356 C    1.401   398 H    0.992
   365   6 C    3.925 --   355 C    1.373   368 N    1.352   366 C    1.164
   366   6 C    3.840 --   367 C    1.691   365 C    1.164   399 H    1.000
   367   6 C    3.849 --   366 C    1.691   369 C    1.168   400 H    1.000
   368   7 N    2.554 --   369 C    1.417   365 C    1.352
   369   6 C    3.945 --   368 N    1.417   370 C    1.284   367 C    1.168
   370   6 C    3.832 --   369 C    1.284   371 C    1.282   144 C    1.227
   371   6 C    3.906 --   370 C    1.282   372 C    1.271   375 N    1.252
   372   6 C    3.831 --   373 C    1.579   371 C    1.271   401 H    0.998
   373   6 C    3.818 --   372 C    1.579   374 C    1.265   402 H    0.999
   374   6 C    3.889 --   376 C    1.339   373 C    1.265   375 N    1.223
   375   7 N    3.252 --   371 C    1.252   374 C    1.223   403 H    0.961
   376   6 C    3.828 --   386 C    1.373   374 C    1.339   377 C    1.053
   377   6 C    3.889 --   378 C    1.411   385 C    1.404   376 C    1.053
   378   6 C    3.839 --   377 C    1.411   379 C    1.393   404 H    0.992
   379   6 C    3.977 --   378 C    1.393   381 C    1.357   380 O    1.126
   380   8 O    2.161 --   379 C    1.126   405 H    0.963
   381   6 C    3.914 --   383 C    1.368   379 C    1.357   382 O    1.092
   382   8 O    2.105 --   381 C    1.092   406 H    0.960
   383   6 C    3.939 --   385 C    1.401   381 C    1.368   384 O    1.095
   384   8 O    2.113 --   383 C    1.095   407 H    0.962
   385   6 C    3.815 --   377 C    1.404   383 C    1.401   408 H    0.992
   386   6 C    3.925 --   376 C    1.373   390 N    1.353   387 C    1.164
   387   6 C    3.839 --   388 C    1.691   386 C    1.164   409 H    1.000
   388   6 C    3.849 --   387 C    1.691   389 C    1.168   410 H    1.000
   389   6 C    3.945 --   390 N    1.417   349 C    1.284   388 C    1.168
   390   7 N    2.553 --   389 C    1.417   386 C    1.353
   391   1 H    1.025 --   351 C    0.998
   392   1 H    1.023 --   352 C    0.999
   393   1 H    1.083 --   354 N    0.961
   394   1 H    1.022 --   357 C    0.993
   395   1 H    1.001 --   359 O    0.963
   396   1 H    0.995 --   361 O    0.960
   397   1 H    0.995 --   363 O    0.961
   398   1 H    1.020 --   364 C    0.992
   399   1 H    1.026 --   366 C    1.000
   400   1 H    1.029 --   367 C    1.000
   401   1 H    1.026 --   372 C    0.998
   402   1 H    1.026 --   373 C    0.999
   403   1 H    1.083 --   375 N    0.961
   404   1 H    1.030 --   378 C    0.992
   405   1 H    0.994 --   380 O    0.963
   406   1 H    0.990 --   382 O    0.960
   407   1 H    0.995 --   384 O    0.962
   408   1 H    1.024 --   385 C    0.992
   409   1 H    1.028 --   387 C    1.000
   410   1 H    1.029 --   388 C    1.000
   411   6 C    3.832 --   451 C    1.284   412 C    1.281   146 C    1.227
   412   6 C    3.906 --   411 C    1.281   413 C    1.272   416 N    1.252
   413   6 C    3.830 --   414 C    1.577   412 C    1.272   453 H    0.998
   414   6 C    3.820 --   413 C    1.577   415 C    1.266   454 H    0.999
   415   6 C    3.889 --   417 C    1.337   414 C    1.266   416 N    1.223
   416   7 N    3.252 --   412 C    1.252   415 C    1.223   455 H    0.961
   417   6 C    3.829 --   427 C    1.373   415 C    1.337   418 C    1.054
   418   6 C    3.885 --   419 C    1.410   426 C    1.401   417 C    1.054
   419   6 C    3.813 --   418 C    1.410   420 C    1.395   456 H    0.993
   420   6 C    3.969 --   419 C    1.395   422 C    1.353   421 O    1.118
   421   8 O    2.150 --   420 C    1.118   457 H    0.963
   422   6 C    3.947 --   424 C    1.357   420 C    1.353   423 O    1.119
   423   8 O    2.148 --   422 C    1.119   458 H    0.960
   424   6 C    3.937 --   426 C    1.407   422 C    1.357   425 O    1.092
   425   8 O    2.108 --   424 C    1.092   459 H    0.961
   426   6 C    3.811 --   424 C    1.407   418 C    1.401   460 H    0.992
   427   6 C    3.925 --   417 C    1.373   430 N    1.352   428 C    1.164
   428   6 C    3.840 --   429 C    1.691   427 C    1.164   461 H    1.000
   429   6 C    3.849 --   428 C    1.691   431 C    1.168   462 H    1.000
   430   7 N    2.554 --   431 C    1.417   427 C    1.352
   431   6 C    3.945 --   430 N    1.417   432 C    1.283   429 C    1.168
   432   6 C    3.832 --   431 C    1.283   433 C    1.282   148 C    1.227
   433   6 C    3.906 --   432 C    1.282   434 C    1.271   437 N    1.252
   434   6 C    3.831 --   435 C    1.579   433 C    1.271   463 H    0.998
   435   6 C    3.818 --   434 C    1.579   436 C    1.265   464 H    0.999
   436   6 C    3.889 --   438 C    1.339   435 C    1.265   437 N    1.223
   437   7 N    3.252 --   433 C    1.252   436 C    1.223   465 H    0.961
   438   6 C    3.828 --   448 C    1.373   436 C    1.339   439 C    1.053
   439   6 C    3.889 --   440 C    1.411   447 C    1.404   438 C    1.053
   440   6 C    3.839 --   439 C    1.411   441 C    1.393   466 H    0.992
   441   6 C    3.977 --   440 C    1.393   443 C    1.357   442 O    1.126
   442   8 O    2.160 --   441 C    1.126   467 H    0.963
   443   6 C    3.914 --   445 C    1.368   441 C    1.357   444 O    1.092
   444   8 O    2.105 --   443 C    1.092   468 H    0.960
   445   6 C    3.939 --   447 C    1.401   443 C    1.368   446 O    1.095
   446   8 O    2.113 --   445 C    1.095   469 H    0.962
   447   6 C    3.815 --   439 C    1.404   445 C    1.401   470 H    0.992
   448   6 C    3.925 --   438 C    1.373   452 N    1.353   449 C    1.164
   449   6 C    3.839 --   450 C    1.691   448 C    1.164   471 H    1.000
   450   6 C    3.849 --   449 C    1.691   451 C    1.168   472 H    1.000
   451   6 C    3.945 --   452 N    1.417   411 C    1.284   450 C    1.168
   452   7 N    2.553 --   451 C    1.417   448 C    1.353
   453   1 H    1.025 --   413 C    0.998
   454   1 H    1.023 --   414 C    0.999
   455   1 H    1.083 --   416 N    0.961
   456   1 H    1.022 --   419 C    0.993
   457   1 H    1.001 --   421 O    0.963
   458   1 H    0.995 --   423 O    0.960
   459   1 H    0.995 --   425 O    0.961
   460   1 H    1.020 --   426 C    0.992
   461   1 H    1.026 --   428 C    1.000
   462   1 H    1.029 --   429 C    1.000
   463   1 H    1.026 --   434 C    0.998
   464   1 H    1.026 --   435 C    0.999
   465   1 H    1.083 --   437 N    0.961
   466   1 H    1.030 --   440 C    0.992
   467   1 H    0.994 --   442 O    0.963
   468   1 H    0.990 --   444 O    0.960
   469   1 H    0.995 --   446 O    0.962
   470   1 H    1.024 --   447 C    0.992
   471   1 H    1.028 --   449 C    1.000
   472   1 H    1.029 --   450 C    1.000
   473   6 C    3.831 --   513 C    1.284   474 C    1.281   150 C    1.227
   474   6 C    3.906 --   473 C    1.281   475 C    1.272   478 N    1.252
   475   6 C    3.829 --   476 C    1.577   474 C    1.272   515 H    0.998
   476   6 C    3.819 --   475 C    1.577   477 C    1.266   516 H    0.999
   477   6 C    3.888 --   479 C    1.337   476 C    1.266   478 N    1.223
   478   7 N    3.252 --   474 C    1.252   477 C    1.223   517 H    0.961
   479   6 C    3.828 --   489 C    1.373   477 C    1.337   480 C    1.054
   480   6 C    3.885 --   481 C    1.411   488 C    1.401   479 C    1.054
   481   6 C    3.813 --   480 C    1.411   482 C    1.395   518 H    0.993
   482   6 C    3.969 --   481 C    1.395   484 C    1.353   483 O    1.118
   483   8 O    2.150 --   482 C    1.118   519 H    0.963
   484   6 C    3.947 --   486 C    1.357   482 C    1.353   485 O    1.119
   485   8 O    2.148 --   484 C    1.119   520 H    0.960
   486   6 C    3.937 --   488 C    1.407   484 C    1.357   487 O    1.092
   487   8 O    2.108 --   486 C    1.092   521 H    0.961
   488   6 C    3.811 --   486 C    1.407   480 C    1.401   522 H    0.992
   489   6 C    3.925 --   479 C    1.373   492 N    1.352   490 C    1.164
   490   6 C    3.840 --   491 C    1.690   489 C    1.164   523 H    1.000
   491   6 C    3.849 --   490 C    1.690   493 C    1.168   524 H    1.000
   492   7 N    2.554 --   493 C    1.417   489 C    1.352
   493   6 C    3.945 --   492 N    1.417   494 C    1.283   491 C    1.168
   494   6 C    3.831 --   493 C    1.283   495 C    1.282   152 C    1.228
   495   6 C    3.906 --   494 C    1.282   496 C    1.271   499 N    1.252
   496   6 C    3.830 --   497 C    1.579   495 C    1.271   525 H    0.999
   497   6 C    3.818 --   496 C    1.579   498 C    1.265   526 H    0.999
   498   6 C    3.888 --   500 C    1.338   497 C    1.265   499 N    1.223
   499   7 N    3.252 --   495 C    1.252   498 C    1.223   527 H    0.961
   500   6 C    3.828 --   510 C    1.373   498 C    1.338   501 C    1.053
   501   6 C    3.889 --   502 C    1.411   509 C    1.404   500 C    1.053
   502   6 C    3.839 --   501 C    1.411   503 C    1.393   528 H    0.992
   503   6 C    3.977 --   502 C    1.393   505 C    1.357   504 O    1.126
   504   8 O    2.160 --   503 C    1.126   529 H    0.963
   505   6 C    3.914 --   507 C    1.368   503 C    1.357   506 O    1.092
   506   8 O    2.105 --   505 C    1.092   530 H    0.960
   507   6 C    3.939 --   509 C    1.401   505 C    1.368   508 O    1.095
   508   8 O    2.113 --   507 C    1.095   531 H    0.962
   509   6 C    3.815 --   501 C    1.404   507 C    1.401   532 H    0.992
   510   6 C    3.925 --   500 C    1.373   514 N    1.353   511 C    1.164
   511   6 C    3.839 --   512 C    1.691   510 C    1.164   533 H    1.000
   512   6 C    3.849 --   511 C    1.691   513 C    1.168   534 H    1.000
   513   6 C    3.945 --   514 N    1.417   473 C    1.284   512 C    1.168
   514   7 N    2.553 --   513 C    1.417   510 C    1.353
   515   1 H    1.025 --   475 C    0.998
   516   1 H    1.023 --   476 C    0.999
   517   1 H    1.083 --   478 N    0.961
   518   1 H    1.022 --   481 C    0.993
   519   1 H    1.001 --   483 O    0.963
   520   1 H    0.995 --   485 O    0.960
   521   1 H    0.995 --   487 O    0.961
   522   1 H    1.020 --   488 C    0.992
   523   1 H    1.026 --   490 C    1.000
   524   1 H    1.030 --   491 C    1.000
   525   1 H    1.026 --   496 C    0.999
   526   1 H    1.026 --   497 C    0.999
   527   1 H    1.083 --   499 N    0.961
   528   1 H    1.030 --   502 C    0.992
   529   1 H    0.994 --   504 O    0.963
   530   1 H    0.990 --   506 O    0.960
   531   1 H    0.995 --   508 O    0.962
   532   1 H    1.024 --   509 C    0.992
   533   1 H    1.028 --   511 C    1.000
   534   1 H    1.030 --   512 C    1.000
   535   6 C    3.830 --   575 C    1.284   536 C    1.281   154 C    1.228
   536   6 C    3.906 --   535 C    1.281   537 C    1.272   540 N    1.252
   537   6 C    3.829 --   538 C    1.577   536 C    1.272   577 H    0.998
   538   6 C    3.819 --   537 C    1.577   539 C    1.266   578 H    0.999
   539   6 C    3.888 --   541 C    1.337   538 C    1.266   540 N    1.223
   540   7 N    3.252 --   536 C    1.252   539 C    1.223   579 H    0.961
   541   6 C    3.828 --   551 C    1.374   539 C    1.337   542 C    1.054
   542   6 C    3.885 --   543 C    1.411   550 C    1.401   541 C    1.054
   543   6 C    3.813 --   542 C    1.411   544 C    1.395   580 H    0.993
   544   6 C    3.969 --   543 C    1.395   546 C    1.353   545 O    1.118
   545   8 O    2.150 --   544 C    1.118   581 H    0.964
   546   6 C    3.947 --   548 C    1.357   544 C    1.353   547 O    1.118
   547   8 O    2.148 --   546 C    1.118   582 H    0.960
   548   6 C    3.937 --   550 C    1.407   546 C    1.357   549 O    1.092
   549   8 O    2.108 --   548 C    1.092   583 H    0.961
   550   6 C    3.811 --   548 C    1.407   542 C    1.401   584 H    0.992
   551   6 C    3.925 --   541 C    1.374   554 N    1.352   552 C    1.164
   552   6 C    3.840 --   553 C    1.691   551 C    1.164   585 H    1.000
   553   6 C    3.849 --   552 C    1.691   555 C    1.168   586 H    1.000
   554   7 N    2.553 --   555 C    1.418   551 C    1.352
   555   6 C    3.945 --   554 N    1.418   556 C    1.283   553 C    1.168
   556   6 C    3.830 --   555 C    1.283   557 C    1.282   156 C    1.227
   557   6 C    3.906 --   556 C    1.282   558 C    1.271   561 N    1.252
   558   6 C    3.829 --   559 C    1.579   557 C    1.271   587 H    0.999
   559   6 C    3.818 --   558 C    1.579   560 C    1.265   588 H    0.999
   560   6 C    3.888 --   562 C    1.339   559 C    1.265   561 N    1.222
   561   7 N    3.252 --   557 C    1.252   560 C    1.222   589 H    0.961
   562   6 C    3.828 --   572 C    1.373   560 C    1.339   563 C    1.053
   563   6 C    3.889 --   564 C    1.411   571 C    1.404   562 C    1.053
   564   6 C    3.839 --   563 C    1.411   565 C    1.393   590 H    0.992
   565   6 C    3.977 --   564 C    1.393   567 C    1.357   566 O    1.126
   566   8 O    2.160 --   565 C    1.126   591 H    0.963
   567   6 C    3.914 --   569 C    1.368   565 C    1.357   568 O    1.092
   568   8 O    2.105 --   567 C    1.092   592 H    0.960
   569   6 C    3.939 --   571 C    1.401   567 C    1.368   570 O    1.095
   570   8 O    2.113 --   569 C    1.095   593 H    0.962
   571   6 C    3.815 --   563 C    1.404   569 C    1.401   594 H    0.992
   572   6 C    3.925 --   562 C    1.373   576 N    1.353   573 C    1.164
   573   6 C    3.839 --   574 C    1.690   572 C    1.164   595 H    1.000
   574   6 C    3.849 --   573 C    1.690   575 C    1.168   596 H    1.000
   575   6 C    3.945 --   576 N    1.417   535 C    1.284   574 C    1.168
   576   7 N    2.553 --   575 C    1.417   572 C    1.353
   577   1 H    1.025 --   537 C    0.998
   578   1 H    1.023 --   538 C    0.999
   579   1 H    1.083 --   540 N    0.961
   580   1 H    1.022 --   543 C    0.993
   581   1 H    1.001 --   545 O    0.964
   582   1 H    0.995 --   547 O    0.960
   583   1 H    0.995 --   549 O    0.961
   584   1 H    1.020 --   550 C    0.992
   585   1 H    1.026 --   552 C    1.000
   586   1 H    1.030 --   553 C    1.000
   587   1 H    1.026 --   558 C    0.999
   588   1 H    1.026 --   559 C    0.999
   589   1 H    1.083 --   561 N    0.961
   590   1 H    1.031 --   564 C    0.992
   591   1 H    0.994 --   566 O    0.963
   592   1 H    0.990 --   568 O    0.960
   593   1 H    0.995 --   570 O    0.962
   594   1 H    1.024 --   571 C    0.992
   595   1 H    1.028 --   573 C    1.000
   596   1 H    1.030 --   574 C    1.000
   597   6 C    3.834 --   637 C    1.285   598 C    1.282   158 C    1.227
   598   6 C    3.906 --   597 C    1.282   599 C    1.272   602 N    1.252
   599   6 C    3.830 --   600 C    1.578   598 C    1.272   639 H    0.998
   600   6 C    3.819 --   599 C    1.578   601 C    1.265   640 H    0.999
   601   6 C    3.889 --   603 C    1.337   600 C    1.265   602 N    1.224
   602   7 N    3.254 --   598 C    1.252   601 C    1.224   641 H    0.961
   603   6 C    3.828 --   613 C    1.372   601 C    1.337   604 C    1.054
   604   6 C    3.885 --   605 C    1.410   612 C    1.401   603 C    1.054
   605   6 C    3.813 --   604 C    1.410   606 C    1.395   642 H    0.993
   606   6 C    3.969 --   605 C    1.395   608 C    1.353   607 O    1.119
   607   8 O    2.150 --   606 C    1.119   643 H    0.963
   608   6 C    3.947 --   610 C    1.357   606 C    1.353   609 O    1.119
   609   8 O    2.148 --   608 C    1.119   644 H    0.960
   610   6 C    3.937 --   612 C    1.407   608 C    1.357   611 O    1.092
   611   8 O    2.108 --   610 C    1.092   645 H    0.961
   612   6 C    3.810 --   610 C    1.407   604 C    1.401   646 H    0.992
   613   6 C    3.927 --   603 C    1.372   616 N    1.356   614 C    1.162
   614   6 C    3.841 --   615 C    1.693   613 C    1.162   647 H    1.000
   615   6 C    3.850 --   614 C    1.693   617 C    1.166   648 H    0.999
   616   7 N    2.553 --   617 C    1.411   613 C    1.356
   617   6 C    3.948 --   616 N    1.411   618 C    1.291   615 C    1.166
   618   6 C    3.833 --   617 C    1.291   619 C    1.289   160 C    1.211
   619   6 C    3.908 --   618 C    1.289   620 C    1.268   623 N    1.250
   620   6 C    3.831 --   621 C    1.582   619 C    1.268   649 H    0.998
   621   6 C    3.820 --   620 C    1.582   622 C    1.263   650 H    0.999
   622   6 C    3.889 --   624 C    1.341   621 C    1.263   623 N    1.223
   623   7 N    3.251 --   619 C    1.250   622 C    1.223   651 H    0.961
   624   6 C    3.830 --   634 C    1.371   622 C    1.341   625 C    1.053
   625   6 C    3.889 --   626 C    1.411   633 C    1.404   624 C    1.053
   626   6 C    3.839 --   625 C    1.411   627 C    1.393   652 H    0.993
   627   6 C    3.977 --   626 C    1.393   629 C    1.357   628 O    1.126
   628   8 O    2.160 --   627 C    1.126   653 H    0.963
   629   6 C    3.914 --   631 C    1.368   627 C    1.357   630 O    1.092
   630   8 O    2.105 --   629 C    1.092   654 H    0.960
   631   6 C    3.939 --   633 C    1.401   629 C    1.368   632 O    1.095
   632   8 O    2.113 --   631 C    1.095   655 H    0.962
   633   6 C    3.815 --   625 C    1.404   631 C    1.401   656 H    0.992
   634   6 C    3.925 --   624 C    1.371   638 N    1.354   635 C    1.164
   635   6 C    3.839 --   636 C    1.690   634 C    1.164   657 H    1.000
   636   6 C    3.849 --   635 C    1.690   637 C    1.168   658 H    0.999
   637   6 C    3.944 --   638 N    1.416   597 C    1.285   636 C    1.168
   638   7 N    2.556 --   637 C    1.416   634 C    1.354
   639   1 H    1.025 --   599 C    0.998
   640   1 H    1.023 --   600 C    0.999
   641   1 H    1.083 --   602 N    0.961
   642   1 H    1.022 --   605 C    0.993
   643   1 H    1.001 --   607 O    0.963
   644   1 H    0.995 --   609 O    0.960
   645   1 H    0.995 --   611 O    0.961
   646   1 H    1.020 --   612 C    0.992
   647   1 H    1.026 --   614 C    1.000
   648   1 H    1.029 --   615 C    0.999
   649   1 H    1.026 --   620 C    0.998
   650   1 H    1.026 --   621 C    0.999
   651   1 H    1.083 --   623 N    0.961
   652   1 H    1.031 --   626 C    0.993
   653   1 H    0.994 --   628 O    0.963
   654   1 H    0.990 --   630 O    0.960
   655   1 H    0.995 --   632 O    0.962
   656   1 H    1.024 --   633 C    0.992
   657   1 H    1.028 --   635 C    1.000
   658   1 H    1.029 --   636 C    0.999
 ---------------------------------------------------------------------------

Topologies differ in total number of bonds
Writing topology from bond orders to xtbtopo.mol

 dipole moment from electron density (au)
     X       Y       Z   
-387.7600  11.5669   1.5147  total (Debye):  986.034


           -------------------------------------------------
          | TOTAL ENERGY            -1408.416929813800 Eh   |
          | GRADIENT NORM               0.160534201327 Eh/α |
          | HOMO-LUMO GAP               0.043829463038 eV   |
           -------------------------------------------------
########################################################################
[WARNING] Runtime exception occurred
-1- restart_readRestart: Dimension missmatch in restart file.
########################################################################

------------------------------------------------------------------------
 * finished run on 2022/07/29 at 18:59:31.182     
------------------------------------------------------------------------
 total:
 * wall-time:     0 d,  0 h,  4 min, 18.354 sec
 *  cpu-time:     0 d,  0 h,  4 min, 17.173 sec
 * ratio c/w:     0.995 speedup
 SCF:
 * wall-time:     0 d,  0 h,  4 min, 16.441 sec
 *  cpu-time:     0 d,  0 h,  4 min, 15.280 sec
 * ratio c/w:     0.995 speedup

