      -----------------------------------------------------------      
     |                   =====================                   |     
     |                           x T B                           |     
     |                   =====================                   |     
     |                         S. Grimme                         |     
     |          Mulliken Center for Theoretical Chemistry        |     
     |                    University of Bonn                     |     
      -----------------------------------------------------------      

   * xtb version 6.5.1 (b24c23e) compiled by 'conda@728c89f4b128' on 2022-07-12

   xtb is free software: you can redistribute it and/or modify it under
   the terms of the GNU Lesser General Public License as published by
   the Free Software Foundation, either version 3 of the License, or
   (at your option) any later version.
   
   xtb is distributed in the hope that it will be useful,
   but WITHOUT ANY WARRANTY; without even the implied warranty of
   MERCHANTABILITY or FITNESS FOR A PARTICULAR PURPOSE.  See the
   GNU Lesser General Public License for more details.
   
   Cite this work as:
   * C. Bannwarth, E. Caldeweyher, S. Ehlert, A. Hansen, P. Pracht,
     J. Seibert, S. Spicher, S. Grimme, WIREs Comput. Mol. Sci., 2020, 11,
     e01493. DOI: 10.1002/wcms.1493
   
   for GFN2-xTB:
   * C. Bannwarth, S. Ehlert and S. Grimme., J. Chem. Theory Comput., 2019,
     15, 1652-1671. DOI: 10.1021/acs.jctc.8b01176
   for GFN1-xTB:
   * S. Grimme, C. Bannwarth, P. Shushkov, J. Chem. Theory Comput., 2017,
     13, 1989-2009. DOI: 10.1021/acs.jctc.7b00118
   for GFN0-xTB:
   * P. Pracht, E. Caldeweyher, S. Ehlert, S. Grimme, ChemRxiv, 2019, preprint.
     DOI: 10.26434/chemrxiv.8326202.v1
   for GFN-FF:
   * S. Spicher and S. Grimme, Angew. Chem. Int. Ed., 2020, 59, 15665-15673.
     DOI: 10.1002/anie.202004239
   
   for ALPB and GBSA implicit solvation:
   * S. Ehlert, M. Stahn, S. Spicher, S. Grimme, J. Chem. Theory Comput.,
     2021, 17, 4250-4261. DOI: 10.1021/acs.jctc.1c00471
   
   for DFT-D4:
   * E. Caldeweyher, C. Bannwarth and S. Grimme, J. Chem. Phys., 2017,
     147, 034112. DOI: 10.1063/1.4993215
   * E. Caldeweyher, S. Ehlert, A. Hansen, H. Neugebauer, S. Spicher,
     C. Bannwarth and S. Grimme, J. Chem. Phys., 2019, 150, 154122.
     DOI: 10.1063/1.5090222
   * E. Caldeweyher, J.-M. Mewes, S. Ehlert and S. Grimme, Phys. Chem. Chem. Phys.
     2020, 22, 8499-8512. DOI: 10.1039/D0CP00502A
   
   for sTDA-xTB:
   * S. Grimme and C. Bannwarth, J. Chem. Phys., 2016, 145, 054103.
     DOI: 10.1063/1.4959605
   
   in the mass-spec context:
   * V. Asgeirsson, C. Bauer and S. Grimme, Chem. Sci., 2017, 8, 4879.
     DOI: 10.1039/c7sc00601b
   * J. Koopman and S. Grimme, ACS Omega 2019, 4, 12, 15120-15133.
     DOI: 10.1021/acsomega.9b02011
   
   for metadynamics refer to:
   * S. Grimme, J. Chem. Theory Comput., 2019, 155, 2847-2862
     DOI: 10.1021/acs.jctc.9b00143
   
   for SPH calculations refer to:
   * S. Spicher and S. Grimme, J. Chem. Theory Comput., 2021, 17, 1701-1714
     DOI: 10.1021/acs.jctc.0c01306
   
   with help from (in alphabetical order)
   P. Atkinson, C. Bannwarth, F. Bohle, G. Brandenburg, E. Caldeweyher
   M. Checinski, S. Dohm, S. Ehlert, S. Ehrlich, I. Gerasimov, C. Hölzer
   A. Katbashev, J. Koopman, C. Lavigne, S. Lehtola, F. März, M. Müller,
   F. Musil, H. Neugebauer, J. Pisarek, C. Plett, P. Pracht, F. Pultar,
   J. Seibert, P. Shushkov, S. Spicher, M. Stahn, M. Steiner, T. Strunk,
   J. Stückrath, T. Rose, and J. Unsleber
   
 * started run on 2022/07/30 at 12:20:39.117     

           -------------------------------------------------
          |                Calculation Setup                |
           -------------------------------------------------

          program call               : xtb xtbopt.xyz --gfn 1 --vipea
          hostname                   : cx3-14-28.cx3.hpc.ic.ac.uk
          coordinate file            : xtbopt.xyz
          omp threads                :                     1

   ID    Z sym.   atoms
    1   30 Zn     1, 63, 143, 204
    2    6 C      2-6, 8-11, 13-24, 27-32, 35-39, 42, 43, 64-68, 70-73,
                  75-86, 89-94, 97-101, 104, 105, 125-142, 144-148, 150-153,
                  155-166, 169-174, 177-181, 184, 185, 205-209, 211-214,
                  216-227, 230-235, 238-242, 245, 246
    3    7 N      7, 12, 33, 34, 69, 74, 95, 96, 149, 154, 175, 176, 210,
                  215, 236, 237
    4    8 O      25, 26, 40, 41, 87, 88, 102, 103, 167, 168, 182, 183, 228,
                  229, 243, 244
    5    1 H      44-62, 106-124, 186-203, 247-264

           -------------------------------------------------
          |                 I P E A - x T B                 |
           -------------------------------------------------

        Reference                      10.1039/c7sc00601b
      * Hamiltonian:
        H0-scaling (s, p, d)           2.150000    2.300000    2.000000
        zeta-weighting                 0.000000
      * Dispersion:
        s8                             2.400000
        a1                             0.630000
        a2                             5.000000
        s9                             0.000000
      * Repulsion:
        kExp                           1.500000
        rExp                           1.000000
      * Coulomb:
        alpha                          1.000000
        third order                    atomic
        anisotropic                    false
      * Halogen bond correction:
        rad-scale                      1.300000
        damping                        0.440000


          ...................................................
          :                      SETUP                      :
          :.................................................:
          :  # basis functions                1094          :
          :  # atomic orbitals                1094          :
          :  # shells                          714          :
          :  # electrons                       874          :
          :  # halogen bonds                     0          :
          :  max. iterations                   250          :
          :  Hamiltonian                  GFN1-xTB          :
          :  restarted?                      false          :
          :  GBSA solvation                  false          :
          :  PC potential                    false          :
          :  electronic temp.          300.0000000     K    :
          :  accuracy                    1.0000000          :
          :  -> integral cutoff          0.2500000E+02      :
          :  -> integral neglect         0.1000000E-07      :
          :  -> SCF convergence          0.1000000E-05 Eh   :
          :  -> wf. convergence          0.2000000E-04 e    :
          :  Broyden damping             0.4000000          :
          ...................................................

 iter      E             dE          RMSdq      gap      omega  full diag
   1   -558.6626327 -0.558663E+03  0.103E+01    1.36       0.0  T
   2   -559.4157418 -0.753109E+00  0.654E+00    1.47       1.0  T
   3   -555.4339541  0.398179E+01  0.463E+00    1.03       1.0  T
   4   -561.6106353 -0.617668E+01  0.138E+00    1.42       1.0  T
   5   -562.7916142 -0.118098E+01  0.300E-01    1.27       1.0  T
   6   -562.8433277 -0.517135E-01  0.988E-02    1.31       1.0  T
   7   -562.8461468 -0.281911E-02  0.541E-02    1.30       1.0  T
   8   -562.8473410 -0.119413E-02  0.260E-02    1.30       1.0  T
   9   -562.8474153 -0.743490E-04  0.151E-02    1.30       1.0  T
  10   -562.8474918 -0.764721E-04  0.713E-03    1.30       1.0  T
  11   -562.8475144 -0.225615E-04  0.349E-03    1.30       1.8  T
  12   -562.8475209 -0.657392E-05  0.128E-03    1.30       4.8  T
  13   -562.8475216 -0.698631E-06  0.608E-04    1.30      10.1  T
  14   -562.8475218 -0.160046E-06  0.228E-04    1.30      27.0  T
  15   -562.8475218 -0.244473E-07  0.947E-05    1.30      65.0  T
  16   -562.8475218 -0.467219E-08  0.287E-05    1.30     214.7  T

   *** convergence criteria satisfied after 16 iterations ***

         #    Occupation            Energy/Eh            Energy/eV
      -------------------------------------------------------------
         1        2.0000           -1.0635625             -28.9410
       ...           ...                  ...                  ...
       431        2.0000           -0.4018450             -10.9348
       432        2.0000           -0.3991902             -10.8625
       433        2.0000           -0.3991876             -10.8624
       434        2.0000           -0.3920815             -10.6691
       435        2.0000           -0.3878473             -10.5539
       436        2.0000           -0.3877222             -10.5505
       437        2.0000           -0.3808297             -10.3629 (HOMO)
       438                         -0.3329581              -9.0603 (LUMO)
       439                         -0.3215307              -8.7493
       440                         -0.3204235              -8.7192
       441                         -0.3198541              -8.7037
       442                         -0.3181919              -8.6584
       ...                                ...                  ...
      1094                        527.8229719           14362.7941
      -------------------------------------------------------------
                  HL-Gap            0.0478716 Eh            1.3027 eV
             Fermi-level           -0.3568939 Eh           -9.7116 eV

 SCC (total)                   0 d,  0 h,  0 min, 15.594 sec
 SCC setup                      ...        0 min,  0.016 sec (  0.106%)
 Dispersion                     ...        0 min,  0.020 sec (  0.131%)
 classical contributions        ...        0 min,  0.006 sec (  0.036%)
 integral evaluation            ...        0 min,  1.330 sec (  8.527%)
 iterations                     ...        0 min, 11.259 sec ( 72.201%)
 molecular gradient             ...        0 min,  2.810 sec ( 18.017%)
 printout                       ...        0 min,  0.153 sec (  0.982%)

         :::::::::::::::::::::::::::::::::::::::::::::::::::::
         ::                     SUMMARY                     ::
         :::::::::::::::::::::::::::::::::::::::::::::::::::::
         :: total energy            -552.371639018430 Eh    ::
         :: gradient norm              0.104107717510 Eh/a0 ::
         :: HOMO-LUMO gap              1.302652446217 eV    ::
         ::.................................................::
         :: SCC energy              -562.847521815612 Eh    ::
         :: -> electrostatic           0.606597111402 Eh    ::
         :: repulsion energy          10.710254142949 Eh    ::
         :: dispersion energy         -0.234371345767 Eh    ::
         :: halogen bond corr.         0.000000000000 Eh    ::
         :: add. restraining           0.000000000000 Eh    ::
         :: total charge               0.000000000000 e     ::
         :::::::::::::::::::::::::::::::::::::::::::::::::::::

           ------------------------------------------------- 
          |        vertical delta SCC IP calculation        |
           ------------------------------------------------- 
   1   -562.4302039 -0.562430E+03  0.946E-02    1.30       0.0  T
   2   -562.4140387  0.161652E-01  0.150E-01    1.05       1.0  T
   3   -562.4400270 -0.259883E-01  0.494E-02    1.29       1.0  T
   4   -562.4285408  0.114862E-01  0.908E-02    1.28       1.0  T
   5   -562.4396529 -0.111121E-01  0.451E-02    1.31       1.0  T
   6   -562.4425541 -0.290122E-02  0.271E-02    1.29       1.0  T
   7   -562.4432455 -0.691414E-03  0.107E-02    1.30       1.0  T
   8   -562.4432528 -0.728157E-05  0.668E-03    1.30       1.0  T
   9   -562.4433084 -0.555901E-04  0.253E-03    1.30       2.4  T
  10   -562.4433084 -0.687112E-08  0.219E-03    1.30       2.8  T
  11   -562.4433158 -0.746517E-05  0.101E-03    1.30       6.1  T
  12   -562.4433172 -0.135164E-05  0.516E-04    1.30      11.9  T
  13   -562.4433177 -0.464644E-06  0.201E-04    1.30      30.6  T
  14   -562.4433177 -0.671383E-07  0.109E-04    1.30      56.2  T
  15   -562.4433177 -0.152293E-07  0.502E-05    1.30     122.7  T
     SCC iter.                  ...        0 min, 11.420 sec
     gradient                   ...        0 min,  2.899 sec
------------------------------------------------------------------------
empirical IP shift (eV):    4.8455
delta SCC IP (eV):    6.1534
------------------------------------------------------------------------
           ------------------------------------------------- 
          |        vertical delta SCC EA calculation        |
           ------------------------------------------------- 
   1   -563.1281154 -0.563128E+03  0.152E-01    0.33       0.0  T
   2   -563.1162824  0.118330E-01  0.178E-01    0.00       1.0  T
   3   -563.1438675 -0.275852E-01  0.102E-01    0.24       1.0  T
   4   -563.1538204 -0.995289E-02  0.532E-02    0.07       1.0  T
   5   -563.1469924  0.682802E-02  0.622E-02    0.02       1.0  T
   6   -563.1412087  0.578370E-02  0.765E-02    0.04       1.0  T
   7   -563.1500341 -0.882544E-02  0.515E-02    0.15       1.0  T
   8   -563.1533531 -0.331896E-02  0.253E-02    0.09       1.0  T
   9   -563.1546195 -0.126639E-02  0.848E-03    0.07       1.0  T
  10   -563.1547117 -0.921866E-04  0.260E-03    0.07       2.4  T
  11   -563.1547138 -0.214315E-05  0.177E-03    0.06       3.5  T
  12   -563.1547178 -0.402290E-05  0.883E-04    0.07       7.0  T
  13   -563.1547183 -0.419031E-06  0.465E-04    0.07      13.2  T
  14   -563.1547184 -0.191271E-06  0.220E-04    0.07      27.9  T
  15   -563.1547184  0.281628E-07  0.154E-04    0.07      39.9  T
  16   -563.1547185 -0.455294E-07  0.507E-05    0.07     121.3  T
     SCC iter.                  ...        0 min, 11.162 sec
     gradient                   ...        0 min,  2.814 sec
------------------------------------------------------------------------
empirical EA shift (eV):    4.8455
delta SCC EA (eV):    3.5137
------------------------------------------------------------------------
           -------------------------------------------------
          |                Property Printout                |
           -------------------------------------------------

    * Orbital Energies and Occupations

         #    Occupation            Energy/Eh            Energy/eV
      -------------------------------------------------------------
         1        2.0000           -1.0347038             -28.1557
       ...           ...                  ...                  ...
       426        2.0000           -0.3811182             -10.3708
       427        2.0000           -0.3778091             -10.2807
       428        2.0000           -0.3669962              -9.9865
       429        2.0000           -0.3647962              -9.9266
       430        2.0000           -0.3616392              -9.8407
       431        2.0000           -0.3615580              -9.8385
       432        2.0000           -0.3532193              -9.6116
       433        2.0000           -0.3530796              -9.6078
       434        2.0000           -0.3485698              -9.4851
       435        2.0000           -0.3485010              -9.4832
       436        2.0000           -0.3438587              -9.3569
       437        2.0000           -0.3321508              -9.0383
       438        0.6859           -0.2837330              -7.7208 (HOMO)
       439        0.1494           -0.2813384              -7.6556 (LUMO)
       440        0.1144           -0.2810464              -7.6477
       441        0.0261           -0.2795507              -7.6070
       442        0.0243           -0.2794821              -7.6051
       443        0.0000           -0.2718393              -7.3971
       444        0.0000           -0.2713091              -7.3827
       445        0.0000           -0.2711890              -7.3794
       446                         -0.2473041              -6.7295
       447                         -0.2472561              -6.7282
       448                         -0.2455852              -6.6827
       449                         -0.2404225              -6.5422
       ...                                ...                  ...
      1094                        527.8690698           14364.0485
      -------------------------------------------------------------
                  HL-Gap            0.0023946 Eh            0.0652 eV
             Fermi-level           -0.2955028 Eh           -8.0410 eV

  Mulliken/CM5 charges         n(s)   n(p)   n(d)
     1Zn    0.36936  0.69480   0.761  0.869  0.000
     2C    -0.02272 -0.06386   1.090  2.933  0.000
     3C     0.05803  0.11972   1.119  2.823  0.000
     4C    -0.03665 -0.08272   1.090  2.946  0.000
     5C    -0.03487 -0.08054   1.084  2.951  0.000
     6C     0.05910  0.12462   1.112  2.829  0.000
     7N    -0.23617 -0.48025   1.350  3.887  0.000
     8C     0.00868  0.01404   1.093  2.899  0.000
     9C     0.05822  0.12291   1.110  2.832  0.000
    10C    -0.03469 -0.08036   1.083  2.952  0.000
    11C    -0.03468 -0.07985   1.089  2.946  0.000
    12N    -0.23411 -0.47713   1.350  3.884  0.000
    13C     0.06322  0.12966   1.123  2.814  0.000
    14C     0.01742  0.02432   1.086  2.897  0.000
    15C     0.06314  0.12959   1.123  2.814  0.000
    16C    -0.03481 -0.07998   1.089  2.946  0.000
    17C    -0.03485 -0.08052   1.083  2.952  0.000
    18C     0.05815  0.12284   1.110  2.832  0.000
    19C     0.00855  0.01391   1.093  2.899  0.000
    20C     0.01501  0.00630   1.095  2.890  0.000
    21C    -0.01783 -0.07109   1.078  2.939  0.000
    22C    -0.01242 -0.06402   1.090  2.922  0.000
    23C     0.00573  0.00223   1.088  2.907  0.000
    24C     0.23296  0.28783   1.194  2.573  0.000
    25O    -0.28062 -0.47715   1.681  4.600  0.000
    26O    -0.33128 -0.38097   1.629  4.703  0.000
    27C    -0.01429 -0.06592   1.087  2.927  0.000
    28C    -0.01838 -0.07165   1.078  2.940  0.000
    29C     0.05907  0.12458   1.112  2.829  0.000
    30C    -0.03493 -0.08061   1.084  2.951  0.000
    31C    -0.03667 -0.08273   1.090  2.947  0.000
    32C     0.05802  0.11971   1.119  2.823  0.000
    33N    -0.23622 -0.48026   1.350  3.887  0.000
    34N    -0.23416 -0.47714   1.350  3.884  0.000
    35C     0.01499  0.00627   1.095  2.890  0.000
    36C    -0.01784 -0.07109   1.078  2.939  0.000
    37C    -0.01237 -0.06397   1.090  2.922  0.000
    38C     0.00580  0.00231   1.088  2.907  0.000
    39C     0.23304  0.28792   1.194  2.573  0.000
    40O    -0.28051 -0.47705   1.681  4.600  0.000
    41O    -0.33118 -0.38086   1.629  4.702  0.000
    42C    -0.01423 -0.06587   1.087  2.927  0.000
    43C    -0.01838 -0.07165   1.078  2.940  0.000
    44H     0.02869  0.08754   0.971  0.000  0.000
    45H     0.03443  0.09094   0.966  0.000  0.000
    46H     0.02688  0.08565   0.973  0.000  0.000
    47H     0.02769  0.08650   0.972  0.000  0.000
    48H     0.03137  0.08935   0.969  0.000  0.000
    49H     0.03113  0.08910   0.969  0.000  0.000
    50H     0.02744  0.08625   0.973  0.000  0.000
    51H     0.03008  0.08798   0.970  0.000  0.000
    52H     0.04503  0.10552   0.955  0.000  0.000
    53H     0.24265  0.41850   0.757  0.000  0.000
    54H     0.04644  0.10768   0.954  0.000  0.000
    55H     0.02993  0.08784   0.970  0.000  0.000
    56H     0.02679  0.08556   0.973  0.000  0.000
    57H     0.03441  0.09092   0.966  0.000  0.000
    58H     0.03009  0.08798   0.970  0.000  0.000
    59H     0.04510  0.10559   0.955  0.000  0.000
    60H     0.24276  0.41860   0.757  0.000  0.000
    61H     0.04656  0.10780   0.953  0.000  0.000
    62H     0.02996  0.08786   0.970  0.000  0.000
    63Zn    0.36933  0.69478   0.761  0.869  0.000
    64C    -0.02277 -0.06391   1.090  2.933  0.000
    65C     0.05803  0.11972   1.119  2.823  0.000
    66C    -0.03669 -0.08275   1.090  2.947  0.000
    67C    -0.03492 -0.08059   1.084  2.951  0.000
    68C     0.05903  0.12455   1.112  2.829  0.000
    69N    -0.23622 -0.48027   1.350  3.887  0.000
    70C     0.00862  0.01398   1.093  2.899  0.000
    71C     0.05812  0.12281   1.110  2.832  0.000
    72C    -0.03484 -0.08051   1.083  2.952  0.000
    73C    -0.03480 -0.07997   1.089  2.946  0.000
    74N    -0.23414 -0.47713   1.350  3.884  0.000
    75C     0.06319  0.12964   1.123  2.814  0.000
    76C     0.01742  0.02432   1.086  2.897  0.000
    77C     0.06317  0.12961   1.123  2.814  0.000
    78C    -0.03474 -0.07991   1.089  2.946  0.000
    79C    -0.03474 -0.08041   1.083  2.952  0.000
    80C     0.05817  0.12286   1.110  2.832  0.000
    81C     0.00866  0.01402   1.093  2.899  0.000
    82C     0.01497  0.00626   1.095  2.890  0.000
    83C    -0.01786 -0.07111   1.078  2.939  0.000
    84C    -0.01241 -0.06401   1.090  2.922  0.000
    85C     0.00579  0.00230   1.088  2.907  0.000
    86C     0.23301  0.28789   1.194  2.573  0.000
    87O    -0.28049 -0.47702   1.681  4.600  0.000
    88O    -0.33126 -0.38094   1.629  4.702  0.000
    89C    -0.01422 -0.06585   1.087  2.927  0.000
    90C    -0.01833 -0.07160   1.078  2.940  0.000
    91C     0.05909  0.12460   1.112  2.829  0.000
    92C    -0.03485 -0.08053   1.084  2.951  0.000
    93C    -0.03666 -0.08273   1.090  2.947  0.000
    94C     0.05804  0.11973   1.119  2.823  0.000
    95N    -0.23621 -0.48026   1.350  3.887  0.000
    96N    -0.23410 -0.47712   1.350  3.884  0.000
    97C     0.01503  0.00632   1.095  2.890  0.000
    98C    -0.01786 -0.07111   1.078  2.939  0.000
    99C    -0.01243 -0.06403   1.090  2.922  0.000
   100C     0.00573  0.00224   1.087  2.907  0.000
   101C     0.23300  0.28788   1.194  2.573  0.000
   102O    -0.28057 -0.47711   1.681  4.600  0.000
   103O    -0.33129 -0.38098   1.629  4.703  0.000
   104C    -0.01425 -0.06589   1.087  2.927  0.000
   105C    -0.01836 -0.07163   1.078  2.940  0.000
   106H     0.02865  0.08751   0.971  0.000  0.000
   107H     0.03439  0.09089   0.966  0.000  0.000
   108H     0.02681  0.08557   0.973  0.000  0.000
   109H     0.02747  0.08627   0.973  0.000  0.000
   110H     0.03118  0.08917   0.969  0.000  0.000
   111H     0.03130  0.08927   0.969  0.000  0.000
   112H     0.02760  0.08641   0.972  0.000  0.000
   113H     0.03001  0.08791   0.970  0.000  0.000
   114H     0.04504  0.10552   0.955  0.000  0.000
   115H     0.24275  0.41860   0.757  0.000  0.000
   116H     0.04660  0.10784   0.953  0.000  0.000
   117H     0.03004  0.08795   0.970  0.000  0.000
   118H     0.02686  0.08563   0.973  0.000  0.000
   119H     0.03442  0.09093   0.966  0.000  0.000
   120H     0.03003  0.08792   0.970  0.000  0.000
   121H     0.04499  0.10548   0.955  0.000  0.000
   122H     0.24268  0.41853   0.757  0.000  0.000
   123H     0.04651  0.10774   0.953  0.000  0.000
   124H     0.03001  0.08791   0.970  0.000  0.000
   125C    -0.01394 -0.01403   1.078  2.936  0.000
   126C    -0.01813 -0.01823   1.074  2.944  0.000
   127C    -0.01883 -0.01956   1.064  2.955  0.000
   128C    -0.01922 -0.02079   1.092  2.927  0.000
   129C    -0.02286 -0.02358   1.061  2.962  0.000
   130C    -0.01516 -0.01672   1.098  2.918  0.000
   131C    -0.01842 -0.01852   1.076  2.943  0.000
   132C    -0.01848 -0.01858   1.076  2.943  0.000
   133C    -0.02244 -0.02316   1.062  2.960  0.000
   134C    -0.01969 -0.02125   1.093  2.927  0.000
   135C    -0.02250 -0.02323   1.062  2.960  0.000
   136C    -0.01964 -0.02120   1.093  2.927  0.000
   137C    -0.01821 -0.01831   1.074  2.944  0.000
   138C    -0.01403 -0.01413   1.078  2.936  0.000
   139C    -0.02290 -0.02363   1.061  2.962  0.000
   140C    -0.01526 -0.01682   1.098  2.918  0.000
   141C    -0.01888 -0.01961   1.064  2.955  0.000
   142C    -0.01931 -0.02089   1.092  2.927  0.000
   143Zn    0.36907  0.69299   0.763  0.868  0.000
   144C     0.01217  0.01909   1.081  2.907  0.000
   145C     0.06270  0.12916   1.123  2.814  0.000
   146C    -0.03726 -0.08243   1.087  2.950  0.000
   147C    -0.03525 -0.08091   1.083  2.952  0.000
   148C     0.05589  0.12056   1.107  2.837  0.000
   149N    -0.23528 -0.47827   1.349  3.886  0.000
   150C     0.01058  0.01586   1.094  2.895  0.000
   151C     0.05568  0.12027   1.107  2.837  0.000
   152C    -0.03586 -0.08153   1.083  2.953  0.000
   153C    -0.03692 -0.08209   1.087  2.950  0.000
   154N    -0.23435 -0.47742   1.350  3.884  0.000
   155C     0.06265  0.12922   1.123  2.814  0.000
   156C     0.01425  0.02117   1.083  2.902  0.000
   157C     0.06264  0.12922   1.123  2.814  0.000
   158C    -0.03689 -0.08205   1.087  2.949  0.000
   159C    -0.03582 -0.08149   1.083  2.953  0.000
   160C     0.05567  0.12027   1.107  2.837  0.000
   161C     0.01044  0.01572   1.094  2.896  0.000
   162C     0.01583  0.00708   1.095  2.889  0.000
   163C    -0.01705 -0.07028   1.079  2.938  0.000
   164C    -0.01217 -0.06377   1.090  2.922  0.000
   165C     0.00552  0.00203   1.087  2.907  0.000
   166C     0.23289  0.28778   1.194  2.573  0.000
   167O    -0.28118 -0.47771   1.681  4.600  0.000
   168O    -0.33139 -0.38108   1.629  4.703  0.000
   169C    -0.01456 -0.06620   1.087  2.927  0.000
   170C    -0.01824 -0.07152   1.078  2.940  0.000
   171C     0.05574  0.12042   1.107  2.837  0.000
   172C    -0.03563 -0.08130   1.083  2.952  0.000
   173C    -0.03751 -0.08268   1.087  2.950  0.000
   174C     0.06265  0.12912   1.123  2.814  0.000
   175N    -0.23531 -0.47830   1.349  3.886  0.000
   176N    -0.23443 -0.47737   1.350  3.885  0.000
   177C     0.01577  0.00703   1.095  2.889  0.000
   178C    -0.01721 -0.07045   1.079  2.939  0.000
   179C    -0.01224 -0.06384   1.090  2.922  0.000
   180C     0.00565  0.00215   1.087  2.907  0.000
   181C     0.23297  0.28787   1.194  2.573  0.000
   182O    -0.28082 -0.47735   1.681  4.600  0.000
   183O    -0.33151 -0.38121   1.629  4.703  0.000
   184C    -0.01434 -0.06597   1.087  2.927  0.000
   185C    -0.01805 -0.07132   1.078  2.940  0.000
   186H     0.02815  0.08611   0.972  0.000  0.000
   187H     0.02562  0.08443   0.974  0.000  0.000
   188H     0.02551  0.08433   0.974  0.000  0.000
   189H     0.02899  0.08698   0.971  0.000  0.000
   190H     0.02897  0.08694   0.971  0.000  0.000
   191H     0.02550  0.08430   0.975  0.000  0.000
   192H     0.03051  0.08840   0.969  0.000  0.000
   193H     0.04489  0.10538   0.955  0.000  0.000
   194H     0.24173  0.41757   0.758  0.000  0.000
   195H     0.04523  0.10647   0.955  0.000  0.000
   196H     0.02920  0.08710   0.971  0.000  0.000
   197H     0.02513  0.08395   0.975  0.000  0.000
   198H     0.02779  0.08579   0.972  0.000  0.000
   199H     0.03020  0.08808   0.970  0.000  0.000
   200H     0.04470  0.10519   0.955  0.000  0.000
   201H     0.24198  0.41781   0.758  0.000  0.000
   202H     0.04566  0.10689   0.954  0.000  0.000
   203H     0.02950  0.08740   0.971  0.000  0.000
   204Zn    0.36905  0.69298   0.763  0.868  0.000
   205C     0.01415  0.02106   1.083  2.903  0.000
   206C     0.06265  0.12922   1.123  2.814  0.000
   207C    -0.03690 -0.08207   1.087  2.949  0.000
   208C    -0.03575 -0.08142   1.083  2.953  0.000
   209C     0.05568  0.12027   1.107  2.837  0.000
   210N    -0.23442 -0.47744   1.350  3.885  0.000
   211C     0.01052  0.01580   1.094  2.896  0.000
   212C     0.05573  0.12040   1.107  2.837  0.000
   213C    -0.03553 -0.08120   1.083  2.952  0.000
   214C    -0.03746 -0.08263   1.087  2.950  0.000
   215N    -0.23531 -0.47829   1.349  3.886  0.000
   216C     0.06263  0.12908   1.123  2.814  0.000
   217C     0.01216  0.01908   1.081  2.907  0.000
   218C     0.06267  0.12915   1.123  2.814  0.000
   219C    -0.03741 -0.08259   1.087  2.950  0.000
   220C    -0.03543 -0.08110   1.083  2.952  0.000
   221C     0.05577  0.12045   1.107  2.837  0.000
   222C     0.01048  0.01577   1.094  2.896  0.000
   223C     0.01582  0.00707   1.095  2.889  0.000
   224C    -0.01722 -0.07046   1.079  2.939  0.000
   225C    -0.01231 -0.06391   1.090  2.922  0.000
   226C     0.00556  0.00207   1.087  2.907  0.000
   227C     0.23291  0.28780   1.194  2.573  0.000
   228O    -0.28089 -0.47743   1.681  4.600  0.000
   229O    -0.33167 -0.38136   1.629  4.703  0.000
   230C    -0.01438 -0.06601   1.087  2.927  0.000
   231C    -0.01805 -0.07132   1.078  2.940  0.000
   232C     0.05560  0.12019   1.107  2.837  0.000
   233C    -0.03595 -0.08162   1.083  2.953  0.000
   234C    -0.03701 -0.08217   1.087  2.950  0.000
   235C     0.06262  0.12920   1.123  2.814  0.000
   236N    -0.23444 -0.47745   1.350  3.885  0.000
   237N    -0.23529 -0.47829   1.349  3.886  0.000
   238C     0.01580  0.00705   1.095  2.889  0.000
   239C    -0.01705 -0.07030   1.079  2.938  0.000
   240C    -0.01214 -0.06374   1.090  2.922  0.000
   241C     0.00558  0.00209   1.087  2.907  0.000
   242C     0.23294  0.28784   1.194  2.573  0.000
   243O    -0.28109 -0.47763   1.681  4.600  0.000
   244O    -0.33133 -0.38101   1.629  4.703  0.000
   245C    -0.01452 -0.06615   1.087  2.927  0.000
   246C    -0.01822 -0.07148   1.078  2.940  0.000
   247H     0.02896  0.08693   0.971  0.000  0.000
   248H     0.02557  0.08440   0.974  0.000  0.000
   249H     0.02528  0.08407   0.975  0.000  0.000
   250H     0.02794  0.08590   0.972  0.000  0.000
   251H     0.02792  0.08591   0.972  0.000  0.000
   252H     0.02536  0.08418   0.975  0.000  0.000
   253H     0.03013  0.08802   0.970  0.000  0.000
   254H     0.04455  0.10504   0.955  0.000  0.000
   255H     0.24188  0.41772   0.758  0.000  0.000
   256H     0.04559  0.10682   0.954  0.000  0.000
   257H     0.02951  0.08741   0.970  0.000  0.000
   258H     0.02536  0.08417   0.975  0.000  0.000
   259H     0.02889  0.08687   0.971  0.000  0.000
   260H     0.03047  0.08835   0.970  0.000  0.000
   261H     0.04493  0.10541   0.955  0.000  0.000
   262H     0.24182  0.41764   0.758  0.000  0.000
   263H     0.04532  0.10656   0.955  0.000  0.000
   264H     0.02925  0.08715   0.971  0.000  0.000

Wiberg/Mayer (AO) data.
largest (>0.10) Wiberg bond orders for each atom

 ---------------------------------------------------------------------------
     #   Z sym  total        # sym  WBO       # sym  WBO       # sym  WBO
 ---------------------------------------------------------------------------
     1  30 Zn   2.419 --     7 N    0.566    33 N    0.566    12 N    0.560
                            34 N    0.559
     2   6 C    3.807 --    32 C    1.389     3 C    1.389    44 H    0.997
     3   6 C    3.944 --     2 C    1.389     7 N    1.282     4 C    1.198
     4   6 C    3.850 --     5 C    1.646     3 C    1.198    45 H    0.993
     5   6 C    3.833 --     4 C    1.646     6 C    1.205    46 H    0.999
     6   6 C    3.916 --     8 C    1.362     7 N    1.283     5 C    1.205
     7   7 N    3.004 --     6 C    1.283     3 C    1.282     1 Zn   0.566
     8   6 C    3.833 --     9 C    1.365     6 C    1.362    35 C    1.053
     9   6 C    3.905 --     8 C    1.365    12 N    1.272    10 C    1.212
    10   6 C    3.827 --    11 C    1.631     9 C    1.212    47 H    0.998
    11   6 C    3.842 --    10 C    1.631    13 C    1.221    48 H    0.998
    12   7 N    3.010 --    13 C    1.306     9 C    1.272     1 Zn   0.560
    13   6 C    3.921 --    12 N    1.306    14 C    1.302    11 C    1.221
    14   6 C    3.835 --    13 C    1.302    15 C    1.302   128 C    1.210
    15   6 C    3.921 --    34 N    1.306    14 C    1.302    16 C    1.221
    16   6 C    3.842 --    17 C    1.631    15 C    1.221    49 H    0.998
    17   6 C    3.827 --    16 C    1.631    18 C    1.212    50 H    0.998
    18   6 C    3.905 --    19 C    1.364    34 N    1.272    17 C    1.212
    19   6 C    3.833 --    18 C    1.364    29 C    1.362    20 C    1.053
    20   6 C    3.898 --    28 C    1.419    21 C    1.418    19 C    1.053
    21   6 C    3.864 --    22 C    1.465    20 C    1.418    51 H    0.988
    22   6 C    3.896 --    21 C    1.465    23 C    1.400    52 H    0.985
    23   6 C    3.899 --    22 C    1.400    27 C    1.400    24 C    1.041
    24   6 C    4.098 --    26 O    1.816    25 O    1.209    23 C    1.041
    25   8 O    2.366 --    24 C    1.209    53 H    0.943    26 O    0.183
    26   8 O    2.030 --    24 C    1.816    25 O    0.183
    27   6 C    3.893 --    28 C    1.463    23 C    1.400    54 H    0.986
    28   6 C    3.865 --    27 C    1.463    20 C    1.419    55 H    0.988
    29   6 C    3.916 --    19 C    1.362    33 N    1.283    30 C    1.205
    30   6 C    3.833 --    31 C    1.646    29 C    1.205    56 H    0.999
    31   6 C    3.850 --    30 C    1.646    32 C    1.198    57 H    0.993
    32   6 C    3.944 --     2 C    1.389    33 N    1.282    31 C    1.198
    33   7 N    3.004 --    29 C    1.283    32 C    1.282     1 Zn   0.566
    34   7 N    3.010 --    15 C    1.306    18 C    1.272     1 Zn   0.559
    35   6 C    3.898 --    43 C    1.419    36 C    1.418     8 C    1.053
    36   6 C    3.864 --    37 C    1.465    35 C    1.418    58 H    0.988
    37   6 C    3.896 --    36 C    1.465    38 C    1.400    59 H    0.985
    38   6 C    3.899 --    37 C    1.400    42 C    1.400    39 C    1.041
    39   6 C    4.098 --    41 O    1.816    40 O    1.210    38 C    1.041
    40   8 O    2.366 --    39 C    1.210    60 H    0.943    41 O    0.184
    41   8 O    2.030 --    39 C    1.816    40 O    0.184
    42   6 C    3.893 --    43 C    1.463    38 C    1.400    61 H    0.986
    43   6 C    3.865 --    42 C    1.463    35 C    1.419    62 H    0.988
    44   1 H    1.031 --     2 C    0.997
    45   1 H    1.020 --     4 C    0.993
    46   1 H    1.033 --     5 C    0.999
    47   1 H    1.032 --    10 C    0.998
    48   1 H    1.031 --    11 C    0.998
    49   1 H    1.031 --    16 C    0.998
    50   1 H    1.033 --    17 C    0.998
    51   1 H    1.050 --    21 C    0.988
    52   1 H    1.031 --    22 C    0.985
    53   1 H    0.980 --    25 O    0.943
    54   1 H    1.022 --    27 C    0.986
    55   1 H    1.050 --    28 C    0.988
    56   1 H    1.033 --    30 C    0.999
    57   1 H    1.020 --    31 C    0.993
    58   1 H    1.050 --    36 C    0.988
    59   1 H    1.031 --    37 C    0.985
    60   1 H    0.979 --    40 O    0.943
    61   1 H    1.021 --    42 C    0.986
    62   1 H    1.050 --    43 C    0.988
    63  30 Zn   2.419 --    95 N    0.566    69 N    0.566    96 N    0.560
                            74 N    0.559
    64   6 C    3.807 --    94 C    1.389    65 C    1.389   106 H    0.997
    65   6 C    3.944 --    64 C    1.389    69 N    1.282    66 C    1.198
    66   6 C    3.850 --    67 C    1.646    65 C    1.198   107 H    0.993
    67   6 C    3.833 --    66 C    1.646    68 C    1.205   108 H    0.999
    68   6 C    3.916 --    70 C    1.362    69 N    1.283    67 C    1.205
    69   7 N    3.004 --    68 C    1.283    65 C    1.282    63 Zn   0.566
    70   6 C    3.834 --    71 C    1.364    68 C    1.362    97 C    1.053
    71   6 C    3.905 --    70 C    1.364    74 N    1.271    72 C    1.212
    72   6 C    3.827 --    73 C    1.631    71 C    1.212   109 H    0.998
    73   6 C    3.842 --    72 C    1.631    75 C    1.221   110 H    0.998
    74   7 N    3.010 --    75 C    1.306    71 C    1.271    63 Zn   0.559
    75   6 C    3.921 --    74 N    1.306    76 C    1.301    73 C    1.221
    76   6 C    3.835 --    77 C    1.301    75 C    1.301   142 C    1.210
    77   6 C    3.921 --    96 N    1.306    76 C    1.301    78 C    1.221
    78   6 C    3.842 --    79 C    1.631    77 C    1.221   111 H    0.998
    79   6 C    3.827 --    78 C    1.631    80 C    1.212   112 H    0.998
    80   6 C    3.905 --    81 C    1.364    96 N    1.272    79 C    1.212
    81   6 C    3.834 --    80 C    1.364    91 C    1.362    82 C    1.053
    82   6 C    3.898 --    90 C    1.419    83 C    1.418    81 C    1.053
    83   6 C    3.864 --    84 C    1.465    82 C    1.418   113 H    0.988
    84   6 C    3.896 --    83 C    1.465    85 C    1.400   114 H    0.985
    85   6 C    3.899 --    84 C    1.400    89 C    1.400    86 C    1.041
    86   6 C    4.098 --    88 O    1.816    87 O    1.210    85 C    1.041
    87   8 O    2.366 --    86 C    1.210   115 H    0.943    88 O    0.183
    88   8 O    2.030 --    86 C    1.816    87 O    0.183
    89   6 C    3.893 --    90 C    1.463    85 C    1.400   116 H    0.986
    90   6 C    3.865 --    89 C    1.463    82 C    1.419   117 H    0.988
    91   6 C    3.917 --    81 C    1.362    95 N    1.283    92 C    1.205
    92   6 C    3.834 --    93 C    1.646    91 C    1.205   118 H    0.999
    93   6 C    3.850 --    92 C    1.646    94 C    1.198   119 H    0.993
    94   6 C    3.944 --    64 C    1.389    95 N    1.282    93 C    1.198
    95   7 N    3.004 --    91 C    1.283    94 C    1.282    63 Zn   0.566
    96   7 N    3.010 --    77 C    1.306    80 C    1.272    63 Zn   0.560
    97   6 C    3.898 --   105 C    1.419    98 C    1.418    70 C    1.053
    98   6 C    3.864 --    99 C    1.465    97 C    1.418   120 H    0.988
    99   6 C    3.896 --    98 C    1.465   100 C    1.400   121 H    0.985
   100   6 C    3.899 --    99 C    1.400   104 C    1.400   101 C    1.041
   101   6 C    4.098 --   103 O    1.816   102 O    1.210   100 C    1.041
   102   8 O    2.366 --   101 C    1.210   122 H    0.943   103 O    0.183
   103   8 O    2.030 --   101 C    1.816   102 O    0.183
   104   6 C    3.892 --   105 C    1.463   100 C    1.400   123 H    0.986
   105   6 C    3.865 --   104 C    1.463    97 C    1.419   124 H    0.988
   106   1 H    1.031 --    64 C    0.997
   107   1 H    1.020 --    66 C    0.993
   108   1 H    1.033 --    67 C    0.999
   109   1 H    1.033 --    72 C    0.998
   110   1 H    1.031 --    73 C    0.998
   111   1 H    1.031 --    78 C    0.998
   112   1 H    1.033 --    79 C    0.998
   113   1 H    1.050 --    83 C    0.988
   114   1 H    1.031 --    84 C    0.985
   115   1 H    0.979 --    87 O    0.943
   116   1 H    1.021 --    89 C    0.986
   117   1 H    1.050 --    90 C    0.988
   118   1 H    1.033 --    92 C    0.999
   119   1 H    1.020 --    93 C    0.993
   120   1 H    1.050 --    98 C    0.988
   121   1 H    1.031 --    99 C    0.985
   122   1 H    0.980 --   102 O    0.943
   123   1 H    1.021 --   104 C    0.986
   124   1 H    1.050 --   105 C    0.988
   125   6 C    3.834 --   126 C    2.389   129 C    1.345   128 C    0.171
   126   6 C    3.832 --   125 C    2.389   127 C    1.343   130 C    0.171
   127   6 C    3.813 --   128 C    2.488   126 C    1.343
   128   6 C    3.767 --   127 C    2.488    14 C    1.210   125 C    0.171
   129   6 C    3.809 --   130 C    2.484   125 C    1.345
   130   6 C    3.770 --   129 C    2.484   144 C    1.213   126 C    0.171
   131   6 C    3.833 --   132 C    2.363   135 C    1.365   134 C    0.168
   132   6 C    3.833 --   131 C    2.363   133 C    1.365   136 C    0.168
   133   6 C    3.804 --   134 C    2.461   132 C    1.365
   134   6 C    3.767 --   133 C    2.461   156 C    1.233   131 C    0.168
   135   6 C    3.804 --   136 C    2.461   131 C    1.365
   136   6 C    3.767 --   135 C    2.461   205 C    1.233   132 C    0.168
   137   6 C    3.832 --   138 C    2.388   141 C    1.344   140 C    0.170
   138   6 C    3.834 --   137 C    2.388   139 C    1.346   142 C    0.171
   139   6 C    3.808 --   140 C    2.483   138 C    1.346
   140   6 C    3.770 --   139 C    2.483   217 C    1.213   137 C    0.170
   141   6 C    3.813 --   142 C    2.487   137 C    1.344
   142   6 C    3.767 --   141 C    2.487    76 C    1.210   138 C    0.171
   143  30 Zn   2.412 --   149 N    0.562   175 N    0.562   154 N    0.561
                           176 N    0.561
   144   6 C    3.818 --   145 C    1.297   174 C    1.296   130 C    1.213
   145   6 C    3.923 --   149 N    1.309   144 C    1.297   146 C    1.223
   146   6 C    3.838 --   147 C    1.628   145 C    1.223   186 H    0.999
   147   6 C    3.832 --   146 C    1.628   148 C    1.215   187 H    0.999
   148   6 C    3.903 --   150 C    1.367   149 N    1.265   147 C    1.215
   149   7 N    3.001 --   145 C    1.309   148 C    1.265   143 Zn   0.562
   150   6 C    3.835 --   148 C    1.367   151 C    1.362   177 C    1.052
   151   6 C    3.900 --   150 C    1.362   154 N    1.266   152 C    1.218
   152   6 C    3.828 --   153 C    1.623   151 C    1.218   188 H    0.999
   153   6 C    3.837 --   152 C    1.623   155 C    1.227   189 H    0.999
   154   7 N    3.005 --   155 C    1.312   151 C    1.266   143 Zn   0.561
   155   6 C    3.919 --   154 N    1.312   156 C    1.287   153 C    1.227
   156   6 C    3.814 --   157 C    1.287   155 C    1.287   134 C    1.233
   157   6 C    3.919 --   176 N    1.312   156 C    1.287   158 C    1.227
   158   6 C    3.837 --   159 C    1.623   157 C    1.227   190 H    0.999
   159   6 C    3.828 --   158 C    1.623   160 C    1.218   191 H    0.999
   160   6 C    3.901 --   161 C    1.362   176 N    1.266   159 C    1.218
   161   6 C    3.834 --   171 C    1.367   160 C    1.362   162 C    1.052
   162   6 C    3.899 --   170 C    1.420   163 C    1.419   161 C    1.052
   163   6 C    3.864 --   164 C    1.465   162 C    1.419   192 H    0.988
   164   6 C    3.896 --   163 C    1.465   165 C    1.400   193 H    0.985
   165   6 C    3.899 --   164 C    1.400   169 C    1.400   166 C    1.041
   166   6 C    4.098 --   168 O    1.816   167 O    1.209   165 C    1.041
   167   8 O    2.366 --   166 C    1.209   194 H    0.944   168 O    0.183
   168   8 O    2.031 --   166 C    1.816   167 O    0.183
   169   6 C    3.893 --   170 C    1.463   165 C    1.400   195 H    0.986
   170   6 C    3.865 --   169 C    1.463   162 C    1.420   196 H    0.989
   171   6 C    3.903 --   161 C    1.367   175 N    1.265   172 C    1.215
   172   6 C    3.832 --   173 C    1.628   171 C    1.215   197 H    0.999
   173   6 C    3.837 --   172 C    1.628   174 C    1.223   198 H    0.999
   174   6 C    3.923 --   175 N    1.309   144 C    1.296   173 C    1.223
   175   7 N    3.001 --   174 C    1.309   171 C    1.265   143 Zn   0.562
   176   7 N    3.005 --   157 C    1.312   160 C    1.266   143 Zn   0.561
   177   6 C    3.899 --   185 C    1.420   178 C    1.419   150 C    1.052
   178   6 C    3.864 --   179 C    1.465   177 C    1.419   199 H    0.989
   179   6 C    3.896 --   178 C    1.465   180 C    1.400   200 H    0.985
   180   6 C    3.899 --   179 C    1.400   184 C    1.400   181 C    1.041
   181   6 C    4.098 --   183 O    1.816   182 O    1.210   180 C    1.041
   182   8 O    2.366 --   181 C    1.210   201 H    0.944   183 O    0.183
   183   8 O    2.031 --   181 C    1.816   182 O    0.183
   184   6 C    3.893 --   185 C    1.463   180 C    1.400   202 H    0.986
   185   6 C    3.865 --   184 C    1.463   177 C    1.420   203 H    0.989
   186   1 H    1.032 --   146 C    0.999
   187   1 H    1.036 --   147 C    0.999
   188   1 H    1.035 --   152 C    0.999
   189   1 H    1.032 --   153 C    0.999
   190   1 H    1.032 --   158 C    0.999
   191   1 H    1.035 --   159 C    0.999
   192   1 H    1.050 --   163 C    0.988
   193   1 H    1.031 --   164 C    0.985
   194   1 H    0.980 --   167 O    0.944
   195   1 H    1.022 --   169 C    0.986
   196   1 H    1.051 --   170 C    0.989
   197   1 H    1.036 --   172 C    0.999
   198   1 H    1.032 --   173 C    0.999
   199   1 H    1.050 --   178 C    0.989
   200   1 H    1.031 --   179 C    0.985
   201   1 H    0.980 --   182 O    0.944
   202   1 H    1.022 --   184 C    0.986
   203   1 H    1.051 --   185 C    0.989
   204  30 Zn   2.412 --   215 N    0.562   237 N    0.562   210 N    0.561
                           236 N    0.561
   205   6 C    3.814 --   206 C    1.287   235 C    1.287   136 C    1.233
   206   6 C    3.919 --   210 N    1.312   205 C    1.287   207 C    1.227
   207   6 C    3.837 --   208 C    1.623   206 C    1.227   247 H    0.999
   208   6 C    3.828 --   207 C    1.623   209 C    1.218   248 H    0.999
   209   6 C    3.901 --   211 C    1.363   210 N    1.266   208 C    1.218
   210   7 N    3.005 --   206 C    1.312   209 C    1.266   204 Zn   0.561
   211   6 C    3.834 --   212 C    1.367   209 C    1.363   238 C    1.052
   212   6 C    3.903 --   211 C    1.367   215 N    1.265   213 C    1.215
   213   6 C    3.832 --   214 C    1.628   212 C    1.215   249 H    0.999
   214   6 C    3.838 --   213 C    1.628   216 C    1.223   250 H    0.999
   215   7 N    3.001 --   216 C    1.309   212 C    1.265   204 Zn   0.562
   216   6 C    3.923 --   215 N    1.309   217 C    1.296   214 C    1.223
   217   6 C    3.818 --   216 C    1.296   218 C    1.296   140 C    1.213
   218   6 C    3.923 --   237 N    1.309   217 C    1.296   219 C    1.223
   219   6 C    3.838 --   220 C    1.628   218 C    1.223   251 H    0.999
   220   6 C    3.832 --   219 C    1.628   221 C    1.215   252 H    0.999
   221   6 C    3.902 --   222 C    1.367   237 N    1.265   220 C    1.215
   222   6 C    3.834 --   221 C    1.367   232 C    1.362   223 C    1.052
   223   6 C    3.899 --   231 C    1.420   224 C    1.418   222 C    1.052
   224   6 C    3.864 --   225 C    1.465   223 C    1.418   253 H    0.989
   225   6 C    3.896 --   224 C    1.465   226 C    1.400   254 H    0.986
   226   6 C    3.899 --   225 C    1.400   230 C    1.400   227 C    1.041
   227   6 C    4.098 --   229 O    1.816   228 O    1.209   226 C    1.041
   228   8 O    2.366 --   227 C    1.209   255 H    0.944   229 O    0.183
   229   8 O    2.030 --   227 C    1.816   228 O    0.183
   230   6 C    3.893 --   231 C    1.463   226 C    1.400   256 H    0.986
   231   6 C    3.865 --   230 C    1.463   223 C    1.420   257 H    0.989
   232   6 C    3.901 --   222 C    1.362   236 N    1.266   233 C    1.218
   233   6 C    3.828 --   234 C    1.623   232 C    1.218   258 H    0.999
   234   6 C    3.837 --   233 C    1.623   235 C    1.227   259 H    0.999
   235   6 C    3.919 --   236 N    1.312   205 C    1.287   234 C    1.227
   236   7 N    3.005 --   235 C    1.312   232 C    1.266   204 Zn   0.561
   237   7 N    3.001 --   218 C    1.309   221 C    1.265   204 Zn   0.562
   238   6 C    3.899 --   246 C    1.420   239 C    1.419   211 C    1.052
   239   6 C    3.864 --   240 C    1.465   238 C    1.419   260 H    0.988
   240   6 C    3.896 --   239 C    1.465   241 C    1.400   261 H    0.985
   241   6 C    3.899 --   240 C    1.400   245 C    1.400   242 C    1.041
   242   6 C    4.098 --   244 O    1.817   243 O    1.209   241 C    1.041
   243   8 O    2.366 --   242 C    1.209   262 H    0.944   244 O    0.183
   244   8 O    2.031 --   242 C    1.817   243 O    0.183
   245   6 C    3.893 --   246 C    1.463   241 C    1.400   263 H    0.986
   246   6 C    3.865 --   245 C    1.463   238 C    1.420   264 H    0.989
   247   1 H    1.032 --   207 C    0.999
   248   1 H    1.035 --   208 C    0.999
   249   1 H    1.035 --   213 C    0.999
   250   1 H    1.032 --   214 C    0.999
   251   1 H    1.032 --   219 C    0.999
   252   1 H    1.036 --   220 C    0.999
   253   1 H    1.050 --   224 C    0.989
   254   1 H    1.031 --   225 C    0.986
   255   1 H    0.980 --   228 O    0.944
   256   1 H    1.022 --   230 C    0.986
   257   1 H    1.051 --   231 C    0.989
   258   1 H    1.035 --   233 C    0.999
   259   1 H    1.032 --   234 C    0.999
   260   1 H    1.050 --   239 C    0.988
   261   1 H    1.031 --   240 C    0.985
   262   1 H    0.980 --   243 O    0.944
   263   1 H    1.022 --   245 C    0.986
   264   1 H    1.051 --   246 C    0.989
 ---------------------------------------------------------------------------

Topologies differ in total number of bonds
Writing topology from bond orders to xtbtopo.mol

 dipole moment from electron density (au)
     X       Y       Z   
-140.1602   2.1197  -2.0252  total (Debye):  356.330


           -------------------------------------------------
          | TOTAL ENERGY             -552.678835664071 Eh   |
          | GRADIENT NORM               0.108957956685 Eh/α |
          | HOMO-LUMO GAP               0.065160336726 eV   |
           -------------------------------------------------
########################################################################
[WARNING] Runtime exception occurred
-1- restart_readRestart: Dimension missmatch in restart file.
########################################################################

------------------------------------------------------------------------
 * finished run on 2022/07/30 at 12:21:27.231     
------------------------------------------------------------------------
 total:
 * wall-time:     0 d,  0 h,  0 min, 48.114 sec
 *  cpu-time:     0 d,  0 h,  0 min, 47.785 sec
 * ratio c/w:     0.993 speedup
 SCF:
 * wall-time:     0 d,  0 h,  0 min, 46.940 sec
 *  cpu-time:     0 d,  0 h,  0 min, 46.622 sec
 * ratio c/w:     0.993 speedup

