464
 energy: -729.976323703383 gnorm: 2.689742950499 xtb: 6.5.1 (b24c23e)
C           81.62093700000000        0.08481400000000       -0.01350800000000
C           82.34533800000000       -0.00379800000000        1.36359500000000
C           81.72544499999999       -0.03666100000000        2.59258600000000
C           82.74612599999999       -0.15436200000000        3.56997700000000
C           83.95749699999999       -0.18802900000000        2.90397000000000
N           83.70069800000000       -0.07395300000000        1.56108500000000
C           85.38948200000000       -0.36592000000000        3.56145400000000
C           85.44269699999998       -0.63749600000000        5.01739100000000
C           85.64114100000000        0.40072700000000        5.92551200000000
C           85.67597000000001        0.14300500000000        7.30395900000000
C           85.49965299999998       -1.15139800000000        7.83165100000000
N           85.53898099999999       -1.39922300000000        9.21677800000000
C           85.24213500000000       -0.28132200000000       10.10898600000000
C           85.12576600000000       -2.71488300000000        9.69493000000000
C           85.32662200000000       -2.18198500000000        6.88677800000000
C           85.29075699999999       -1.93318500000000        5.50618500000000
C           86.51722100000001       -0.29668200000000        2.80296000000000
C           87.82874900000000       -0.52349200000000        3.37408000000000
C           88.73106199999998       -0.42114100000000        2.40602700000000
N           86.70917700000000       -0.04454500000000        1.46891800000000
C           88.04610699999999       -0.10463000000000        1.16803000000000
C           88.71888600000000        0.07496000000000       -0.00017700000000
C           87.94647999999999        0.46647600000000       -1.33273200000000
C           88.51258000000000        1.02336900000000       -2.46446000000000
C           87.48689299999999        1.17157700000000       -3.42906800000000
C           86.31713300000000        0.71591400000000       -2.85661400000000
N           86.59902400000000        0.32647600000000       -1.56769800000000
C           84.89329800000000        0.67126400000000       -3.55820400000000
C           84.84459999999999        0.81981300000000       -5.02959800000000
C           84.66894200000000        2.07455600000000       -5.61063200000000
C           84.66197899999999        2.21623000000000       -7.00539600000000
C           84.84137500000000        1.11980800000000       -7.87187100000000
N           84.84162800000000        1.28569300000000       -9.27147300000000
C           85.10254500000001        0.11545700000000      -10.10431200000000
C           85.39597600000000        2.54415400000000       -9.77019100000000
C           84.97822100000000       -0.13888900000000       -7.25565700000000
C           84.99055500000000       -0.28889800000000       -5.86067600000000
C           83.77105500000000        0.50428600000000       -2.81127900000000
C           82.44250199999999        0.46125000000000       -3.39703500000000
C           81.55881400000000        0.30473800000000       -2.41613300000000
C           82.28718600000001        0.23737300000000       -1.17293800000000
N           83.61180400000001        0.35145900000000       -1.46159800000000
H           80.53947300000000        0.01346800000000       -0.02217100000000
H           80.66091400000001        0.00851500000000        2.76544700000000
H           82.61249299999999       -0.21913800000000        4.64006000000000
H           84.40545699999998       -0.04304900000000        0.82850100000000
H           85.77684000000001        1.41254200000000        5.55014000000000
H           85.85367899999999        0.99688000000000        7.94825700000000
H           84.25993300000000        0.15354200000000        9.89053000000000
H           85.23208300000000       -0.60552200000000       11.15622400000000
H           86.01271300000001        0.49426700000000       10.04599100000000
H           84.07850500000001       -2.91728100000000        9.44420100000000
H           85.76449899999999       -3.50658800000000        9.28859300000000
H           85.22358100000000       -2.78337900000000       10.78440800000000
H           85.21085500000000       -3.21654500000000        7.18955400000000
H           85.14998100000000       -2.75086300000000        4.80284300000000
H           88.04639899999999       -0.75089000000000        4.40267300000000
H           89.78904799999998       -0.54801300000000        2.54502500000000
H           89.55184800000001        1.28503100000000       -2.59250200000000
H           87.59083300000000        1.56409900000000       -4.42974200000000
H           85.90597900000000        0.02387400000000       -0.88767300000000
H           84.53539399999998        2.94224900000000       -4.96815000000000
H           84.49792600000001        3.21666000000000       -7.39078700000000
H           84.99885999999999        0.36720900000000      -11.16616500000000
H           86.11861200000000       -0.26441600000000       -9.94980100000000
H           84.37628199999999       -0.68201100000000       -9.91191700000000
H           84.75105200000000        3.39297600000000       -9.52180100000000
H           85.46734100000000        2.53413500000000      -10.86356800000000
H           86.40398200000000        2.72000700000000       -9.37763900000000
H           85.09624400000000       -1.04694900000000       -7.83592000000000
H           85.11545099999998       -1.27313300000000       -5.41359900000000
H           82.20768499999998        0.54348900000000       -4.44342300000000
H           80.49129499999999        0.23800400000000       -2.52413900000000
C          169.72776099999999        0.08141600000000        0.01509100000000
C          169.00335999999996        0.31795000000000       -1.34443700000000
C          169.62325299999998        0.57397500000000       -2.54691300000000
C          168.60257200000001        0.68857100000000       -3.52467400000000
C          167.39120100000000        0.49978300000000       -2.88509700000000
N          167.64800000000000        0.29602300000000       -1.55286800000000
C          165.95921599999997        0.48090500000000       -3.56596000000000
C          165.90600100000000        0.55804100000000       -5.04499900000000
C          165.70755600000001        1.78014800000000       -5.68456400000000
C          165.67272799999998        1.85259500000000       -7.08502400000000
C          165.84904499999999        0.71787400000000       -7.90132600000000
N          165.80971700000001        0.80150800000000       -9.30596100000000
C          166.10656299999999        2.09734600000000       -9.91138700000000
C          166.22293199999996       -0.36548500000000      -10.07908300000000
C          166.02207599999997       -0.50542000000000       -7.22424200000000
C          166.05794100000000       -0.58704400000000       -5.82378600000000
C          164.83147700000001        0.37048700000000       -2.81235800000000
C          163.51994900000000        0.28381500000000       -3.42072400000000
C          162.61763600000000        0.15648500000000       -2.45563900000000
N          164.63952099999997        0.30301600000000       -1.45637600000000
C          163.30259100000001        0.17410100000000       -1.17794300000000
C          162.62981199999999        0.07496000000000       -0.00017700000000
C          163.40221800000000        0.14333600000000        1.38701900000000
C          162.83611699999997        0.41954200000000        2.61772800000000
C          163.86180500000000        0.33760000000000        3.59021000000000
C          165.03156500000000        0.02875800000000        2.92692300000000
N          164.74967399999997       -0.04782300000000        1.58263800000000
C          166.45540000000000       -0.17904400000000        3.59851900000000
C          166.50409800000000       -0.37940300000000        5.06375700000000
C          166.67975600000000        0.70426200000000        5.92262300000000
C          166.68671900000001        0.51517500000000        7.31175300000000
C          166.50732300000001       -0.75375300000000        7.89719500000000
N          166.50706999999997       -0.92043600000000        9.29670300000000
C          166.24615299999999       -2.25324200000000        9.83214900000000
C          165.95272199999999        0.18613100000000       10.07641600000000
C          166.37047699999999       -1.83301800000000        7.00320300000000
C          166.35814299999998       -1.65198300000000        5.61190800000000
C          167.57764299999999       -0.16635500000000        2.83326200000000
C          168.90619599999999       -0.34544600000000        3.39262700000000
C          169.78988399999997       -0.26775900000000        2.40236000000000
C          169.06151100000000       -0.04194700000000        1.17799000000000
N          167.73689399999998        0.00132500000000        1.48534600000000
H          170.80922499999997        0.01002600000000        0.00679600000000
H          170.68778300000000        0.65839800000000       -2.70437600000000
H          168.73620499999998        0.87633700000000       -4.58014300000000
H          166.94324099999997        0.15441000000000       -0.83343700000000
H          165.57185799999996        2.67583900000000       -5.08255700000000
H          165.49501900000001        2.83366800000000       -7.51130700000000
H          167.08876500000000        2.46891600000000       -9.59711700000000
H          166.11661499999997        2.02755800000000      -11.00543600000000
H          165.33598499999999        2.83658300000000       -9.66841200000000
H          167.27019299999998       -0.62099800000000       -9.88276000000000
H          165.58419900000001       -1.23036100000000       -9.86956900000000
H          166.12511699999996       -0.17679000000000      -11.15428000000000
H          166.13784299999998       -1.44023300000000       -7.76100400000000
H          166.19871699999999       -1.54676300000000       -5.33162100000000
H          163.30229899999998        0.30376500000000       -4.47396400000000
H          161.55964900000001        0.06571500000000       -2.62049500000000
H          161.79684999999998        0.64391700000000        2.80351800000000
H          163.75786500000001        0.48471900000000        4.65500000000000
H          165.44271900000001       -0.18265900000000        0.85064100000000
H          166.81330399999999        1.69834300000000        5.50134300000000
H          166.85077200000001        1.39745000000000        7.92083300000000
H          166.34983800000001       -2.25730900000000       10.92343000000000
H          165.23008600000000       -2.58633400000000        9.59293000000000
H          166.97241500000001       -2.98342700000000        9.45825100000000
H          166.59764600000000        1.06952400000000       10.03383400000000
H          165.88135700000001       -0.07980600000000       11.13700500000000
H          164.94471599999997        0.44907000000000        9.73599800000000
H          166.25245400000000       -2.85176300000000        7.35453700000000
H          166.23324700000001       -2.50406000000000        4.94665500000000
H          169.14101299999999       -0.51068300000000        4.42915400000000
H          170.85740300000001       -0.35794300000000        2.49172200000000
C           94.72729299999999        0.07627200000000        0.00825500000000
C           93.51835300000000        0.06281700000000       -0.00019200000000
C           92.09682500000000        0.07163600000000       -0.01217500000000
C           90.88515500000000        0.07907500000000       -0.00131200000000
C           96.14389700000000        0.06959700000000        0.00878800000000
C           97.36459299999999        0.07907500000000       -0.00131200000000
C          110.50278099999998        0.07627200000000        0.00825500000000
C          109.29384200000000        0.06281700000000       -0.00019200000000
C          107.87231300000001        0.07163600000000       -0.01217500000000
C          106.66064299999999        0.07907500000000       -0.00131200000000
C          111.91938500000001        0.06959700000000        0.00878800000000
C          113.14008099999998        0.07907500000000       -0.00131200000000
C          126.27826899999999        0.07627200000000        0.00825500000000
C          125.06932999999999        0.06281700000000       -0.00019200000000
C          123.64780099999999        0.07163600000000       -0.01217500000000
C          122.43613099999999        0.07907500000000       -0.00131200000000
C          127.69487300000000        0.06959700000000        0.00878800000000
C          128.91556900000000        0.07907500000000       -0.00131200000000
C          142.05375699999996        0.07627200000000        0.00825500000000
C          140.84481800000000        0.06281700000000       -0.00019200000000
C          139.42328900000001        0.07163600000000       -0.01217500000000
C          138.21162000000001        0.07907500000000       -0.00131200000000
C          143.47036199999999        0.06959700000000        0.00878800000000
C          144.69105699999997        0.07907500000000       -0.00131200000000
C          157.82924499999999        0.07627200000000        0.00825500000000
C          156.62030600000000        0.06281700000000       -0.00019200000000
C          155.19877699999998        0.07163600000000       -0.01217500000000
C          153.98710800000001        0.07907500000000       -0.00131200000000
C          159.24584999999999        0.06959700000000        0.00878800000000
C          160.46654599999999        0.07907500000000       -0.00131200000000
C           98.43763599999998       -0.04623700000000        0.00022700000000
C           99.23142199999999       -0.39620800000000        1.32658700000000
C           98.72367000000000       -1.01128000000000        2.45329200000000
C           99.76088699999998       -1.04725400000000        3.42012500000000
C          100.87154099999999       -0.45993400000000        2.85125800000000
N          100.56078700000000       -0.13711400000000        1.55399900000000
C          102.26168199999998       -0.19285600000000        3.56283100000000
C          102.25116699999998       -0.01168500000000        5.03249600000000
C          101.80121699999998        1.18212200000000        5.59306200000000
C          101.76310300000000        1.34620800000000        6.98584000000000
C          102.15303600000000        0.32247700000000        7.86878500000000
N          102.11498500000000        0.46678600000000        9.27112300000000
C          101.63972300000000        1.73396100000000        9.81730500000000
C          101.69827900000000       -0.72369000000000       10.01275100000000
C          102.62868999999999       -0.86231400000000        7.27435200000000
C          102.67137200000001       -1.03332700000000        5.88330700000000
C          103.39630099999998       -0.09110900000000        2.82168100000000
C          104.68291100000000        0.20935400000000        3.41492800000000
C          105.59082600000001        0.25235800000000        2.44584500000000
N          103.60441799999998       -0.21168400000000        1.47546000000000
C          104.92868399999999       -0.01971200000000        1.18571800000000
C          105.59227400000000       -0.04623700000000        0.00022700000000
C          104.79847599999998       -0.34534500000000       -1.33853600000000
C          105.30588200000000       -0.91919000000000       -2.48718200000000
C          104.26896999999998       -0.91802100000000       -3.45500500000000
C          103.15880099999998       -0.35085400000000       -2.86461700000000
N          103.46944499999999       -0.07745300000000       -1.55605400000000
C          101.76903400000000       -0.05591500000000       -3.56586000000000
C          101.78000699999998        0.17779500000000       -5.02807400000000
C          102.23937300000000        1.38614300000000       -5.54703700000000
C          102.27680599999999        1.59771900000000       -6.93373100000000
C          101.87659900000000        0.61054600000000       -7.85447500000000
N          101.91368199999999        0.81540600000000       -9.24772500000000
C          102.09212300000000       -0.37205000000000      -10.08121800000000
C          102.54063599999999        2.03425400000000       -9.75025400000000
C          101.39279999999999       -0.58999300000000       -7.29879200000000
C          101.35166300000000       -0.80968600000000       -5.91403700000000
C          100.63429600000001        0.01838600000000       -2.82122000000000
C           99.34748800000000        0.34116100000000       -3.40230000000000
C           98.43946699999999        0.34675900000000       -2.43214000000000
C           99.10164300000000        0.02667000000000       -1.18341200000000
N          100.42632899999998       -0.15295500000000       -1.48033600000000
H           97.71435299999999       -1.37302200000000        2.57718000000000
H           99.69970000000001       -1.43694600000000        4.42520500000000
H          101.22218400000000        0.20332100000000        0.86180300000000
H          101.47789400000001        1.98740700000000        4.93684300000000
H          101.39948000000000        2.30162900000000        7.34709100000000
H          101.75890200000001        1.74969200000000       10.90721600000000
H          102.22742400000000        2.57757000000000        9.43745900000000
H          100.57795400000001        1.89243100000000        9.59569700000000
H          102.44535199999999       -1.52122600000000        9.95182200000000
H          100.73275699999999       -1.09894900000000        9.65357000000000
H          101.58892699999998       -0.49851400000000       11.08042000000000
H          103.00112200000000       -1.68153300000000        7.87982600000000
H          103.04131300000000       -1.96213000000000        5.45408400000000
H          104.87701600000000        0.38075800000000        4.45893000000000
H          106.63496800000000        0.45949800000000        2.59210600000000
H          106.31495900000000       -1.27744600000000       -2.62377200000000
H          104.32965399999999       -1.26994100000000       -4.47402400000000
H          102.80889899999998        0.23887900000000       -0.85116000000000
H          102.56962099999998        2.16597400000000       -4.86392600000000
H          102.64447499999999        2.56403900000000       -7.26028100000000
H          102.98539599999998       -0.93542500000000       -9.78781300000000
H          101.21379600000000       -1.02494700000000      -10.04086000000000
H          102.21139199999999       -0.09754500000000      -11.13602500000000
H          103.60769400000000        2.06499600000000       -9.50276700000000
H          102.45197800000000        2.09480300000000      -10.84115200000000
H          102.04358599999999        2.92926400000000       -9.35953900000000
H          101.01949000000000       -1.39104300000000       -7.92690800000000
H          100.97768099999999       -1.75121200000000       -5.51748500000000
H           99.15282200000000        0.55216900000000       -4.43874700000000
H           97.39509800000000        0.55927000000000       -2.57006100000000
C          114.21312399999998       -0.04623700000000        0.00022700000000
C          115.00690999999999       -0.39620800000000        1.32658700000000
C          114.49915900000001       -1.01128000000000        2.45329200000000
C          115.53637500000001       -1.04725400000000        3.42012500000000
C          116.64702899999999       -0.45993400000000        2.85125800000000
N          116.33627500000000       -0.13711400000000        1.55399900000000
C          118.03716999999999       -0.19285600000000        3.56283100000000
C          118.02665600000000       -0.01168500000000        5.03249600000000
C          117.57670499999999        1.18212200000000        5.59306200000000
C          117.53859199999999        1.34620800000000        6.98584000000000
C          117.92852499999998        0.32247700000000        7.86878500000000
N          117.89047400000000        0.46678600000000        9.27112300000000
C          117.41521199999998        1.73396100000000        9.81730500000000
C          117.47376700000000       -0.72369000000000       10.01275100000000
C          118.40417800000000       -0.86231400000000        7.27435200000000
C          118.44686100000000       -1.03332700000000        5.88330700000000
C          119.17178900000000       -0.09110900000000        2.82168100000000
C          120.45839900000000        0.20935400000000        3.41492800000000
C          121.36631400000000        0.25235800000000        2.44584500000000
N          119.37990600000001       -0.21168400000000        1.47546000000000
C          120.70417200000000       -0.01971200000000        1.18571800000000
C          121.36776200000000       -0.04623700000000        0.00022700000000
C          120.57396399999999       -0.34534500000000       -1.33853600000000
C          121.08136999999999       -0.91919000000000       -2.48718200000000
C          120.04445800000001       -0.91802100000000       -3.45500500000000
C          118.93428900000001       -0.35085400000000       -2.86461700000000
N          119.24493300000000       -0.07745300000000       -1.55605400000000
C          117.54452200000000       -0.05591500000000       -3.56586000000000
C          117.55549499999998        0.17779500000000       -5.02807400000000
C          118.01486099999998        1.38614300000000       -5.54703700000000
C          118.05229400000000        1.59771900000000       -6.93373100000000
C          117.65208699999999        0.61054600000000       -7.85447500000000
N          117.68916999999999        0.81540600000000       -9.24772500000000
C          117.86761199999999       -0.37205000000000      -10.08121800000000
C          118.31612399999999        2.03425400000000       -9.75025400000000
C          117.16828800000000       -0.58999300000000       -7.29879200000000
C          117.12715099999998       -0.80968600000000       -5.91403700000000
C          116.40978399999999        0.01838600000000       -2.82122000000000
C          115.12297599999998        0.34116100000000       -3.40230000000000
C          114.21495500000000        0.34675900000000       -2.43214000000000
C          114.87713100000001        0.02667000000000       -1.18341200000000
N          116.20181700000001       -0.15295500000000       -1.48033600000000
H          113.48984100000000       -1.37302200000000        2.57718000000000
H          115.47518800000000       -1.43694600000000        4.42520500000000
H          116.99767199999999        0.20332100000000        0.86180300000000
H          117.25338200000000        1.98740700000000        4.93684300000000
H          117.17496799999999        2.30162900000000        7.34709100000000
H          117.53438999999999        1.74969200000000       10.90721600000000
H          118.00291199999999        2.57757000000000        9.43745900000000
H          116.35344200000000        1.89243100000000        9.59569700000000
H          118.22083999999998       -1.52122600000000        9.95182200000000
H          116.50824499999999       -1.09894900000000        9.65357000000000
H          117.36441499999998       -0.49851400000000       11.08042000000000
H          118.77661000000001       -1.68153300000000        7.87982600000000
H          118.81680100000000       -1.96213000000000        5.45408400000000
H          120.65250399999999        0.38075800000000        4.45893000000000
H          122.41045600000000        0.45949800000000        2.59210600000000
H          122.09044699999998       -1.27744600000000       -2.62377200000000
H          120.10514200000000       -1.26994100000000       -4.47402400000000
H          118.58438800000000        0.23887900000000       -0.85116000000000
H          118.34510899999998        2.16597400000000       -4.86392600000000
H          118.41996300000000        2.56403900000000       -7.26028100000000
H          118.76088399999999       -0.93542500000000       -9.78781300000000
H          116.98928400000000       -1.02494700000000      -10.04086000000000
H          117.98688000000000       -0.09754500000000      -11.13602500000000
H          119.38318200000001        2.06499600000000       -9.50276700000000
H          118.22746599999999        2.09480300000000      -10.84115200000000
H          117.81907399999999        2.92926400000000       -9.35953900000000
H          116.79497800000000       -1.39104300000000       -7.92690800000000
H          116.75316899999999       -1.75121200000000       -5.51748500000000
H          114.92831000000000        0.55216900000000       -4.43874700000000
H          113.17058599999999        0.55927000000000       -2.57006100000000
C          129.98861199999999       -0.04623700000000        0.00022700000000
C          130.78239900000000       -0.39620800000000        1.32658700000000
C          130.27464699999999       -1.01128000000000        2.45329200000000
C          131.31186400000001       -1.04725400000000        3.42012500000000
C          132.42251700000000       -0.45993400000000        2.85125800000000
N          132.11176300000000       -0.13711400000000        1.55399900000000
C          133.81265800000000       -0.19285600000000        3.56283100000000
C          133.80214400000000       -0.01168500000000        5.03249600000000
C          133.35219400000000        1.18212200000000        5.59306200000000
C          133.31407999999999        1.34620800000000        6.98584000000000
C          133.70401300000000        0.32247700000000        7.86878500000000
N          133.66596200000001        0.46678600000000        9.27112300000000
C          133.19069999999999        1.73396100000000        9.81730500000000
C          133.24925500000001       -0.72369000000000       10.01275100000000
C          134.17966600000000       -0.86231400000000        7.27435200000000
C          134.22234900000001       -1.03332700000000        5.88330700000000
C          134.94727700000001       -0.09110900000000        2.82168100000000
C          136.23388700000001        0.20935400000000        3.41492800000000
C          137.14180200000001        0.25235800000000        2.44584500000000
N          135.15539500000000       -0.21168400000000        1.47546000000000
C          136.47966000000000       -0.01971200000000        1.18571800000000
C          137.14324999999999       -0.04623700000000        0.00022700000000
C          136.34945200000001       -0.34534500000000       -1.33853600000000
C          136.85685799999999       -0.91919000000000       -2.48718200000000
C          135.81994599999996       -0.91802100000000       -3.45500500000000
C          134.70977800000000       -0.35085400000000       -2.86461700000000
N          135.02042100000000       -0.07745300000000       -1.55605400000000
C          133.32001000000000       -0.05591500000000       -3.56586000000000
C          133.33098400000000        0.17779500000000       -5.02807400000000
C          133.79034899999999        1.38614300000000       -5.54703700000000
C          133.82778200000001        1.59771900000000       -6.93373100000000
C          133.42757499999999        0.61054600000000       -7.85447500000000
N          133.46465799999999        0.81540600000000       -9.24772500000000
C          133.64310000000000       -0.37205000000000      -10.08121800000000
C          134.09161200000000        2.03425400000000       -9.75025400000000
C          132.94377600000001       -0.58999300000000       -7.29879200000000
C          132.90263999999999       -0.80968600000000       -5.91403700000000
C          132.18527200000000        0.01838600000000       -2.82122000000000
C          130.89846399999999        0.34116100000000       -3.40230000000000
C          129.99044400000000        0.34675900000000       -2.43214000000000
C          130.65261899999999        0.02667000000000       -1.18341200000000
N          131.97730500000000       -0.15295500000000       -1.48033600000000
H          129.26533000000001       -1.37302200000000        2.57718000000000
H          131.25067600000000       -1.43694600000000        4.42520500000000
H          132.77316099999999        0.20332100000000        0.86180300000000
H          133.02887100000001        1.98740700000000        4.93684300000000
H          132.95045600000000        2.30162900000000        7.34709100000000
H          133.30987800000000        1.74969200000000       10.90721600000000
H          133.77840100000000        2.57757000000000        9.43745900000000
H          132.12893000000000        1.89243100000000        9.59569700000000
H          133.99632800000001       -1.52122600000000        9.95182200000000
H          132.28373300000001       -1.09894900000000        9.65357000000000
H          133.13990400000000       -0.49851400000000       11.08042000000000
H          134.55209800000000       -1.68153300000000        7.87982600000000
H          134.59228899999999       -1.96213000000000        5.45408400000000
H          136.42799199999996        0.38075800000000        4.45893000000000
H          138.18594400000001        0.45949800000000        2.59210600000000
H          137.86593600000000       -1.27744600000000       -2.62377200000000
H          135.88063099999997       -1.26994100000000       -4.47402400000000
H          134.35987600000001        0.23887900000000       -0.85116000000000
H          134.12059800000000        2.16597400000000       -4.86392600000000
H          134.19545199999999        2.56403900000000       -7.26028100000000
H          134.53637200000000       -0.93542500000000       -9.78781300000000