250
 energy: -425.332217795028 gnorm: 6.722894525191 xtb: 6.5.1 (b24c23e)
Fe          47.57614000000000       -0.03678400000000        0.04016300000000
C           44.23454600000000        0.10650400000000        0.03066100000000
C           44.89681500000000        1.14557800000000       -0.48612900000000
C           44.24626599999999        2.29343400000000       -1.10631400000000
C           45.18648099999999        3.14191900000000       -1.47875800000000
C           46.49140400000000        2.58105500000000       -1.10189200000000
N           46.31425099999999        1.30755000000000       -0.48012900000000
C           47.68352600000000        3.18316900000000       -1.29452900000000
C           47.73325000000000        4.52870200000000       -1.91125000000000
C           48.29019000000000        4.69668100000000       -3.18793300000000
C           48.35344799999999        5.96768600000000       -3.76658900000000
C           47.86443999999999        7.08422400000000       -3.07365900000000
N           47.92935000000000        8.38404100000000       -3.66616800000000
C           47.31339100000000        6.91831900000000       -1.79510500000000
C           47.25047600000000        5.64796700000000       -1.21509100000000
C           48.97471400000000        2.55804100000000       -0.90446100000000
C           50.25817000000000        3.27068200000000       -0.89829100000000
C           51.19268300000000        2.41531200000000       -0.53640400000000
N           49.11737699999999        1.31615100000000       -0.55554300000000
C           50.51256899999999        1.14692000000000       -0.30487500000000
C           51.10676699999999       -0.01121500000000        0.02553100000000
C           50.34318399999999       -1.25722600000000        0.25833600000000
C           50.87370500000000       -2.47341200000000        0.23848400000000
C           49.83080900000000       -3.40501100000000        0.62222900000000
C           48.73317599999999       -2.69493200000000        0.85599800000000
N           48.96702200000000       -1.30309000000000        0.63557200000000
C           47.45456200000000       -3.26595600000000        1.35150800000000
C           47.47738199999999       -4.60394200000000        1.99141800000000
C           48.21633400000000       -4.80790800000000        3.16694700000000
C           48.25731000000000       -6.07156200000000        3.76340800000000
C           47.56512700000000       -7.14663200000000        3.18846800000000
N           47.60752500000000       -8.43898800000000        3.79907600000000
C           46.83366800000000       -6.94707200000000        2.00926200000000
C           46.79261500000000       -5.68412000000000        1.41145000000000
C           46.29250500000000       -2.59484600000000        1.23541900000000
C           44.98517300000000       -3.03748000000000        1.71736400000000
C           44.12351099999999       -2.11089600000000        1.34465600000000
C           44.87196900000000       -1.07206600000000        0.63901200000000
N           46.13682900000000       -1.34352600000000        0.56922600000000
H           43.15118300000000        0.12446700000000        0.00720200000000
H           43.18295499999999        2.43697600000000       -1.24956300000000
H           44.99868100000000        4.08378800000000       -1.97735200000000
H           48.67325100000000        3.84306200000000       -3.73372600000000
H           48.78379600000000        6.08260900000000       -4.75345000000000
H           48.33867900000000        8.51798700000000       -4.61768000000000
H           47.56835900000000        9.22194400000000       -3.15776100000000
H           46.93519700000000        7.77275300000000       -1.24810800000000
H           46.82779899999999        5.53500500000000       -0.22422200000000
H           50.42908800000000        4.31108100000000       -1.14174100000000
H           52.24645800000000        2.64056000000000       -0.44026400000000
H           51.89938700000000       -2.72865900000000        0.00807700000000
H           49.93955600000000       -4.47698700000000        0.72439600000000
H           48.75731600000000       -3.98714600000000        3.62193800000000
H           48.82868999999999       -6.21311300000000        4.67215000000000
H           48.15051500000000       -8.59789700000000        4.67701300000000
H           47.09602500000000       -9.24632100000000        3.37782700000000
H           46.29860300000000       -7.77006300000000        1.55242100000000
H           46.23117800000000       -5.54755100000000        0.49528500000000
H           44.74333600000000       -3.93553100000000        2.27032800000000
H           43.05895800000000       -2.12714000000000        1.53804800000000
Fe          87.79465700000000        0.01510700000000        0.01230400000000
C           91.13625000000000       -0.07198300000000        0.12648400000000
C           90.47398200000001       -1.07684000000000        0.70700700000000
C           91.12452999999998       -2.22798200000000        1.32107200000000
C           90.18431500000000       -3.00722300000000        1.82249600000000
C           88.87939200000000       -2.38321400000000        1.56324600000000
N           89.05654599999998       -1.16133300000000        0.84532600000000
C           87.68727000000000       -2.87646000000000        1.95866900000000
C           87.63754700000000       -4.13393600000000        2.73941000000000
C           87.08060600000000       -5.29085800000000        2.17401900000000
C           87.01734800000000       -6.47543000000000        2.91367400000000
C           87.50635600000000       -6.51479200000000        4.22716500000000
N           87.44144599999998       -7.72682800000000        4.98318100000000
C           88.05740500000000       -5.35745600000000        4.79531800000000
C           88.12032000000001       -4.17211400000000        4.05695900000000
C           86.39608200000001       -2.20594100000000        1.65315000000000
C           85.11262599999999       -2.59455100000000        2.25054200000000
C           84.17811299999998       -1.82030600000000        1.73754700000000
N           86.25342000000001       -1.22894300000000        0.81082600000000
C           84.85822700000000       -0.92650700000000        0.80827400000000
C           84.26402899999999       -0.01121500000000        0.02553100000000
C           85.02761200000000        0.87128000000000       -0.88438300000000
C           84.49709100000000        1.52670800000000       -1.90903600000000
C           85.53998700000000        2.36129100000000       -2.47349200000000
C           86.63762100000000        2.16379800000000       -1.75248100000000
N           86.40377400000000        1.21104600000000       -0.71417700000000
C           87.91623399999999        2.89230900000000       -1.95464400000000
C           87.89341400000001        4.16494400000000       -2.71628300000000
C           87.15446199999998        5.25743900000000       -2.23677700000000
C           87.11348599999998        6.45278900000000       -2.96046700000000
C           87.80566899999999        6.56758300000000       -4.17420200000000
N           87.76327100000000        7.79058200000000       -4.91399900000000
C           88.53712899999998        5.47445700000000       -4.65941200000000
C           88.57818100000000        4.27837000000000       -3.93705400000000
C           89.07829099999999        2.42474400000000       -1.45941900000000
C           90.38562300000000        3.07101000000000       -1.56206600000000
C           91.24728500000001        2.24839800000000       -0.99569200000000
C           90.49882800000000        1.08626600000000       -0.51972000000000
N           89.23396699999999        1.17808900000000       -0.78453800000000
H           92.21961299999998       -0.10146100000000        0.12849400000000
H           92.18784100000001       -2.42669000000000        1.36156500000000
H           90.37211499999999       -3.94320500000000        2.33205300000000
H           86.69754500000001       -5.27412800000000        1.16096700000000
H           86.58700000000000       -7.36147100000000        2.46419500000000
H           87.03211700000000       -8.59391800000000        4.56908900000000
H           87.80243699999998       -7.76603600000000        5.96247700000000
H           88.43559900000000       -5.37363300000000        5.80971600000000
H           88.54299699999999       -3.28381500000000        4.51028600000000
H           84.94170800000001       -3.37231200000000        2.98319800000000
H           83.12433799999999       -1.86462800000000        1.97841000000000
H           83.47141000000001        1.47569500000000       -2.24909000000000
H           85.43123999999999        3.03874100000000       -3.31052900000000
H           86.61348000000000        5.18317900000000       -1.30128200000000
H           86.54210599999999        7.28843100000000       -2.57634500000000
H           87.22028200000000        8.61014000000000       -4.56136600000000
H           88.27477100000000        7.88554500000000       -5.81965800000000
H           89.07219300000000        5.54840700000000       -5.59778800000000
H           89.13961799999998        3.43929200000000       -4.32943000000000
H           90.62746000000000        4.02810000000000       -2.00506000000000
H           92.31183799999999        2.41856400000000       -0.90237800000000
C           54.20242099999999        0.00122100000000        0.02797300000000
C           52.95015099999999       -0.01796000000000        0.02362500000000
C           55.51608899999999        0.00045500000000        0.02990500000000
C           57.01922299999999       -0.01796000000000        0.02362500000000
C           66.94813499999999        0.00122100000000        0.02797300000000
C           65.69586500000000       -0.01796000000000        0.02362500000000
C           68.26180400000000        0.00045500000000        0.02990500000000
C           69.76493699999999       -0.01796000000000        0.02362500000000
C           79.69385000000000        0.00122100000000        0.02797300000000
C           78.44157900000000       -0.01796000000000        0.02362500000000
C           81.00751800000000        0.00045500000000        0.02990500000000
C           82.51065199999999       -0.01796000000000        0.02362500000000
Fe          61.34711600000000       -0.04307200000000        0.05347800000000
C           57.86293100000000        0.01323200000000       -0.02836700000000
C           58.51979100000000        1.12312700000000       -0.41231400000000
C           57.87506600000000        2.35521300000000       -0.87243200000000
C           58.81308900000000        3.25081100000000       -1.10694100000000
C           60.11593800000000        2.64302100000000       -0.81717300000000
N           59.93952000000000        1.29300100000000       -0.37966400000000
C           61.29997300000000        3.28538100000000       -0.90418500000000
C           61.32135200000000        4.70547600000000       -1.31830000000000
C           61.18768000000000        5.04877000000000       -2.67212200000000
C           61.20470599999999        6.39151100000000       -3.06124400000000
C           61.35829499999999        7.40289900000000       -2.10157100000000
N           61.37622100000000        8.77622500000000       -2.50035900000000
C           61.49394800000000        7.05880900000000       -0.74850500000000
C           61.47484300000000        5.71655400000000       -0.35813200000000
C           62.60346300000000        2.64157100000000       -0.60002700000000
C           63.88237700000000        3.36267600000000       -0.56557300000000
C           64.83386400000001        2.48592900000000       -0.31969300000000
N           62.76690500000000        1.37160700000000       -0.39156600000000
C           64.17115300000000        1.19344500000000       -0.20363400000000
C           64.78624400000000        0.01323200000000       -0.02836700000000
C           64.04088500000000       -1.26119600000000        0.06676500000000
C           64.58938700000000       -2.46082800000000       -0.07858000000000
C           63.55686399999999       -3.44133500000000        0.19160100000000
C           62.44696300000000       -2.77469800000000        0.48678900000000
N           62.66148700000000       -1.36501100000000        0.41882200000000
C           61.18174700000000       -3.41096500000000        0.92892900000000
C           61.23493100000000       -4.79897900000000        1.44869100000000
C           60.58996900000000       -5.84190100000000        0.76248800000000
C           60.65611700000000       -7.15102200000000        1.24877500000000
C           61.37176200000000       -7.43296600000000        2.42203000000000
N           61.43592600000000       -8.77161000000000        2.92164800000000
C           62.02500100000000       -6.39393000000000        3.10228200000000
C           61.96070900000000       -5.08480800000000        2.61567000000000
C           60.00579999999999       -2.75538300000000        0.88623500000000
C           58.72320500000000       -3.26923100000000        1.35585800000000
C           57.83493799999999       -2.33340800000000        1.09239800000000
C           58.53837400000000       -1.21303200000000        0.45767000000000
N           59.80812400000000       -1.45181500000000        0.33712600000000
H           56.81570300000000        2.53702400000000       -0.99631200000000
H           58.62369200000000        4.26146000000000       -1.44633000000000
H           61.06854300000000        4.27646900000000       -3.42264500000000
H           61.09875600000000        6.64367100000000       -4.10905800000000
H           61.27711499999999        9.04225100000000       -3.50545200000000
H           61.49371799999999        9.53643600000000       -1.79339700000000
H           61.61442099999999        7.83028200000000        0.00202600000000
H           61.58033700000000        5.46355800000000        0.69006300000000
H           64.04135300000000        4.42179500000000       -0.71897900000000
H           65.88892700000000        2.71073800000000       -0.23917600000000
H           65.62069900000000       -2.67694000000000       -0.32231600000000
H           63.68258200000000       -4.51649900000000        0.18998700000000
H           60.03879899999999       -5.63966300000000       -0.14832900000000
H           60.15151199999999       -7.94530400000000        0.71113900000000
H           61.96583799999999       -8.99173200000000        3.79482600000000
H           60.95057000000000       -9.55207200000000        2.42478100000000
H           62.58352700000000       -6.59848700000000        4.00835000000000
H           62.47133300000000       -4.29241500000000        3.15083100000000
H           58.51558499999999       -4.21680700000000        1.83575400000000
H           56.78049800000000       -2.40045400000000        1.32369900000000
Fe          74.09283100000000       -0.04307200000000        0.05347800000000
C           70.60864500000000        0.01323200000000       -0.02836700000000
C           71.26550500000000        1.12312700000000       -0.41231400000000
C           70.62078000000000        2.35521300000000       -0.87243200000000
C           71.55880399999999        3.25081100000000       -1.10694100000000
C           72.86165200000001        2.64302100000000       -0.81717300000000
N           72.68523399999999        1.29300100000000       -0.37966400000000
C           74.04568800000000        3.28538100000000       -0.90418500000000
C           74.06706600000000        4.70547600000000       -1.31830000000000
C           73.93339400000001        5.04877000000000       -2.67212200000000
C           73.95041999999999        6.39151100000000       -3.06124400000000
C           74.10400899999999        7.40289900000000       -2.10157100000000
N           74.12193599999999        8.77622500000000       -2.50035900000000
C           74.23966200000000        7.05880900000000       -0.74850500000000
C           74.22055800000000        5.71655400000000       -0.35813200000000
C           75.34917700000000        2.64157100000000       -0.60002700000000
C           76.62809100000000        3.36267600000000       -0.56557300000000
C           77.57957900000000        2.48592900000000       -0.31969300000000
N           75.51262000000000        1.37160700000000       -0.39156600000000
C           76.91686700000000        1.19344500000000       -0.20363400000000
C           77.53195799999999        0.01323200000000       -0.02836700000000
C           76.78660000000001       -1.26119600000000        0.06676500000000
C           77.33510099999999       -2.46082800000000       -0.07858000000000
C           76.30257799999998       -3.44133500000000        0.19160100000000
C           75.19267800000000       -2.77469800000000        0.48678900000000
N           75.40720200000000       -1.36501100000000        0.41882200000000
C           73.92746200000001       -3.41096500000000        0.92892900000000
C           73.98064499999998       -4.79897900000000        1.44869100000000
C           73.33568300000000       -5.84190100000000        0.76248800000000
C           73.40183200000000       -7.15102200000000        1.24877500000000
C           74.11747600000000       -7.43296600000000        2.42203000000000
N           74.18164100000000       -8.77161000000000        2.92164800000000
C           74.77071500000000       -6.39393000000000        3.10228200000000
C           74.70642400000000       -5.08480800000000        2.61567000000000
C           72.75151400000000       -2.75538300000000        0.88623500000000
C           71.46891900000000       -3.26923100000000        1.35585800000000
C           70.58065199999999       -2.33340800000000        1.09239800000000
C           71.28408800000000       -1.21303200000000        0.45767000000000
N           72.55383800000000       -1.45181500000000        0.33712600000000
H           69.56141800000000        2.53702400000000       -0.99631200000000
H           71.36940700000000        4.26146000000000       -1.44633000000000
H           73.81425800000000        4.27646900000000       -3.42264500000000
H           73.84447000000000        6.64367100000000       -4.10905800000000
H           74.02282899999999        9.04225100000000       -3.50545200000000
H           74.23943299999999        9.53643600000000       -1.79339700000000
H           74.36013499999999        7.83028200000000        0.00202600000000
H           74.32605100000001        5.46355800000000        0.69006300000000
H           76.78706699999999        4.42179500000000       -0.71897900000000
H           78.63464200000000        2.71073800000000       -0.23917600000000
H           78.36641299999999       -2.67694000000000       -0.32231600000000
H           76.42829700000000       -4.51649900000000        0.18998700000000
H           72.78451300000000       -5.63966300000000       -0.14832900000000
H           72.89722599999999       -7.94530400000000        0.71113900000000
H           74.71155200000000       -8.99173200000000        3.79482600000000
H           73.69628400000001       -9.55207200000000        2.42478100000000
H           75.32924100000000       -6.59848700000000        4.00835000000000
H           75.21704699999999       -4.29241500000000        3.15083100000000
H           71.26130000000001       -4.21680700000000        1.83575400000000
H           69.52621200000000       -2.40045400000000        1.32369900000000
250
 energy: -427.743058021304 gnorm: 1.324352420181 xtb: 6.5.1 (b24c23e)
Fe          47.57775182079051       -0.03613578924073        0.04001072430300
C           44.23487033603562        0.10252597470169        0.03278689438794
C           44.89930692557323        1.14678939130972       -0.48661082668624
C           44.24549250632343        2.29182055274655       -1.10558576644016
C           45.18875400534082        3.14276329187847       -1.47902761178144
C           46.49010407799120        2.57865839036754       -1.10087061633778
N           46.31147325749687        1.30933129424174       -0.48152064375918
C           47.68758465350963        3.18250289181680       -1.29384183948007
C           47.73367111238016        4.52913064074591       -1.91123459495769
C           48.29001667707476        4.69795656123399       -3.18759489381741
C           48.35321205757252        5.96743036593007       -3.76603229200366
C           47.86456328756749        7.08673869987302       -3.07480845933402
N           47.92932121690458        8.38344323796378       -3.66589396078885
C           47.31355016151127        6.91771110561119       -1.79528969844200
C           47.25072286219500        5.64848180045914       -1.21629156925497
C           48.97226139488195        2.56209930995921       -0.90621378654903
C           50.25521148971328        3.27274262592423       -0.89945507544363
C           51.19341226075290        2.41322967594679       -0.53574948226761
N           49.11887153768187        1.31361100615225       -0.55363344405035
C           50.51303272189498        1.14782079294144       -0.30509644215410
C           51.11343885248955       -0.01441804983821        0.02574986081155
C           50.34220237962450       -1.25150930817306        0.25901953978828
C           50.87396322996948       -2.47932346714127        0.23930557495658
C           49.83636580811054       -3.40597425948422        0.62113940507411
C           48.72852794101570       -2.69131972442598        0.85750905594886
N           48.96723059321582       -1.30421317150411        0.63396482610393
C           47.45758874608971       -3.26493218003395        1.35067860637884
C           47.47794256482599       -4.60401883211205        1.99111457819289
C           48.21605564209768       -4.80914839291120        3.16668093401016
C           48.25700365382159       -6.07121448982770        3.76288300395555
C           47.56520714395724       -7.14919557650540        3.18968254073407
N           47.60750443025766       -8.43834707032463        3.79877012151306
C           46.83390199209295       -6.94642843178200        2.00936571208002
C           46.79295448075856       -5.68458458405041        1.41259965192044
C           46.29154804515223       -2.59408971144123        1.23514765382245
C           44.98747458565300       -3.03842666145187        1.71748345589518
C           44.12158875943815       -2.10843269147708        1.34347540310613
C           44.86736396324088       -1.06942055234231        0.63790678157085
N           46.13913372575838       -1.34483327536509        0.57036337527225
H           43.15120870489907        0.12420374292739        0.00741819445828
H           43.18298685261762        2.43634935709087       -1.24924962139295
H           44.99951388972956        4.08383215972487       -1.97730921135976
H           48.67318450244169        3.84309586876853       -3.73361680890997
H           48.78378464748890        6.08267752226145       -4.75348569369277
H           48.33740938376641        8.51737241453230       -4.61466013477408
H           47.56946024552821        9.21916403562086       -3.15923325582365
H           46.93521757953243        7.77282477641380       -1.24813344158299
H           46.82786822535141        5.53493810506662       -0.22431389367614
H           50.42839625694737        4.31120387569019       -1.14188514447630
H           52.24638004613210        2.63973131271248       -0.44004235380628
H           51.89929046398500       -2.72885406659563        0.00805863814334
H           49.93977570163896       -4.47690089795231        0.72421522776706
H           48.75723440402647       -3.98717601144669        3.62183524868059
H           48.82867280020616       -6.21316986546945        4.67218491542664
H           48.14883926660863       -8.59720535481741        4.67421755589125
H           47.09759162500922       -9.24363731759628        3.37902639245067
H           46.29862685988594       -7.77012570863635        1.55243759608490
H           46.23126658546341       -5.54748717718689        0.49535737144049
H           44.74412186963420       -3.93553872717946        2.27020758787733
H           43.05887101766255       -2.12659036860611        1.53776670904869
Fe          87.79306784883055        0.01461958226310        0.01275579725352
C           91.13592165873507       -0.06801782028233        0.12434565430018
C           90.47148457429026       -1.07791493663211        0.70775465228467
C           91.12530985364940       -2.22649075521355        1.32013339890302
C           90.18204888220946       -3.00791126503849        1.82305214378914
C           88.88072831350725       -2.38099925940934        1.56177510068481
N           89.05934240644511       -1.16352812621401        0.84606701062887
C           87.68313899500274       -2.87551095980007        1.95849868348644
C           87.63712685474941       -4.13415915300680        2.73977216082287
C           87.08077958666860       -5.29127953799071        2.17526850908916
C           87.01758460336303       -6.47482466430645        2.91376992862663
C           87.50623270198268       -6.51713689167431        4.22862390992599
N           87.44147427967320       -7.72627172526955        4.98283572593476
C           88.05724526978712       -5.35727424852647        4.79470870678435
C           88.12007425896978       -4.17339808642679        4.05672355692941
C           86.39855724976459       -2.20972660255843        1.65566392330949
C           85.11566722058723       -2.59669511753030        2.25162750219132
C           84.17740733716118       -1.81853698258125        1.73611709913279
N           86.25179343266338       -1.22583856445703        0.80972387461553
C           84.85812620949541       -0.92759958841599        0.80911285763325
C           84.25626184893373       -0.00914243519054        0.02289956628973
C           85.02874860595325        0.86891168057735       -0.87932459679818
C           84.49684635675108        1.53063017075891       -1.91350683475502
C           85.53442472748516        2.36091999819541       -2.47489136471672
C           86.64227479507581        2.16305325289370       -1.74863662565510
N           86.40350861962483        1.21033538635422       -0.71602146342332
C           87.91319323837514        2.89104641649618       -1.95425771778826
C           87.89285311857921        4.16473318077233       -2.71650948891084
C           87.15473810771481        5.25790468560224       -2.23795810156784
C           87.11379233113223        6.45215829060806       -2.96046548196040
C           87.80558766403402        6.57001749829433       -4.17567180927585
N           87.76329464756681        7.78996871792510       -4.91362896204512
C           88.53689535749346        5.47418610325660       -4.65881760055630
C           88.57784410540481        4.27958486597108       -3.93680613008417
C           89.07926060225994        2.42409563408676       -1.45893657187843
C           90.38331181431714        3.07163159835392       -1.56279005085979
C           91.24920817520889        2.24604465937748       -0.99428707742593
C           90.50343305075404        1.08389387376458       -0.51813164867852
N           89.23164597194938        1.17975910549600       -0.78498062190751
H           92.21958720292749       -0.10113638772738        0.12839320042714
H           92.18780960401097       -2.42608220635116        1.36121618576646
H           90.37128190566391       -3.94319347094673        2.33211361241906
H           86.69761139654854       -5.27405512500445        1.16105574472285
H           86.58701114796096       -7.36153879597028        2.46423228954133
H           87.03338711611467       -8.59106121431859        4.57024535849051
H           87.80133598947313       -7.76572702381439        5.95934648616087
H           88.43557817365290       -5.37369371157085        5.80976155871875
H           88.54292772695946       -3.28385478391674        4.51017955655174
H           84.94239871013021       -3.37250256948567        2.98321789633738
H           83.12440347590434       -1.86396826144547        1.97782616431783
H           83.47149831441526        1.47577848254078       -2.24925451848209
H           85.43101700775854        3.03854421444077       -3.31055253545712
H           86.61356151607005        5.18310988142819       -1.30136377734816
H           86.54212333721392        7.28849077439456       -2.57637301375199
H           87.22195627777340        8.60742718050091       -4.56233477565721
H           88.27320315593741        7.88506133770336       -5.81675919160991
H           89.07216869950550        5.54845475824587       -5.59783079072908
H           89.13952933343207        3.43931678930123       -4.32933702684454
H           90.62667352249389        4.02800309753269       -2.00513300657635
H           92.31192487595378        2.41802495513743       -0.90207535941109
C           54.20067349408035        0.00097297063106        0.02812751148773
C           52.94193627452139       -0.01830037237942        0.02380098677283
C           55.51474826797071        0.00028244872065        0.02998716482162
C           56.84730950030568       -0.02588903602555        0.03323466675230
C           66.97442733885009        0.00074427394797        0.02865752578360
C           65.80228246774693       -0.02426639383210        0.03028446045156
C           68.25756013664872        0.00030014267693        0.03012616884824
C           69.59498692134902       -0.02594546559606        0.03315036295949
C           79.71810237232053        0.00074268945643        0.02856017771200
C           78.55007904167016       -0.02421610048261        0.03023244062180
C           81.02529080969394        0.00047318213829        0.02985976849180
C           82.50272848439995       -0.01737210335688        0.02339148887732