132
 energy: -251.388550694297 gnorm: 2.867621664790 xtb: 6.5.1 (b24c23e)
Ni          13.52947100000000       -0.12365700000000       -0.01845100000000
C           10.18501500000000        0.03213900000000        0.06998300000000
C           10.83643600000000        1.19437000000000        0.17111400000000
C           10.17368600000000        2.49095600000000        0.24231100000000
C           11.10536800000000        3.41797600000000        0.36572200000000
C           12.41668000000000        2.75522400000000        0.39233500000000
N           12.25267300000000        1.34280300000000        0.25849700000000
C           13.60313900000000        3.38060800000000        0.54073700000000
C           13.63903700000000        4.85078700000000        0.71673300000000
C           13.15024800000000        5.43719700000000        1.89540900000000
C           13.19462400000000        6.83251800000000        2.07151500000000
C           12.67504500000000        7.45367900000000        3.30977700000000
O           12.72590700000000        8.83526400000000        3.47672600000000
O           12.18154400000000        6.73957700000000        4.22433400000000
C           13.74217700000000        7.63193200000000        1.05299000000000
C           14.23596300000000        7.04810700000000       -0.11657700000000
C           14.18713800000000        5.66331400000000       -0.28528000000000
C           14.90111700000000        2.65592900000000        0.54710600000000
C           16.17878200000000        3.27245000000000        0.92470900000000
C           17.12184100000000        2.36271600000000        0.78695300000000
N           15.05536400000000        1.41595000000000        0.19640900000000
C           16.45302600000000        1.15375400000000        0.32210400000000
C           17.05798500000000       -0.00094700000000       -0.00066200000000
C           16.30536300000000       -1.19216200000000       -0.45267200000000
C           16.84511300000000       -2.21373700000000       -1.10535000000000
C           15.81146000000000       -3.21826700000000       -1.26435800000000
C           14.70970500000000       -2.74526400000000       -0.69334700000000
N           14.93165800000000       -1.44123800000000       -0.15417800000000
C           13.43813500000000       -3.50285200000000       -0.56869700000000
C           13.47404400000000       -4.97769300000000       -0.72415000000000
C           14.21871900000000       -5.75833200000000        0.17136900000000
C           14.27033800000000       -7.14489700000000        0.01916000000000
C           13.58459100000000       -7.76309200000000       -1.02942600000000
C           12.83965600000000       -6.99599500000000       -1.94321000000000
C           12.11495800000000       -7.64477900000000       -3.05814100000000
O           11.37740700000000       -6.87799000000000       -3.95666100000000
O           12.15753900000000       -8.89635100000000       -3.20515900000000
C           12.79388000000000       -5.59956700000000       -1.78454400000000
C           12.27034400000000       -2.88098300000000       -0.31604400000000
C           10.96886600000000       -3.52253800000000       -0.13722000000000
C           10.09804500000000       -2.54596800000000        0.02972200000000
C           10.83479800000000       -1.28454300000000       -0.02799200000000
N           12.10147700000000       -1.46756700000000       -0.22919100000000
H            9.10142600000000        0.04946100000000        0.06064000000000
H            9.10847000000000        2.67807300000000        0.19695000000000
H           10.90758100000000        4.47978200000000        0.43249200000000
H           12.73833300000000        4.80160900000000        2.67044900000000
H           12.37265600000000        9.27080000000000        4.32041300000000
H           13.79109500000000        8.70829900000000        1.15924800000000
H           14.65812600000000        7.67136300000000       -0.89430400000000
H           14.57424500000000        5.22309900000000       -1.19612900000000
H           16.34011700000000        4.28843000000000        1.26037300000000
H           18.17421200000000        2.51441700000000        0.98676900000000
H           17.87146300000000       -2.30132100000000       -1.43578500000000
H           15.92892000000000       -4.18454000000000       -1.73755700000000
H           14.75560900000000       -5.29212900000000        0.98851600000000
H           14.84388400000000       -7.74274800000000        0.71569000000000
H           13.63971400000000       -8.84022700000000       -1.12571300000000
H           10.87739600000000       -7.31218300000000       -4.72327400000000
H           12.23423200000000       -4.98940600000000       -2.48346700000000
H           10.73679800000000       -4.57939200000000       -0.13631400000000
H            9.03453800000000       -2.67090900000000        0.18554300000000
Ni          31.42141300000000        0.12085500000000        0.02254800000000
C           34.76586900000000       -0.05526600000000        0.05532700000000
C           34.11444800000000       -1.18691800000000       -0.22817300000000
C           34.77719699999999       -2.43581200000000       -0.58379300000000
C           33.84551600000000       -3.35238600000000       -0.76951000000000
C           32.53420300000000       -2.73456200000000       -0.52817500000000
N           32.69821100000000       -1.35573500000000       -0.19398600000000
C           31.34774500000000       -3.37414800000000       -0.59187900000000
C           31.31184700000000       -4.82132500000000       -0.90505600000000
C           31.80063500000000       -5.76012600000000        0.01787800000000
C           31.75625900000000       -7.13657500000000       -0.27077800000000
C           32.27583900000000       -8.12766300000000        0.69714700000000
O           32.22497700000000       -9.48814000000000        0.40431600000000
O           32.76933900000000       -7.75093000000000        1.79461200000000
C           31.20870600000000       -7.56004100000000       -1.49435100000000
C           30.71492000000000       -6.62665500000000       -2.40951700000000
C           30.76374600000000       -5.26257300000000       -2.11729800000000
C           30.04976700000000       -2.69118200000000       -0.34948000000000
C           28.77210200000000       -3.39715100000000       -0.19362900000000
C           27.82904200000000       -2.49224000000000       -0.02711100000000
N           29.89551900000000       -1.40463000000000       -0.27653700000000
C           28.49785800000000       -1.19777300000000       -0.07219200000000
C           27.89289900000000       -0.00094700000000       -0.00066200000000
C           28.64552100000000        1.27255500000000       -0.03939600000000
C           28.10577000000000        2.45115000000000       -0.32315700000000
C           29.13942300000000        3.45260400000000       -0.14580800000000
C           30.24117900000000        2.81921600000000        0.23968800000000
N           30.01922500000000        1.41064400000000        0.32401700000000
C           31.51274800000000        3.49471100000000        0.60463200000000
C           31.47683899999999        4.93959500000000        0.93874900000000
C           30.73216400000000        5.38543500000000        2.03991900000000
C           30.68054600000000        6.74581200000000        2.34831000000000
C           31.36629200000000        7.67222700000000        1.55871800000000
C           32.11122700000000        7.24514500000000        0.44469900000000
C           32.83592600000000        8.22211600000000       -0.39763100000000
O           33.57347600000000        7.79034700000000       -1.49712100000000
O           32.79334500000000        9.45319100000000       -0.12836700000000
C           32.15700400000000        5.87333900000000        0.13919600000000
C           32.68053900000000        2.82444300000000        0.64062400000000
C           33.98201700000000        3.37258000000000        1.01893100000000
C           34.85283900000000        2.39496800000000        0.85820200000000
C           34.11608500000000        1.22136000000000        0.39219000000000
N           32.84940700000000        1.46000200000000        0.26169400000000
H           35.84945800000000       -0.06859300000000        0.04084500000000
H           35.84241400000000       -2.59789900000000       -0.68770800000000
H           34.04330300000000       -4.37789700000000       -1.05273500000000
H           32.21255100000000       -5.41210500000000        0.95784600000000
H           32.57822800000000      -10.17505200000000        1.05979500000000
H           31.15978900000000       -8.61219700000000       -1.74499700000000
H           30.29275800000000       -6.96214200000000       -3.34800300000000
H           30.37663900000000       -4.54933100000000       -2.83473900000000
H           28.61076600000000       -4.46705100000000       -0.20771800000000
H           26.77667100000000       -2.70082000000000        0.11229500000000
H           27.07942000000000        2.64172500000000       -0.60695100000000
H           29.02196400000000        4.52037800000000       -0.27794400000000
H           30.19527400000000        4.67819100000000        2.66030700000000
H           30.10700000000000        7.08376800000000        3.20175300000000
H           31.31117000000000        8.72185700000000        1.81904100000000
H           34.07348800000000        8.45084900000000       -2.08017900000000
H           32.71665200000000        5.52452500000000       -0.72052500000000
H           34.21408599999999        4.37133600000000        1.36451500000000
H           35.91634600000000        2.46225000000000        1.04625500000000
C           17.97507800000000        0.01467300000000        0.01026400000000
C           19.43330500000000       -0.00716400000000       -0.00761000000000
C           20.56723300000000       -0.02791700000000       -0.00910100000000
C           21.92861500000000       -0.04050700000000       -0.01129200000000
C           23.20283300000000       -0.03020100000000       -0.01605700000000
C           24.39129600000000       -0.01140300000000       -0.02221300000000
C           25.74365700000000        0.01338200000000       -0.00634500000000
C           26.84392400000000        0.01467300000000        0.01026400000000
132
 energy: -252.147657171279 gnorm: 0.595097465614 xtb: 6.5.1 (b24c23e)
Ni          13.53249236117383       -0.11804070318036       -0.01693506744471
C           10.18553891128663        0.02195852754964        0.06936397410676
C           10.84210316629794        1.19678572545548        0.17121511094416
C           10.17266213716028        2.48717332308356        0.24187924744780
C           11.11050842592922        3.41945837151341        0.36608121298624
C           12.41459298652375        2.75016834145892        0.39127005631088
N           12.24478401472564        1.34775563710493        0.25858836473703
C           13.61133043090282        3.37909120479181        0.54161463308501
C           13.64004305199389        4.85229877052311        0.71821164438946
C           13.15038773548600        5.43930597190500        1.89440179111967
C           13.19498040230010        6.83569488253860        2.07119592833039
C           12.66951497196939        7.45258686808958        3.32160494383904
O           12.72596312238959        8.83003963338161        3.47550378228497
O           12.18591886840504        6.74724174468974        4.21637736603755
C           13.74252605892010        7.63089267777661        1.05203561266899
C           14.23495288581779        7.04719905178845       -0.11477208976089
C           14.18690333134063        5.66458379853682       -0.28364293019252
C           14.89584008803503        2.66963188982703        0.54963603332178
C           16.16876673208917        3.27911898121463        0.92449391130273
C           17.12070569666792        2.35438149211131        0.78447658720306
N           15.05384118539507        1.41242752448587        0.19780510400464
C           16.41645599478429        1.17593990007792        0.32890979873978
C           16.90854832258494       -0.01054334060900       -0.00508664794468
C           16.27325347637782       -1.19838131293653       -0.45280329267649
C           16.84466765775869       -2.22392529154348       -1.10942185568745
C           15.82239554380898       -3.21940628834459       -1.26689292395231
C           14.70119100396407       -2.74212935351900       -0.68780690005764
N           14.92713364893070       -1.44529368560749       -0.15830727355194
C           13.44412520019773       -3.49964575377986       -0.56892939988545
C           13.47563139724455       -4.97769154736821       -0.72546394167264
C           14.21826497559189       -5.75939352798386        0.16984508764074
C           14.26856371088402       -7.14391349368094        0.01709177382365
C           13.58406473818633       -7.76143292181768       -1.02990263721837
C           12.83816167826498       -6.99360406035136       -1.94476030426733
C           12.11151079936732       -7.65548256945290       -3.06484911434961
O           11.38035917961325       -6.88038018472673       -3.95287301336360
O           12.15644172041906       -8.88442180994223       -3.20465966150979
C           12.79443920709281       -5.59968221417590       -1.78291257421185
C           12.26927601119500       -2.88018832883912       -0.31571244378922
C           10.97354883559780       -3.52329807805438       -0.13793925771609
C           10.09389381216207       -2.53984602351624        0.03022790222633
C           10.82447927747155       -1.27821970326879       -0.02714270639005
N           12.10662628151606       -1.47093390411822       -0.22841450710232
H            9.10164975679598        0.04809906594764        0.06086168687279
H            9.10857682209354        2.67581114145855        0.19677573779114
H           10.91029288005544        4.47990560588660        0.43271645103386
H           12.73840495864274        4.80241702291755        2.67056843537242
H           12.37495786932972        9.26194641685213        4.31373499105593
H           13.79081901933727        8.70813187492327        1.15984120776102
H           14.65796522762066        7.67123437767814       -0.89404874519879
H           14.57401878200436        5.22287248866671       -1.19567742991661
H           16.33790814941566        4.28941607934772        1.26030793684749
H           18.17358852489678        2.51069349233291        0.98565269006753
H           17.87128322762940       -2.30132675575573       -1.43591033192881
H           15.93020539152119       -4.18426691311236       -1.73793308361843
H           14.75532484540653       -5.29191130006652        0.98812179670614
H           14.84353948750324       -7.74260086811507        0.71528707644732
H           13.63906794607973       -8.83999417745574       -1.12661595618517
H           10.88402566274005       -7.31229484673920       -4.71410883519566
H           12.23437912687501       -4.98977480956711       -2.48340663682285
H           10.73934014460789       -4.57914576281181       -0.13665716774739
H            9.03396219259083       -2.66894597284157        0.18572411662427
Ni          31.41796707679471        0.11525831519316        0.02222229530129
C           34.76523070983682       -0.04577179204090        0.05798862494739
C           34.10901338146956       -1.18908295599361       -0.22878163033262
C           34.77825093003780       -2.43221021448735       -0.58301328895726
C           33.84056031661044       -3.35389197540201       -0.76959336853791
C           32.53639998926866       -2.72879708427474       -0.52739813876118
N           32.70584257291711       -1.36082163673059       -0.19575247598123
C           31.33903708026126       -3.37284536791384       -0.59060310002809
C           31.31081267599786       -4.82330116938391       -0.90413739283666
C           31.80049729764181       -5.76180949809747        0.01623854062595
C           31.75590082161380       -7.13947439588906       -0.27212458813973
C           32.28138374843183       -8.13053850239365        0.70871155581449
O           32.22491962649133       -9.48276694526092        0.40486597239545
O           32.76495471482435       -7.75556039938466        1.78456762169503
C           31.20835835469377       -7.55874213812935       -1.49491179348616
C           30.71592352958848       -6.62639458404431       -2.40751575436842
C           30.76398385342857       -5.26431268066540       -2.11617223528251
C           30.05600300752748       -2.70289385276909       -0.35163591149083
C           28.78006088717014       -3.40279520390615       -0.19559573479526
C           27.82967086011553       -2.48587907048777       -0.02678633098344
N           29.89680021554850       -1.40172905605675       -0.27342373402936
C           28.52535544699374       -1.21279813173948       -0.07286527452812
C           28.00054549178997        0.00510739503485       -0.00140967336032
C           28.66935925545662        1.27163463238358       -0.03670453243427
C           28.10623810787159        2.46308709031150       -0.32356292948393
C           29.12756050273856        3.45432348356977       -0.14801102033866
C           30.25037521434459        2.81394255205240        0.24411215916259
N           30.02290340152078        1.41537760025094        0.32060953033572
C           31.50602097126476        3.49166368927729        0.60326233401074
C           31.47525760494587        4.94005237309073        0.93747041792124
C           30.73262714273749        5.38691391749208        2.03881736925448
C           30.68232857080389        6.74555693338520        2.34603151042566
C           31.36681712681387        7.67080702471710        1.55772725856481
C           32.11271346070357        7.24339265302982        0.44245192248608
C           32.83937211882048        8.23443851375340       -0.40049279220037
O           33.57052803421243        7.79136525428962       -1.49275349389411
O           32.79444560162669        9.44173710376270       -0.13178156771290
C           32.15645091811204        5.87291580736120        0.14077408697658
C           32.68188286430779        2.82333024916856        0.64072858234676
C           33.97716808705714        3.37353050671958        1.01846342890271
C           34.85703269449452        2.38886844563791        0.85663130471699
C           34.12636625823847        1.21536025572597        0.39098801188369
N           32.84423340733323        1.46307461127333        0.26371959699782
H           35.84921746872492       -0.06740106793409        0.04146970604689
H           35.84231371780940       -2.59572714794017       -0.68714103391229
H           34.04059392512484       -4.37808243051711       -1.05256561236719
H           32.21247888916998       -5.41291121752230        0.95769809811292
H           32.57592535896595      -10.16451147835809        1.05636890685295
H           31.16006683112011       -8.61222944589948       -1.74438015198133
H           30.29291860539274       -6.96210157115898       -3.34771768325156
H           30.37687211089997       -4.54926474143423       -2.83424293447363
H           28.61290560325797       -4.46796410110529       -0.20812836942735
H           26.77722641470356       -2.69754650656374        0.11243620975540
H           27.07972519530103        2.64223774086579       -0.60711327448564
H           29.02071162420976        4.52029367012427       -0.27839167549975
H           30.19556023759646        4.67810947268616        2.65985769674759
H           30.10734397787245        7.08375629369986        3.20131880546494
H           31.31181657975579        8.72193013635768        1.81811035084927
H           34.06685503291440        8.44796750537892       -2.07148141620160
H           32.71650364822738        5.52485653143493       -0.72035213736806
H           34.21152472341483        4.37120326874765        1.36409841534717
H           35.91692640113050        2.46031916329715        1.04578008961002
C           18.16556642130299        0.00854429144688        0.01115963647505
C           19.41520934543724       -0.00752678166225       -0.00723741634300
C           20.61381821873948       -0.02830045321144       -0.00909813585283
C           21.91745140726393       -0.04051250890133       -0.01143797577100
C           23.18305557536714       -0.03057423442489       -0.01617122871141
C           24.39444499748583       -0.01160039980476       -0.02222619906885
C           25.66207376126549        0.01515759025269       -0.00641571973084
C           26.79776494211801        0.02256428908324        0.01241042261008
132
 energy: -252.290457776172 gnorm: 0.255270157669 xtb: 6.5.1 (b24c23e)
Ni          13.53844927197484       -0.09691321305441       -0.00808535921238
C           10.18743115430778        0.00515827012346        0.06846288036324
C           10.84755609691002        1.19504154174562        0.16962044607976
C           10.17542582904022        2.47858143199269        0.24054438252196
C           11.12198413594564        3.41796311816413        0.36623279035823
C           12.41424132818379        2.74296255405571        0.38890047591653
N           12.22826153326324        1.35936005324305        0.25835558634479
C           13.62125169670244        3.38069422636643        0.54595214095634
C           13.64382032416957        4.85777844132388        0.72539068202029
C           13.14955981527892        5.44915977535446        1.89414032513218
C           13.19455843882360        6.84472996620639        2.07199888253200
C           12.66296765301419        7.44974014924610        3.33545604134922
O           12.73145922527279        8.81219608584524        3.45999217387322
O           12.18959884913376        6.76184212475661        4.21080894777693
C           13.74245610203448        7.63192510071528        1.05218932315319
C           14.23240696064042        7.04662955754749       -0.11016781829511
C           14.18716077507677        5.66756995486953       -0.27737321807695
C           14.87762659297558        2.69581860443371        0.55364533522433
C           16.14869112687449        3.29407121775293        0.92204202689022
C           17.10272300664315        2.35172856116840        0.78291878187026
N           15.03903692134456        1.41714808088685        0.21409644608773
C           16.39124582714203        1.18497668796112        0.33461591900853
C           16.89475052513556       -0.02867231990340       -0.01269113698126
C           16.24482758298451       -1.20366445959354       -0.44749558247883
C           16.83808367689286       -2.25007542846845       -1.11337927305912
C           15.84082321064736       -3.22639639717621       -1.26574957467869
C           14.68920210951532       -2.74304549618705       -0.68007359593939
N           14.90571869977397       -1.45092981084781       -0.18157093451693
C           13.45808265555728       -3.49198450340550       -0.56870808646170
C           13.48459717805794       -4.97357586957830       -0.73288588607507
C           14.21810810140610       -5.75957380715881        0.16301916342421
C           14.26193315923503       -7.14123073258271        0.00951302664426
C           13.57902734400966       -7.75587952327483       -1.03594965966250
C           12.83291674095557       -6.98740041648572       -1.94947486236669
C           12.10838546242145       -7.66803157708461       -3.07148864502718
O           11.39408257277538       -6.87846703676223       -3.93307810872398
O           12.15115944462150       -8.86920369437231       -3.20929384065617
C           12.79444372077000       -5.59730827626342       -1.78092489245594
C           12.27108180166307       -2.87351715228553       -0.31263836174778
C           10.98222820708258       -3.51480302163744       -0.13901042075935
C           10.08717778203199       -2.52547719588533        0.02913634944479
C           10.80962850276000       -1.26841578955863       -0.02684224032606
N           12.11364913140706       -1.47314444512242       -0.21884555952953
H            9.10339357137054        0.03895039470082        0.06263448176196
H            9.11080152313855        2.66268534358104        0.19586483505986
H           10.92701256691998        4.47913381346649        0.43404413357756
H           12.73896477603338        4.81023548652703        2.67111170747252
H           12.38241236788546        9.22218845938110        4.28993173890733
H           13.78975968047414        8.70867198601482        1.16244495784045
H           14.65621166773367        7.66984865747802       -0.89137929735113
H           14.57199639366921        5.22265227345846       -1.19069615171935
H           16.32461799229560        4.29973443421631        1.26015173277497
H           18.16031057451061        2.49508413684541        0.97997264088071
H           17.86639249044208       -2.30740156573381       -1.43811952660543
H           15.93879341316299       -4.18691855265517       -1.74135696966744
H           14.75323768678182       -5.29195128777209        0.98415059669249
H           14.83860961898611       -7.74064008461919        0.70962765397272
H           13.63392539268018       -8.83597780817823       -1.13341461228775
H           10.91178463398148       -7.31805561258185       -4.67668223161382
H           12.23480507382822       -4.98975442381554       -2.48318998397744
H           10.75469893267274       -4.57320152581666       -0.13858664055404
H            9.02927378190078       -2.65719335455701        0.18637880052368
Ni          31.41473295949678        0.09222325888772        0.02351592649435
C           34.76347652392473       -0.02947542907049        0.06263149102690
C           34.10368704471409       -1.18704849064849       -0.22979935308485
C           34.77569102654454       -2.42371448221176       -0.58148912918352
C           33.82939610728075       -3.35270778817870       -0.76905892360116
C           32.53716764233750       -2.72194042467759       -0.52737198057576
N           32.72278478358733       -1.37215601518871       -0.19960698084714
C           31.33086593591021       -3.37727240163427       -0.58714429591937
C           31.30735040803641       -4.83136786591828       -0.89930339347616
C           31.80139658641431       -5.77126694487926        0.01281251303445
C           31.75634845795568       -7.14840418489367       -0.27431384037569
C           32.28793872462009       -8.13239719789181        0.72273274743706
O           32.21942796788922       -9.46088682409741        0.39603381117554
O           32.76128266767158       -7.76757090777118        1.77456889221898
C           31.20842632248160       -7.55982745045426       -1.49512504438908
C           30.71844344630973       -6.62744980409335       -2.40303359311582
C           30.76372130820566       -5.26933435841465       -2.11129244670524
C           30.07673005453406       -2.73225284222238       -0.35673066565400
C           28.80205491106184       -3.41683154825904       -0.20319268071437
C           27.85218261251578       -2.47893991185743       -0.02804192064257
N           29.92371743328104       -1.41498622009602       -0.26149075123265
C           28.57741434698797       -1.22961319713389       -0.06880924677336
C           28.07901476991438        0.02566091531703       -0.00050462185044
C           28.72131633492293        1.28026963691845       -0.03339373174681
C           28.11823398725662        2.48643579109037       -0.31840235587757
C           29.11072030762537        3.46115595741700       -0.14450030648574
C           30.26407242189696        2.81470433842972        0.25156505302497
N           30.05429652557585        1.43151077490179        0.30337135057758
C           31.49341345165854        3.48528951556075        0.60106885668372
C           31.46650395728943        4.93894335158580        0.92923487161437
C           30.73278491415434        5.38941284387341        2.03245946618720
C           30.68894415834408        6.74554483100930        2.33802544599002
C           31.37185619084850        7.66756633004997        1.55020942943138
C           32.11798724606243        7.23915032466036        0.43597954621112
C           32.84251877554334        8.24849799032128       -0.40267724508645
O           33.55679824192034        7.78311252357897       -1.47467289623034
O           32.79972809159785        9.42890299564597       -0.14114185171108
C           32.15651480202904        5.87018557128954        0.14185549696405
C           32.68033821296450        2.81650116237989        0.64151177744794
C           33.96879222928403        3.36595836631755        1.01476854665460
C           34.86387341069810        2.37576402523498        0.85098812294290
C           34.14144290956158        1.20600874567126        0.38810022214039
N           32.83761803348777        1.46237446060281        0.27340823928065
H           35.84753091306693       -0.05927382294754        0.04613511891957
H           35.84026358424391       -2.58301587803735       -0.68373274416127
H           34.02404348357402       -4.37791814639474       -1.05110393705937
H           32.21193556518562       -5.42053075049603        0.95565890880713
H           32.56847654497769      -10.11917985474404        1.04684398927659
H           31.16111511858461       -8.61363016636248       -1.74210611461193
H           30.29464850255596       -6.96171526383610       -3.34478838943027
H           30.37891336213416       -4.55070985777473       -2.82944782916580
H           28.62568037453643       -4.47769569188697       -0.21158028471672
H           26.79260521517368       -2.67652933609177        0.11191288940716
H           27.08738102991802        2.64463050146111       -0.60618560397656
H           29.01162082996834        4.52402549633710       -0.28075915777574