      -----------------------------------------------------------      
     |                   =====================                   |     
     |                           x T B                           |     
     |                   =====================                   |     
     |                         S. Grimme                         |     
     |          Mulliken Center for Theoretical Chemistry        |     
     |                    University of Bonn                     |     
      -----------------------------------------------------------      

   * xtb version 6.5.1 (b24c23e) compiled by 'conda@728c89f4b128' on 2022-07-12

   xtb is free software: you can redistribute it and/or modify it under
   the terms of the GNU Lesser General Public License as published by
   the Free Software Foundation, either version 3 of the License, or
   (at your option) any later version.
   
   xtb is distributed in the hope that it will be useful,
   but WITHOUT ANY WARRANTY; without even the implied warranty of
   MERCHANTABILITY or FITNESS FOR A PARTICULAR PURPOSE.  See the
   GNU Lesser General Public License for more details.
   
   Cite this work as:
   * C. Bannwarth, E. Caldeweyher, S. Ehlert, A. Hansen, P. Pracht,
     J. Seibert, S. Spicher, S. Grimme, WIREs Comput. Mol. Sci., 2020, 11,
     e01493. DOI: 10.1002/wcms.1493
   
   for GFN2-xTB:
   * C. Bannwarth, S. Ehlert and S. Grimme., J. Chem. Theory Comput., 2019,
     15, 1652-1671. DOI: 10.1021/acs.jctc.8b01176
   for GFN1-xTB:
   * S. Grimme, C. Bannwarth, P. Shushkov, J. Chem. Theory Comput., 2017,
     13, 1989-2009. DOI: 10.1021/acs.jctc.7b00118
   for GFN0-xTB:
   * P. Pracht, E. Caldeweyher, S. Ehlert, S. Grimme, ChemRxiv, 2019, preprint.
     DOI: 10.26434/chemrxiv.8326202.v1
   for GFN-FF:
   * S. Spicher and S. Grimme, Angew. Chem. Int. Ed., 2020, 59, 15665-15673.
     DOI: 10.1002/anie.202004239
   
   for ALPB and GBSA implicit solvation:
   * S. Ehlert, M. Stahn, S. Spicher, S. Grimme, J. Chem. Theory Comput.,
     2021, 17, 4250-4261. DOI: 10.1021/acs.jctc.1c00471
   
   for DFT-D4:
   * E. Caldeweyher, C. Bannwarth and S. Grimme, J. Chem. Phys., 2017,
     147, 034112. DOI: 10.1063/1.4993215
   * E. Caldeweyher, S. Ehlert, A. Hansen, H. Neugebauer, S. Spicher,
     C. Bannwarth and S. Grimme, J. Chem. Phys., 2019, 150, 154122.
     DOI: 10.1063/1.5090222
   * E. Caldeweyher, J.-M. Mewes, S. Ehlert and S. Grimme, Phys. Chem. Chem. Phys.
     2020, 22, 8499-8512. DOI: 10.1039/D0CP00502A
   
   for sTDA-xTB:
   * S. Grimme and C. Bannwarth, J. Chem. Phys., 2016, 145, 054103.
     DOI: 10.1063/1.4959605
   
   in the mass-spec context:
   * V. Asgeirsson, C. Bauer and S. Grimme, Chem. Sci., 2017, 8, 4879.
     DOI: 10.1039/c7sc00601b
   * J. Koopman and S. Grimme, ACS Omega 2019, 4, 12, 15120-15133.
     DOI: 10.1021/acsomega.9b02011
   
   for metadynamics refer to:
   * S. Grimme, J. Chem. Theory Comput., 2019, 155, 2847-2862
     DOI: 10.1021/acs.jctc.9b00143
   
   for SPH calculations refer to:
   * S. Spicher and S. Grimme, J. Chem. Theory Comput., 2021, 17, 1701-1714
     DOI: 10.1021/acs.jctc.0c01306
   
   with help from (in alphabetical order)
   P. Atkinson, C. Bannwarth, F. Bohle, G. Brandenburg, E. Caldeweyher
   M. Checinski, S. Dohm, S. Ehlert, S. Ehrlich, I. Gerasimov, C. Hölzer
   A. Katbashev, J. Koopman, C. Lavigne, S. Lehtola, F. März, M. Müller,
   F. Musil, H. Neugebauer, J. Pisarek, C. Plett, P. Pracht, F. Pultar,
   J. Seibert, P. Shushkov, S. Spicher, M. Stahn, M. Steiner, T. Strunk,
   J. Stückrath, T. Rose, and J. Unsleber
   
 * started run on 2022/07/30 at 08:59:17.327     

           -------------------------------------------------
          |                Calculation Setup                |
           -------------------------------------------------

          program call               : xtb Cu_Ph_C6_4.xyz --gfn 1 --opt -T 48
          hostname                   : cx3-14-28.cx3.hpc.ic.ac.uk
          coordinate file            : Cu_Ph_C6_4.xyz
          omp threads                :                     1

   ID    Z sym.   atoms
    1   29 Cu     1, 57, 131, 186
    2    6 C      2-6, 8-11, 13-29, 32-37, 58-62, 64-67, 69-85, 88-93,
                  113-130, 132-136, 138-141, 143-159, 162-167, 187-191,
                  193-196, 198-214, 217-222
    3    7 N      7, 12, 30, 31, 63, 68, 86, 87, 137, 142, 160, 161, 192,
                  197, 215, 216
    4    1 H      38-56, 94-112, 168-185, 223-240

molecular fragmentation (1/2 indicates fragments):
111111111111111111111111111111111111111111111111111111112222222222222222
222222222222222222222222222222222222222222222222222222222222222222222222
222222222222222222222222222222222222222222222222222222222222222222222222
222222222222222222222222
# atoms in fragment 1/2:    56   184
 fragment masses (1/2) :      523.07     1783.38
CMA distance (Bohr)    :  63.300
constraining FC (au)   :  0.0500
########################################################################
[WARNING] Please study the warnings concerning your input carefully
-1- prog_main_parseArguments: Unknown option '-T' provided
########################################################################

           -------------------------------------------------
          |                 G F N 1 - x T B                 |
           -------------------------------------------------

        Reference                      10.1021/acs.jctc.7b00118
      * Hamiltonian:
        H0-scaling (s, p, d)           1.850000    2.250000    2.000000
        zeta-weighting                 0.000000
      * Dispersion:
        s8                             2.400000
        a1                             0.630000
        a2                             5.000000
        s9                             0.000000
      * Repulsion:
        kExp                           1.500000
        rExp                           1.000000
      * Coulomb:
        alpha                          2.000000
        third order                    atomic
        anisotropic                    false
      * Halogen bond correction:
        rad-scale                      1.300000
        damping                        0.440000


          ...................................................
          :                      SETUP                      :
          :.................................................:
          :  # basis functions                 836          :
          :  # atomic orbitals                 832          :
          :  # shells                          484          :
          :  # electrons                       782          :
          :  # halogen bonds                     0          :
          :  max. iterations                   250          :
          :  Hamiltonian                  GFN1-xTB          :
          :  restarted?                      false          :
          :  GBSA solvation                  false          :
          :  PC potential                    false          :
          :  electronic temp.          300.0000000     K    :
          :  accuracy                    1.0000000          :
          :  -> integral cutoff          0.2500000E+02      :
          :  -> integral neglect         0.1000000E-07      :
          :  -> SCF convergence          0.1000000E-05 Eh   :
          :  -> wf. convergence          0.2000000E-04 e    :
          :  Broyden damping             0.4000000          :
          ...................................................

 iter      E             dE          RMSdq      gap      omega  full diag
   1   -422.1652435 -0.422165E+03  0.107E+01    0.64       0.0  T
   2   -403.5440039  0.186212E+02  0.752E+00    0.54       1.0  T
   3     40.3239931  0.443868E+03  0.142E+01    0.02       1.0  T
   4   1529.3579562  0.148903E+04  0.199E+01    0.08       1.0  T
   5    430.1283409 -0.109923E+04  0.136E+01    0.00       1.0  T
   6   -393.2345396 -0.823363E+03  0.518E+00    0.04       1.0  T
   7   -350.8841566  0.423504E+02  0.572E+00    0.05       1.0  T
   8   -407.1091859 -0.562250E+02  0.357E+00    0.02       1.0  T
   9   -416.5624845 -0.945330E+01  0.245E+00    0.14       1.0  T
  10   -418.6019495 -0.203947E+01  0.197E+00    0.11       1.0  T
  11   -416.8822165  0.171973E+01  0.217E+00    0.03       1.0  T
  12   -422.2267999 -0.534458E+01  0.144E+00    0.00       1.0  T
  13   -422.1112922  0.115508E+00  0.148E+00    0.23       1.0  T
  14   -422.3524774 -0.241185E+00  0.131E+00    0.04       1.0  T
  15   -422.4391076 -0.866302E-01  0.134E+00    0.04       1.0  T
  16   -422.4130068  0.261008E-01  0.124E+00    0.08       1.0  T
  17   -422.2478384  0.165168E+00  0.135E+00    0.44       1.0  T
  18   -422.2966843 -0.488459E-01  0.118E+00    0.10       1.0  T
  19   -422.3650372 -0.683530E-01  0.116E+00    0.15       1.0  T
  20   -422.4666889 -0.101652E+00  0.104E+00    0.11       1.0  T
  21   -422.7766757 -0.309987E+00  0.762E-01    0.01       1.0  T
  22   -422.7550511  0.216247E-01  0.818E-01    0.07       1.0  T
  23   -422.8890846 -0.134034E+00  0.646E-01    0.02       1.0  T
  24   -422.9254108 -0.363263E-01  0.630E-01    0.02       1.0  T
  25   -422.8665612  0.588496E-01  0.740E-01    0.09       1.0  T
  26   -422.9013125 -0.347513E-01  0.721E-01    0.09       1.0  T
  27   -422.9522967 -0.509842E-01  0.731E-01    0.05       1.0  T
  28   -422.8450678  0.107229E+00  0.776E-01    0.12       1.0  T
  29   -422.8896434 -0.445756E-01  0.745E-01    0.09       1.0  T
  30   -422.8947439 -0.510049E-02  0.742E-01    0.09       1.0  T
  31   -422.8433403  0.514036E-01  0.770E-01    0.12       1.0  T
  32   -422.8319799  0.113604E-01  0.778E-01    0.13       1.0  T
  33   -422.8915474 -0.595676E-01  0.737E-01    0.09       1.0  T
  34   -422.8873390  0.420847E-02  0.720E-01    0.12       1.0  T
  35   -423.0260774 -0.138738E+00  0.601E-01    0.02       1.0  T
  36   -423.0504252 -0.243477E-01  0.541E-01    0.06       1.0  T
  37   -423.1750230 -0.124598E+00  0.429E-01    0.04       1.0  T
  38   -423.2180604 -0.430374E-01  0.427E-01    0.05       1.0  T
  39   -423.2833511 -0.652907E-01  0.205E-01    0.01       1.0  T
  40   -423.1883151  0.950361E-01  0.471E-01    0.02       1.0  T
  41   -423.1934848 -0.516970E-02  0.467E-01    0.02       1.0  T
  42   -423.0122558  0.181229E+00  0.593E-01    0.03       1.0  T
  43   -423.0001777  0.120780E-01  0.606E-01    0.03       1.0  T
  44   -422.9092000  0.909778E-01  0.632E-01    0.05       1.0  T
  45   -422.9931118 -0.839119E-01  0.548E-01    0.03       1.0  T
  46   -423.2616910 -0.268579E+00  0.313E-01    0.00       1.0  T
  47   -423.2675789 -0.588796E-02  0.222E-01    0.01       1.0  T
  48   -423.3141457 -0.465668E-01  0.947E-02    0.00       1.0  T
  49   -423.3102791  0.386660E-02  0.109E-01    0.01       1.0  T
  50   -423.3117024 -0.142326E-02  0.976E-02    0.01       1.0  T
  51   -423.3153731 -0.367070E-02  0.850E-02    0.01       1.0  T
  52   -423.3182233 -0.285016E-02  0.622E-02    0.01       1.0  T
  53   -423.3197370 -0.151373E-02  0.515E-02    0.01       1.0  T
  54   -423.3199378 -0.200772E-03  0.453E-02    0.00       1.0  T
  55   -423.3210157 -0.107799E-02  0.186E-02    0.00       1.0  T
  56   -423.3212175 -0.201734E-03  0.526E-03    0.00       1.2  T
  57   -423.3211761  0.413774E-04  0.121E-02    0.00       1.0  T
  58   -423.3212456 -0.695208E-04  0.759E-03    0.00       1.0  T
  59   -423.3212362  0.942462E-05  0.666E-03    0.00       1.0  T
  60   -423.3212568 -0.205505E-04  0.415E-03    0.00       1.6  T
  61   -423.3212512  0.553197E-05  0.447E-03    0.00       1.4  T
  62   -423.3212652 -0.139810E-04  0.186E-03    0.00       3.5  T
  63   -423.3212652 -0.459403E-07  0.193E-03    0.00       3.3  T
  64   -423.3212654 -0.118974E-06  0.107E-03    0.00       6.0  T
  65   -423.3212667 -0.135248E-05  0.226E-04    0.00      28.6  T
  66   -423.3212665  0.181665E-06  0.688E-04    0.00       9.4  T
  67   -423.3212668 -0.237048E-06  0.252E-04    0.00      25.6  T
  68   -423.3212668  0.120488E-07  0.188E-04    0.00      34.3  T
  69   -423.3212668 -0.260779E-07  0.101E-04    0.00      63.6  T

   *** convergence criteria satisfied after 69 iterations ***

         #    Occupation            Energy/Eh            Energy/eV
      -------------------------------------------------------------
         1        2.0000           -0.7763649             -21.1260
       ...           ...                  ...                  ...
       385        2.0000           -0.3926395             -10.6843
       386        2.0000           -0.3883595             -10.5678
       387        2.0000           -0.3883245             -10.5668
       388        2.0000           -0.3864149             -10.5149
       389        2.0000           -0.3819558             -10.3935
       390        0.8822           -0.3567731              -9.7083
       391        0.8719           -0.3567533              -9.7078 (HOMO)
       392        0.8399           -0.3566911              -9.7061 (LUMO)
       393        0.8262           -0.3566645              -9.7053
       394        0.2964           -0.3553365              -9.6692
       395        0.2834           -0.3552869              -9.6678
       396                         -0.3370415              -9.1714
       ...                                ...                  ...
       832                          1.5281416              41.5828
      -------------------------------------------------------------
                  HL-Gap            0.0000622 Eh            0.0017 eV
             Fermi-level           -0.3569980 Eh           -9.7144 eV

 SCC (total)                   0 d,  0 h,  0 min, 26.914 sec
 SCC setup                      ...        0 min,  0.024 sec (  0.090%)
 Dispersion                     ...        0 min,  0.018 sec (  0.066%)
 classical contributions        ...        0 min,  0.005 sec (  0.017%)
 integral evaluation            ...        0 min,  0.525 sec (  1.950%)
 iterations                     ...        0 min, 25.360 sec ( 94.227%)
 molecular gradient             ...        0 min,  0.920 sec (  3.418%)
 printout                       ...        0 min,  0.063 sec (  0.232%)

         :::::::::::::::::::::::::::::::::::::::::::::::::::::
         ::                     SUMMARY                     ::
         :::::::::::::::::::::::::::::::::::::::::::::::::::::
         :: total energy            -416.445988529085 Eh    ::
         :: gradient norm              0.578594932803 Eh/a0 ::
         :: HOMO-LUMO gap              0.001691325377 eV    ::
         ::.................................................::
         :: SCC energy              -423.321266788491 Eh    ::
         :: -> electrostatic           0.245963611859 Eh    ::
         :: repulsion energy           7.087860165396 Eh    ::
         :: dispersion energy         -0.212581905990 Eh    ::
         :: halogen bond corr.         0.000000000000 Eh    ::
         :: add. restraining           0.000000000000 Eh    ::
         :: total charge              -0.000000000017 e     ::
         :::::::::::::::::::::::::::::::::::::::::::::::::::::

      ----------------------------------------------------------- 
     |                   =====================                   |
     |                        A N C O P T                        |
     |                   =====================                   |
     |               Approximate Normal Coordinate               |
     |                Rational Function Optimizer                |
      ----------------------------------------------------------- 

          ...................................................
          :                      SETUP                      :
          :.................................................:
          :   optimization level            normal          :
          :   max. optcycles                   720          :
          :   ANC micro-cycles                  20          :
          :   degrees of freedom               714          :
          :.................................................:
          :   RF solver                   davidson          :
          :   write xtbopt.log                true          :
          :   linear?                        false          :
          :   energy convergence         0.5000000E-05 Eh   :
          :   grad. convergence          0.1000000E-02 Eh/α :
          :   maximium RF displ.         1.0000000          :
          :   Hlow (freq-cutoff)         0.1000000E-01      :
          :   Hmax (freq-cutoff)         5.0000000          :
          :   S6 in model hess.         20.0000000          :
          ...................................................

generating ANC from model Hessian ...
Using Lindh-Hessian (1995)
 Shifting diagonal of input Hessian by    1.0081413525230900E-002
 Lowest  eigenvalues of input Hessian
    0.010000    0.010003    0.010061    0.010062    0.010064    0.010065
    0.010067    0.010071    0.010071    0.010075    0.010077    0.010079
    0.010080    0.000000    0.000000    0.000000    0.000000    0.000000
 Highest eigenvalues
    2.374642    2.421469    2.490575    2.779869    2.795239    2.813313


........................................................................
.............................. CYCLE    1 ..............................
........................................................................
   1   -423.3212668 -0.423321E+03  0.956E-05    0.00       0.0  T
   2   -423.3212489  0.179060E-04  0.369E-03    0.00       1.7  T
   3   -423.3212662 -0.172946E-04  0.954E-04    0.00       6.8  T
   4   -423.3212663 -0.153192E-06  0.674E-04    0.00       9.6  T
   5   -423.3212666 -0.302863E-06  0.403E-04    0.00      16.0  T
   6   -423.3212666 -0.333745E-08  0.391E-04    0.00      16.5  T
   7   -423.3212667 -0.192574E-07  0.456E-04    0.00      14.1  T
   8   -423.3212667 -0.678571E-07  0.330E-04    0.00      19.6  T
   9   -423.3212667 -0.127806E-07  0.295E-04    0.00      21.9  T
  10   -423.3212668 -0.440135E-07  0.160E-04    0.00      40.2  T
  11   -423.3212668 -0.154886E-07  0.573E-05    0.00     112.6  T
     SCC iter.                  ...        0 min,  3.173 sec
     gradient                   ...        0 min,  0.923 sec
 * total energy  :  -416.4459885 Eh     change       -0.9178621E-08 Eh
   gradient norm :     0.5785931 Eh/α   predicted     0.0000000E+00 (-100.00%)
   displ. norm   :     0.4167658 α      lambda       -0.1889599E+00
   maximum displ.:     0.0851372 α      in ANC's #292, #704, #698, ...

........................................................................
.............................. CYCLE    2 ..............................
........................................................................
   1   -423.2325477 -0.423233E+03  0.343E-01    0.03       0.0  T
   2   -420.4384268  0.279412E+01  0.152E+00    0.25       1.0  T
   3   -422.9572186 -0.251879E+01  0.779E-01    0.07       1.0  T
   4   -422.9374592  0.197594E-01  0.837E-01    0.13       1.0  T
   5   -423.1922368 -0.254778E+00  0.370E-01    0.00       1.0  T
   6   -422.8451066  0.347130E+00  0.639E-01    0.05       1.0  T
   7   -423.1473217 -0.302215E+00  0.536E-01    0.04       1.0  T
   8   -423.0348195  0.112502E+00  0.489E-01    0.01       1.0  T
   9   -423.2500638 -0.215244E+00  0.345E-01    0.02       1.0  T
  10   -423.2605034 -0.104396E-01  0.218E-01    0.00       1.0  T
  11   -423.3066559 -0.461525E-01  0.172E-01    0.01       1.0  T
  12   -423.2828552  0.238007E-01  0.232E-01    0.01       1.0  T
  13   -423.2898368 -0.698160E-02  0.206E-01    0.01       1.0  T
  14   -423.3194978 -0.296610E-01  0.828E-02    0.00       1.0  T
  15   -423.3239509 -0.445312E-02  0.408E-02    0.01       1.0  T
  16   -423.3247909 -0.840007E-03  0.164E-02    0.00       1.0  T
  17   -423.3250010 -0.210094E-03  0.120E-02    0.00       1.0  T
  18   -423.3251305 -0.129546E-03  0.569E-03    0.00       1.1  T
  19   -423.3251513 -0.207398E-04  0.741E-04    0.00       8.7  T
  20   -423.3251509  0.336107E-06  0.931E-04    0.00       6.9  T
  21   -423.3251517 -0.737284E-06  0.483E-04    0.00      13.4  T
  22   -423.3251519 -0.238485E-06  0.153E-04    0.00      42.2  T
  23   -423.3251519 -0.168012E-07  0.719E-05    0.00      89.8  T
     SCC iter.                  ...        0 min,  7.868 sec
     gradient                   ...        0 min,  1.096 sec
 * total energy  :  -416.5937554 Eh     change       -0.1477668E+00 Eh
   gradient norm :     0.3278350 Eh/α   predicted    -0.1109094E+00 ( -24.94%)
   displ. norm   :     0.4856056 α      lambda       -0.1297046E+00
   maximum displ.:     0.0921322 α      in ANC's #704, #698, #702, ...

........................................................................
.............................. CYCLE    3 ..............................
........................................................................
   1   -423.2921338 -0.423292E+03  0.360E-01    0.04       0.0  T
   2   -420.5825387  0.270960E+01  0.147E+00    0.24       1.0  T
   3   -423.1732376 -0.259070E+01  0.583E-01    0.03       1.0  T
   4   -422.6690894  0.504148E+00  0.806E-01    0.10       1.0  T
   5   -423.0032862 -0.334197E+00  0.636E-01    0.02       1.0  T
   6   -423.2636104 -0.260324E+00  0.470E-01    0.01       1.0  T
   7   -423.2928479 -0.292375E-01  0.366E-01    0.00       1.0  T
   8   -423.0698629  0.222985E+00  0.629E-01    0.04       1.0  T
   9   -423.0160471  0.538158E-01  0.583E-01    0.04       1.0  T
  10   -423.1651516 -0.149104E+00  0.470E-01    0.02       1.0  T
  11   -423.3295158 -0.164364E+00  0.322E-01    0.01       1.0  T
  12   -423.3608095 -0.312937E-01  0.212E-01    0.01       1.0  T
  13   -423.3393971  0.214124E-01  0.222E-01    0.01       1.0  T
  14   -423.3418339 -0.243678E-02  0.190E-01    0.02       1.0  T
  15   -423.3720526 -0.302187E-01  0.155E-01    0.00       1.0  T
  16   -423.3891408 -0.170881E-01  0.667E-02    0.00       1.0  T
  17   -423.3911187 -0.197793E-02  0.259E-02    0.00       1.0  T
  18   -423.3912399 -0.121199E-03  0.206E-02    0.00       1.0  T
  19   -423.3916126 -0.372702E-03  0.909E-03    0.00       1.0  T
  20   -423.3916744 -0.618539E-04  0.249E-03    0.00       2.6  T
  21   -423.3916579  0.165383E-04  0.549E-03    0.00       1.2  T
  22   -423.3916734 -0.154873E-04  0.230E-03    0.00       2.8  T
  23   -423.3916771 -0.372349E-05  0.117E-03    0.00       5.5  T
  24   -423.3916779 -0.833902E-06  0.648E-04    0.00      10.0  T
  25   -423.3916783 -0.330401E-06  0.157E-04    0.00      41.0  T
  26   -423.3916783 -0.146755E-07  0.904E-05    0.00      71.4  T
     SCC iter.                  ...        0 min,  9.834 sec
     gradient                   ...        0 min,  1.195 sec
 * total energy  :  -416.6771785 Eh     change       -0.8342313E-01 Eh
   gradient norm :     0.0970691 Eh/α   predicted    -0.8014534E-01 (  -3.93%)
   displ. norm   :     0.5306543 α      lambda       -0.2861448E-01
   maximum displ.:     0.1715233 α      in ANC's #80, #9, #77, ...

........................................................................
.............................. CYCLE    4 ..............................
........................................................................
   1   -423.4275083 -0.423428E+03  0.190E-01    0.02       0.0  T
   2   -421.9298153  0.149769E+01  0.113E+00    0.06       1.0  T
   3   -422.9744285 -0.104461E+01  0.686E-01    0.04       1.0  T
   4   -422.7604560  0.213973E+00  0.754E-01    0.08       1.0  T
   5   -423.3476657 -0.587210E+00  0.343E-01    0.01       1.0  T
   6   -423.3198935  0.277722E-01  0.383E-01    0.01       1.0  T
   7   -423.2779915  0.419020E-01  0.381E-01    0.01       1.0  T
   8   -423.2585110  0.194805E-01  0.404E-01    0.02       1.0  T
   9   -423.3620197 -0.103509E+00  0.288E-01    0.00       1.0  T
  10   -423.3985620 -0.365423E-01  0.240E-01    0.02       1.0  T
  11   -423.3814360  0.171260E-01  0.307E-01    0.00       1.0  T
  12   -423.4267807 -0.453447E-01  0.198E-01    0.00       1.0  T
  13   -423.4406144 -0.138337E-01  0.138E-01    0.00       1.0  T
  14   -423.4483597 -0.774534E-02  0.941E-02    0.00       1.0  T
  15   -423.4521185 -0.375878E-02  0.636E-02    0.00       1.0  T
  16   -423.4566580 -0.453950E-02  0.215E-02    0.00       1.0  T
  17   -423.4565511  0.106933E-03  0.233E-02    0.00       1.0  T
  18   -423.4569150 -0.363935E-03  0.604E-03    0.00       1.1  T
  19   -423.4568954  0.196310E-04  0.653E-03    0.00       1.0  T
  20   -423.4569215 -0.260816E-04  0.383E-03    0.00       1.7  T
  21   -423.4569336 -0.121082E-04  0.127E-03    0.00       5.1  T
  22   -423.4569345 -0.966958E-06  0.553E-04    0.00      11.7  T
  23   -423.4569347 -0.210968E-06  0.336E-04    0.00      19.2  T
  24   -423.4569348 -0.668797E-07  0.129E-04    0.00      50.0  T
  25   -423.4569348 -0.173839E-08  0.964E-05    0.00      66.9  T
     SCC iter.                  ...        0 min,  8.458 sec
     gradient                   ...        0 min,  0.919 sec
 * total energy  :  -416.6977577 Eh     change       -0.2057914E-01 Eh
   gradient norm :     0.0433809 Eh/α   predicted    -0.1833614E-01 ( -10.90%)
   displ. norm   :     0.6444464 α      lambda       -0.1525559E-01
   maximum displ.:     0.2446166 α      in ANC's #9, #80, #77, ...

........................................................................
.............................. CYCLE    5 ..............................
........................................................................
   1   -423.4720637 -0.423472E+03  0.154E-01    0.01       0.0  T
   2   -422.5441581  0.927906E+00  0.104E+00    0.01       1.0  T
   3   -423.2160437 -0.671886E+00  0.658E-01    0.04       1.0  T
   4   -423.4608017 -0.244758E+00  0.191E-01    0.01       1.0  T
   5   -423.2373616  0.223440E+00  0.465E-01    0.01       1.0  T
   6   -423.2695816 -0.322200E-01  0.471E-01    0.01       1.0  T
   7   -423.4615393 -0.191958E+00  0.197E-01    0.02       1.0  T
   8   -423.4703787 -0.883942E-02  0.162E-01    0.01       1.0  T
   9   -423.4840057 -0.136270E-01  0.102E-01    0.01       1.0  T
  10   -423.4904218 -0.641609E-02  0.359E-02    0.00       1.0  T
  11   -423.4916995 -0.127771E-02  0.182E-02    0.00       1.0  T
  12   -423.4917002 -0.688070E-06  0.146E-02    0.00       1.0  T
  13   -423.4918334 -0.133198E-03  0.728E-03    0.00       1.0  T
  14   -423.4918122  0.211502E-04  0.936E-03    0.00       1.0  T
  15   -423.4918395 -0.272800E-04  0.675E-03    0.00       1.0  T
  16   -423.4918543 -0.148279E-04  0.383E-03    0.00       1.7  T
  17   -423.4918668 -0.124484E-04  0.102E-03    0.00       6.3  T
  18   -423.4918673 -0.483080E-06  0.606E-04    0.00      10.7  T
  19   -423.4918675 -0.279813E-06  0.238E-04    0.00      27.1  T
  20   -423.4918676 -0.532949E-07  0.110E-04    0.00      58.8  T
  21   -423.4918676 -0.692376E-08  0.475E-05    0.00     136.0  T
     SCC iter.                  ...        0 min,  6.097 sec
     gradient                   ...        0 min,  0.940 sec
 * total energy  :  -416.7099530 Eh     change       -0.1219533E-01 Eh
   gradient norm :     0.0279311 Eh/α   predicted    -0.1079604E-01 ( -11.47%)
   displ. norm   :     0.7472107 α      lambda       -0.1142062E-01
   maximum displ.:     0.3573359 α      in ANC's #9, #80, #77, ...

........................................................................
.............................. CYCLE    6 ..............................
........................................................................
   1   -423.4809322 -0.423481E+03  0.185E-01    0.00       0.0  T
   2   -422.6336084  0.847324E+00  0.116E+00    0.19       1.0  T
   3   -423.1999389 -0.566330E+00  0.609E-01    0.02       1.0  T
   4   -423.2907182 -0.907793E-01  0.441E-01    0.01       1.0  T
   5   -423.3290515 -0.383334E-01  0.379E-01    0.02       1.0  T
   6   -423.4357258 -0.106674E+00  0.331E-01    0.02       1.0  T
   7   -423.5030417 -0.673158E-01  0.763E-02    0.00       1.0  T
   8   -423.4917379  0.113038E-01  0.132E-01    0.01       1.0  T
   9   -423.5031145 -0.113766E-01  0.775E-02    0.00       1.0  T
  10   -423.5038898 -0.775354E-03  0.603E-02    0.00       1.0  T
  11   -423.5047318 -0.841941E-03  0.428E-02    0.00       1.0  T
  12   -423.5053710 -0.639230E-03  0.351E-02    0.00       1.0  T
  13   -423.5071789 -0.180787E-02  0.116E-02    0.00       1.0  T
  14   -423.5069822  0.196703E-03  0.150E-02    0.00       1.0  T
  15   -423.5071854 -0.203207E-03  0.697E-03    0.00       1.0  T
  16   -423.5072497 -0.643636E-04  0.138E-03    0.00       4.7  T
  17   -423.5072521 -0.235559E-05  0.787E-04    0.00       8.2  T
  18   -423.5072524 -0.349944E-06  0.212E-04    0.00      30.4  T
  19   -423.5072525 -0.909176E-08  0.150E-04    0.00      43.0  T
  20   -423.5072525 -0.136442E-07  0.593E-05    0.00     108.8  T
     SCC iter.                  ...        0 min,  7.563 sec
     gradient                   ...        0 min,  1.131 sec
 * total energy  :  -416.7197803 Eh     change       -0.9827342E-02 Eh
   gradient norm :     0.0251439 Eh/α   predicted    -0.8898513E-02 (  -9.45%)
   displ. norm   :     0.8557183 α      lambda       -0.1091222E-01
   maximum displ.:     0.4638746 α      in ANC's #9, #80, #77, ...

........................................................................
.............................. CYCLE    7 ..............................
........................................................................
   1   -423.4798216 -0.423480E+03  0.199E-01    0.00       0.0  T
   2   -422.5611394  0.918682E+00  0.119E+00    0.16       1.0  T
   3   -422.9731244 -0.411985E+00  0.688E-01    0.03       1.0  T
   4   -423.3916921 -0.418568E+00  0.427E-01    0.03       1.0  T
   5   -423.4907673 -0.990752E-01  0.160E-01    0.01       1.0  T
   6   -423.4946392 -0.387191E-02  0.158E-01    0.01       1.0  T
   7   -423.4435744  0.510648E-01  0.288E-01    0.02       1.0  T
   8   -423.4022099  0.413646E-01  0.340E-01    0.02       1.0  T
   9   -423.4228974 -0.206875E-01  0.291E-01    0.01       1.0  T
  10   -423.5028324 -0.799350E-01  0.981E-02    0.01       1.0  T
  11   -423.5069847 -0.415225E-02  0.582E-02    0.00       1.0  T
  12   -423.5083164 -0.133169E-02  0.322E-02    0.00       1.0  T
  13   -423.5086565 -0.340115E-03  0.198E-02    0.00       1.0  T
  14   -423.5088465 -0.189979E-03  0.883E-03    0.00       1.0  T
  15   -423.5088718 -0.253603E-04  0.584E-03    0.00       1.1  T
  16   -423.5088853 -0.134907E-04  0.400E-03    0.00       1.6  T
  17   -423.5088948 -0.948426E-05  0.124E-03    0.00       5.2  T
  18   -423.5088956 -0.823603E-06  0.252E-04    0.00      25.6  T
  19   -423.5088957 -0.409598E-07  0.156E-04    0.00      41.3  T
  20   -423.5088957 -0.119027E-07  0.789E-05    0.00      81.8  T
     SCC iter.                  ...        0 min,  7.309 sec
     gradient                   ...        0 min,  1.213 sec
 * total energy  :  -416.7301208 Eh     change       -0.1034044E-01 Eh
   gradient norm :     0.0296715 Eh/α   predicted    -0.9451371E-02 (  -8.60%)
   displ. norm   :     0.9399411 α      lambda       -0.1299558E-01
   maximum displ.:     0.5210422 α      in ANC's #9, #80, #77, ...

........................................................................
.............................. CYCLE    8 ..............................
........................................................................
   1   -423.4772475 -0.423477E+03  0.176E-01    0.01       0.0  T
   2   -422.3737982  0.110345E+01  0.105E+00    0.23       1.0  T
   3   -422.9050002 -0.531202E+00  0.871E-01    0.08       1.0  T
   4   -423.3300623 -0.425062E+00  0.517E-01    0.02       1.0  T
   5   -423.4507021 -0.120640E+00  0.287E-01    0.00       1.0  T
   6   -423.4329773  0.177247E-01  0.300E-01    0.02       1.0  T
   7   -423.4865880 -0.536106E-01  0.148E-01    0.01       1.0  T
   8   -423.4622127  0.243753E-01  0.219E-01    0.02       1.0  T
   9   -423.4898468 -0.276341E-01  0.133E-01    0.00       1.0  T
  10   -423.4547450  0.351018E-01  0.255E-01    0.01       1.0  T
  11   -423.4574724 -0.272741E-02  0.248E-01    0.01       1.0  T
  12   -423.4717765 -0.143041E-01  0.180E-01    0.00       1.0  T
  13   -423.4970159 -0.252394E-01  0.544E-02    0.01       1.0  T
  14   -423.4984303 -0.141433E-02  0.305E-02    0.00       1.0  T
  15   -423.4987968 -0.366562E-03  0.195E-02    0.00       1.0  T
  16   -423.4989970 -0.200152E-03  0.617E-03    0.00       1.0  T
  17   -423.4990202 -0.232533E-04  0.365E-03    0.00       1.8  T
  18   -423.4990270 -0.671538E-05  0.217E-03    0.00       3.0  T
  19   -423.4990279 -0.944159E-06  0.190E-03    0.00       3.4  T
  20   -423.4990290 -0.113767E-05  0.120E-03    0.00       5.4  T
  21   -423.4990301 -0.107566E-05  0.138E-04    0.00      46.8  T
  22   -423.4990301  0.428193E-07  0.266E-04    0.00      24.3  T
  23   -423.4990301 -0.504393E-07  0.874E-05    0.00      73.8  T
  24   -423.4990301 -0.365191E-08  0.469E-05    0.00     137.7  T
     SCC iter.                  ...        0 min,  8.115 sec
     gradient                   ...        0 min,  0.923 sec
 * total energy  :  -416.7442787 Eh     change       -0.1415795E-01 Eh
   gradient norm :     0.0432373 Eh/α   predicted    -0.1223852E-01 ( -13.56%)
   displ. norm   :     0.8957334 α      lambda       -0.1697095E-01
   maximum displ.:     0.4941201 α      in ANC's #9, #58, #77, ...

........................................................................
.............................. CYCLE    9 ..............................
........................................................................
   1   -423.4650481 -0.423465E+03  0.141E-01    0.01       0.0  T
   2   -422.3628506  0.110220E+01  0.104E+00    0.19       1.0  T
   3   -423.1231332 -0.760283E+00  0.740E-01    0.11       1.0  T
   4   -423.2518547 -0.128721E+00  0.616E-01    0.06       1.0  T
   5   -423.4432125 -0.191358E+00  0.231E-01    0.02       1.0  T
   6   -423.4648877 -0.216752E-01  0.152E-01    0.01       1.0  T
   7   -423.4575516  0.733612E-02  0.163E-01    0.00       1.0  T
   8   -423.4301654  0.273862E-01  0.299E-01    0.00       1.0  T
   9   -423.4018588  0.283066E-01  0.355E-01    0.02       1.0  T
  10   -423.3739119  0.279469E-01  0.387E-01    0.03       1.0  T
  11   -423.4542659 -0.803540E-01  0.201E-01    0.01       1.0  T
  12   -423.4770165 -0.227505E-01  0.945E-02    0.01       1.0  T
  13   -423.4763050  0.711502E-03  0.858E-02    0.00       1.0  T
  14   -423.4813403 -0.503529E-02  0.183E-02    0.00       1.0  T
  15   -423.4814058 -0.654894E-04  0.149E-02    0.00       1.0  T
  16   -423.4815244 -0.118675E-03  0.351E-03    0.00       1.8  T
  17   -423.4815321 -0.766640E-05  0.286E-03    0.00       2.3  T
  18   -423.4815365 -0.442731E-05  0.138E-03    0.00       4.7  T
  19   -423.4815381 -0.158679E-05  0.457E-04    0.00      14.1  T
  20   -423.4815383 -0.159936E-06  0.789E-05    0.00      81.8  T
  21   -423.4815383  0.586510E-08  0.133E-04    0.00      48.4  T
     SCC iter.                  ...        0 min,  6.096 sec
     gradient                   ...        0 min,  0.946 sec
 * total energy  :  -416.7641433 Eh     change       -0.1986455E-01 Eh
   gradient norm :     0.0627279 Eh/α   predicted    -0.1529370E-01 ( -23.01%)
   displ. norm   :     0.8422931 α      lambda       -0.2400230E-01
   maximum displ.:     0.4447336 α      in ANC's #9, #58, #80, ...

........................................................................
.............................. CYCLE   10 ..............................
........................................................................
   1   -423.4575665 -0.423458E+03  0.800E-02    0.00       0.0  T
   2   -423.0342597  0.423307E+00  0.785E-01    0.15       1.0  T
   3   -423.2713532 -0.237094E+00  0.556E-01    0.08       1.0  T
   4   -423.4135185 -0.142165E+00  0.280E-01    0.01       1.0  T
   5   -423.3837095  0.298090E-01  0.342E-01    0.01       1.0  T
   6   -423.3960235 -0.123140E-01  0.312E-01    0.02       1.0  T
   7   -423.3899423  0.608118E-02  0.341E-01    0.02       1.0  T
   8   -423.4173048 -0.273626E-01  0.265E-01    0.01       1.0  T
   9   -423.4571162 -0.398114E-01  0.917E-02    0.00       1.0  T
  10   -423.4505500  0.656620E-02  0.135E-01    0.00       1.0  T
  11   -423.4617614 -0.112114E-01  0.266E-02    0.00       1.0  T
  12   -423.4620409 -0.279489E-03  0.151E-02    0.00       1.0  T
  13   -423.4621911 -0.150123E-03  0.281E-03    0.00       2.3  T
  14   -423.4621955 -0.441524E-05  0.624E-04    0.00      10.3  T
  15   -423.4621953  0.206818E-06  0.813E-04    0.00       7.9  T
  16   -423.4621955 -0.246595E-06  0.539E-04    0.00      12.0  T
  17   -423.4621957 -0.181327E-06  0.130E-04    0.00      49.7  T
  18   -423.4621957 -0.974853E-08  0.390E-05    0.00     165.7  T
     SCC iter.                  ...        0 min,  6.788 sec
     gradient                   ...        0 min,  1.122 sec
 * total energy  :  -416.7910679 Eh     change       -0.2692463E-01 Eh
   gradient norm :     0.0799387 Eh/α   predicted    -0.2051546E-01 ( -23.80%)
   displ. norm   :     0.8140403 α      lambda       -0.3102362E-01
   maximum displ.:     0.4210780 α      in ANC's #9, #58, #132, ...

........................................................................
.............................. CYCLE   11 ..............................
........................................................................
   1   -423.4405758 -0.423441E+03  0.660E-02    0.00       0.0  T
   2   -423.1162225  0.324353E+00  0.741E-01    0.13       1.0  T
   3   -423.3351817 -0.218959E+00  0.418E-01    0.02       1.0  T
   4   -423.4397587 -0.104577E+00  0.856E-02    0.01       1.0  T
   5   -423.3982534  0.415053E-01  0.269E-01    0.02       1.0  T
   6   -423.4159262 -0.176728E-01  0.207E-01    0.01       1.0  T
   7   -423.4405446 -0.246184E-01  0.594E-02    0.00       1.0  T
   8   -423.4410777 -0.533070E-03  0.513E-02    0.00       1.0  T
   9   -423.4427094 -0.163169E-02  0.148E-02    0.00       1.0  T
  10   -423.4428410 -0.131610E-03  0.161E-03    0.00       4.0  T
  11   -423.4428387  0.234544E-05  0.259E-03    0.00       2.5  T
  12   -423.4428422 -0.350727E-05  0.722E-04    0.00       8.9  T
  13   -423.4428420  0.186744E-06  0.995E-04    0.00       6.5  T
  14   -423.4428420  0.405635E-07  0.983E-04    0.00       6.6  T
  15   -423.4428423 -0.375689E-06  0.592E-04    0.00      10.9  T
  16   -423.4428425 -0.212101E-06  0.160E-04    0.00      40.4  T
  17   -423.4428426 -0.162249E-07  0.322E-05    0.00     200.2  T
     SCC iter.                  ...        0 min,  6.137 sec
     gradient                   ...        0 min,  1.190 sec
 * total energy  :  -416.8237053 Eh     change       -0.3263744E-01 Eh
   gradient norm :     0.0895935 Eh/α   predicted    -0.2579089E-01 ( -20.98%)
   displ. norm   :     0.8023883 α      lambda       -0.3469436E-01
   maximum displ.:     0.4193351 α      in ANC's #9, #58, #59, ...

........................................................................
.............................. CYCLE   12 ..............................
........................................................................
   1   -423.4297780 -0.423430E+03  0.579E-02    0.00       0.0  T
   2   -423.1942182  0.235560E+00  0.626E-01    0.07       1.0  T
   3   -423.3754826 -0.181264E+00  0.296E-01    0.01       1.0  T
   4   -423.3689698  0.651282E-02  0.315E-01    0.01       1.0  T
   5   -423.4193120 -0.503422E-01  0.141E-01    0.01       1.0  T
   6   -423.4142291  0.508291E-02  0.161E-01    0.02       1.0  T
   7   -423.4284466 -0.142175E-01  0.671E-02    0.00       1.0  T
   8   -423.4306164 -0.216984E-02  0.298E-02    0.00       1.0  T
   9   -423.4310232 -0.406773E-03  0.151E-02    0.00       1.0  T
  10   -423.4311144 -0.912232E-04  0.972E-03    0.00       1.0  T
  11   -423.4311765 -0.620819E-04  0.142E-03    0.00       4.5  T
  12   -423.4311754  0.103274E-05  0.189E-03    0.00       3.4  T
  13   -423.4311775 -0.210497E-05  0.563E-04    0.00      11.5  T
  14   -423.4311776 -0.581304E-07  0.456E-04    0.00      14.2  T
  15   -423.4311777 -0.124404E-06  0.154E-04    0.00      42.0  T
  16   -423.4311777 -0.112174E-07  0.709E-05    0.00      91.1  T
     SCC iter.                  ...        0 min,  6.345 sec
     gradient                   ...        0 min,  0.945 sec
 * total energy  :  -416.8570965 Eh     change       -0.3339115E-01 Eh
   gradient norm :     0.0890605 Eh/α   predicted    -0.2851577E-01 ( -14.60%)
   displ. norm   :     0.9015591 α      lambda       -0.5401102E-01
   maximum displ.:     0.3673109 α      in ANC's #132, #9, #58, ...

........................................................................
.............................. CYCLE   13 ..............................
........................................................................
   1   -423.4129404 -0.423413E+03  0.160E-01    0.00       0.0  T
   2   -422.9496493  0.463291E+00  0.838E-01    0.25       1.0  T
   3   -423.0409454 -0.912962E-01  0.805E-01    0.27       1.0  T
   4   -423.3077061 -0.266761E+00  0.429E-01    0.00       1.0  T
   5   -423.3321644 -0.244582E-01  0.381E-01    0.00       1.0  T
   6   -423.3365069 -0.434252E-02  0.364E-01    0.02       1.0  T
   7   -423.4068052 -0.702983E-01  0.184E-01    0.00       1.0  T
   8   -423.3807127  0.260925E-01  0.266E-01    0.00       1.0  T
   9   -423.4226872 -0.419745E-01  0.100E-01    0.00       1.0  T
  10   -423.4250812 -0.239402E-02  0.827E-02    0.00       1.0  T
  11   -423.4292470 -0.416579E-02  0.246E-02    0.00       1.0  T
  12   -423.4294160 -0.169017E-03  0.179E-02    0.00       1.0  T
  13   -423.4295893 -0.173289E-03  0.594E-03    0.00       1.1  T
  14   -423.4296105 -0.212097E-04  0.250E-03    0.00       2.6  T
  15   -423.4296138 -0.330240E-05  0.923E-04    0.00       7.0  T
  16   -423.4296140 -0.161515E-06  0.772E-04    0.00       8.4  T
  17   -423.4296143 -0.356888E-06  0.168E-04    0.00      38.4  T
  18   -423.4296144 -0.161020E-07  0.566E-05    0.00     114.0  T
     SCC iter.                  ...        0 min,  5.242 sec
     gradient                   ...        0 min,  0.927 sec
 * total energy  :  -416.8933872 Eh     change       -0.3629072E-01 Eh
   gradient norm :     0.0931706 Eh/α   predicted    -0.4895585E-01 (  34.90%)
   displ. norm   :     0.7250493 α      lambda       -0.3359625E-01
   maximum displ.:     0.3552479 α      in ANC's #9, #58, #59, ...

........................................................................
.............................. CYCLE   14 ..............................
........................................................................
   1   -423.4315345 -0.423432E+03  0.137E-01    0.01       0.0  T
   2   -422.9696231  0.461911E+00  0.828E-01    0.31       1.0  T
   3   -423.2131268 -0.243504E+00  0.615E-01    0.04       1.0  T
   4   -423.3266665 -0.113540E+00  0.427E-01    0.02       1.0  T
   5   -423.3866021 -0.599357E-01  0.285E-01    0.01       1.0  T
   6   -423.3877899 -0.118781E-02  0.283E-01    0.01       1.0  T
   7   -423.4436837 -0.558938E-01  0.280E-02    0.00       1.0  T
   8   -423.4429810  0.702742E-03  0.403E-02    0.00       1.0  T
   9   -423.4439814 -0.100044E-02  0.936E-03    0.00       1.0  T
  10   -423.4439335  0.479448E-04  0.122E-02    0.00       1.0  T
  11   -423.4440340 -0.100538E-03  0.148E-03    0.00       4.4  T
  12   -423.4440305  0.349331E-05  0.282E-03    0.00       2.3  T
  13   -423.4440348 -0.426662E-05  0.966E-04    0.00       6.7  T
  14   -423.4440350 -0.216142E-06  0.795E-04    0.00       8.1  T
  15   -423.4440354 -0.341522E-06  0.270E-04    0.00      23.9  T
  16   -423.4440354 -0.361852E-07  0.154E-04    0.00      41.9  T
  17   -423.4440354 -0.142505E-07  0.219E-05    0.00     294.3  T
     SCC iter.                  ...        0 min,  4.997 sec
     gradient                   ...        0 min,  1.114 sec
 * total energy  :  -416.9146315 Eh     change       -0.2124429E-01 Eh
   gradient norm :     0.0736917 Eh/α   predicted    -0.2562875E-01 (  20.64%)
   displ. norm   :     0.7380582 α      lambda       -0.3437209E-01
   maximum displ.:     0.3899738 α      in ANC's #9, #58, #42, ...

........................................................................
.............................. CYCLE   15 ..............................
........................................................................
   1   -423.4697057 -0.423470E+03  0.823E-02    0.01       0.0  T
   2   -423.0455437  0.424162E+00  0.821E-01    0.32       1.0  T
   3   -423.3499724 -0.304429E+00  0.418E-01    0.05       1.0  T
   4   -423.4577450 -0.107773E+00  0.157E-01    0.00       1.0  T
   5   -423.4678490 -0.101040E-01  0.100E-01    0.00       1.0  T
   6   -423.4670495  0.799520E-03  0.103E-01    0.01       1.0  T
   7   -423.4705940 -0.354454E-02  0.723E-02    0.01       1.0  T
   8   -423.4737513 -0.315727E-02  0.984E-03    0.00       1.0  T
   9   -423.4737611 -0.982900E-05  0.900E-03    0.00       1.0  T
  10   -423.4738118 -0.507147E-04  0.779E-04    0.00       8.3  T
  11   -423.4738113  0.496271E-06  0.125E-03    0.00       5.2  T
  12   -423.4738122 -0.889170E-06  0.358E-04    0.00      18.0  T
  13   -423.4738123 -0.602889E-07  0.184E-04    0.00      35.0  T
  14   -423.4738123 -0.188881E-07  0.657E-05    0.00      98.2  T
     SCC iter.                  ...        0 min,  5.313 sec
     gradient                   ...        0 min,  1.140 sec
 * total energy  :  -416.9330906 Eh     change       -0.1845908E-01 Eh
   gradient norm :     0.0659301 Eh/α   predicted    -0.2654778E-01 (  43.82%)
   displ. norm   :     0.7723645 α      lambda       -0.2157763E-01
   maximum displ.:     0.5200329 α      in ANC's #9, #58, #59, ...

........................................................................
.............................. CYCLE   16 ..............................
........................................................................
   1   -423.4847417 -0.423485E+03  0.143E-01    0.01       0.0  T
   2   -423.0239476  0.460794E+00  0.864E-01    0.46       1.0  T
   3   -423.1850539 -0.161106E+00  0.721E-01    0.14       1.0  T
   4   -423.3975042 -0.212450E+00  0.392E-01    0.00       1.0  T
   5   -423.4318377 -0.343335E-01  0.321E-01    0.02       1.0  T
   6   -423.4950074 -0.631697E-01  0.638E-02    0.01       1.0  T
   7   -423.4959792 -0.971776E-03  0.484E-02    0.01       1.0  T
   8   -423.4973570 -0.137782E-02  0.117E-02    0.00       1.0  T
   9   -423.4973146  0.424133E-04  0.142E-02    0.00       1.0  T
  10   -423.4974372 -0.122630E-03  0.280E-03    0.00       2.3  T
  11   -423.4974417 -0.446827E-05  0.854E-04    0.00       7.6  T
  12   -423.4974420 -0.353608E-06  0.365E-04    0.00      17.7  T
  13   -423.4974420  0.776571E-07  0.522E-04    0.00      12.4  T
  14   -423.4974421 -0.137328E-06  0.217E-04    0.00      29.7  T
  15   -423.4974421 -0.219090E-07  0.114E-04    0.00      56.8  T
  16   -423.4974421 -0.625596E-08  0.484E-05    0.00     133.3  T
     SCC iter.                  ...        0 min,  5.750 sec
     gradient                   ...        0 min,  1.196 sec
 * total energy  :  -416.9506978 Eh     change       -0.1760719E-01 Eh
   gradient norm :     0.0471802 Eh/α   predicted    -0.1722484E-01 (  -2.17%)
   displ. norm   :     0.8504114 α      lambda       -0.2381060E-01
   maximum displ.:     0.4940732 α      in ANC's #9, #58, #59, ...

........................................................................
.............................. CYCLE   17 ..............................
........................................................................
   1   -423.5130025 -0.423513E+03  0.239E-01    0.03       0.0  T
   2   -422.9868256  0.526177E+00  0.935E-01    0.43       1.0  T
   3   -423.3180155 -0.331190E+00  0.626E-01    0.06       1.0  T
   4   -423.3293440 -0.113285E-01  0.589E-01    0.04       1.0  T
   5   -423.3772998 -0.479558E-01  0.520E-01    0.05       1.0  T
   6   -423.5348686 -0.157569E+00  0.147E-01    0.00       1.0  T
   7   -423.5165784  0.182902E-01  0.224E-01    0.02       1.0  T
   8   -423.5122305  0.434791E-02  0.239E-01    0.01       1.0  T
   9   -423.5479643 -0.357338E-01  0.270E-02    0.00       1.0  T
  10   -423.5480077 -0.433471E-04  0.250E-02    0.00       1.0  T
  11   -423.5483824 -0.374735E-03  0.532E-03    0.00       1.2  T
  12   -423.5483722  0.102055E-04  0.679E-03    0.00       1.0  T
  13   -423.5483950 -0.227712E-04  0.316E-03    0.00       2.0  T
  14   -423.5483982 -0.325175E-05  0.221E-03    0.00       2.9  T
  15   -423.5484011 -0.283972E-05  0.755E-04    0.00       8.5  T
  16   -423.5484011 -0.794142E-08  0.730E-04    0.00       8.8  T
  17   -423.5484014 -0.285364E-06  0.242E-04    0.00      26.7  T
  18   -423.5484014 -0.272944E-07  0.124E-04    0.00      52.2  T
  19   -423.5484014 -0.711560E-08  0.487E-05    0.00     132.5  T
     SCC iter.                  ...        0 min,  7.141 sec
     gradient                   ...        0 min,  0.945 sec
 * total energy  :  -416.9624827 Eh     change       -0.1178495E-01 Eh
   gradient norm :     0.0656110 Eh/α   predicted    -0.2051522E-01 (  74.08%)
   displ. norm   :     0.7249367 α      lambda       -0.2027497E-01
   maximum displ.:     0.4973837 α      in ANC's #9, #58, #32, ...

........................................................................
.............................. CYCLE   18 ..............................
........................................................................
   1   -423.5703782 -0.423570E+03  0.109E-01    0.01       0.0  T
   2   -423.1198449  0.450533E+00  0.845E-01    0.44       1.0  T
   3   -423.4373417 -0.317497E+00  0.465E-01    0.02       1.0  T
   4   -423.5597504 -0.122409E+00  0.166E-01    0.00       1.0  T
   5   -423.5579109  0.183949E-02  0.172E-01    0.00       1.0  T
   6   -423.5709554 -0.130445E-01  0.103E-01    0.01       1.0  T
   7   -423.5771575 -0.620205E-02  0.230E-02    0.00       1.0  T
   8   -423.5774591 -0.301602E-03  0.683E-03    0.00       1.0  T
   9   -423.5774722 -0.130917E-04  0.499E-03    0.00       1.3  T
  10   -423.5774857 -0.135612E-04  0.212E-03    0.00       3.0  T
  11   -423.5774884 -0.265277E-05  0.523E-04    0.00      12.3  T
  12   -423.5774885 -0.155151E-06  0.234E-04    0.00      27.6  T
  13   -423.5774885  0.475639E-07  0.362E-04    0.00      17.8  T
  14   -423.5774886 -0.685564E-07  0.134E-04    0.00      48.2  T
  15   -423.5774886 -0.875303E-08  0.592E-05    0.00     109.1  T
     SCC iter.                  ...        0 min,  4.341 sec
     gradient                   ...        0 min,  0.930 sec
 * total energy  :  -416.9776743 Eh     change       -0.1519156E-01 Eh
   gradient norm :     0.0418497 Eh/α   predicted    -0.1546508E-01 (   1.80%)
   displ. norm   :     0.8356344 α      lambda       -0.1754968E-01
   maximum displ.:     0.5567145 α      in ANC's #9, #59, #58, ...

........................................................................
.............................. CYCLE   19 ..............................
........................................................................
   1   -423.5754379 -0.423575E+03  0.127E-01    0.02       0.0  T
   2   -423.1113212  0.464117E+00  0.861E-01    0.48       1.0  T
   3   -423.3887263 -0.277405E+00  0.555E-01    0.05       1.0  T
   4   -423.5668867 -0.178160E+00  0.170E-01    0.01       1.0  T
   5   -423.5328166  0.340701E-01  0.277E-01    0.03       1.0  T
   6   -423.5780493 -0.452327E-01  0.107E-01    0.02       1.0  T
   7   -423.5844203 -0.637091E-02  0.299E-02    0.00       1.0  T
   8   -423.5848999 -0.479627E-03  0.128E-02    0.00       1.0  T
   9   -423.5849686 -0.687241E-04  0.689E-03    0.00       1.0  T
  10   -423.5849968 -0.282369E-04  0.173E-03    0.00       3.7  T
  11   -423.5849979 -0.108957E-05  0.124E-03    0.00       5.2  T
  12   -423.5849985 -0.590978E-06  0.782E-04    0.00       8.2  T
  13   -423.5849988 -0.320050E-06  0.318E-04    0.00      20.3  T
  14   -423.5849989 -0.263072E-07  0.222E-04    0.00      29.1  T
  15   -423.5849989 -0.328629E-07  0.491E-05    0.00     131.5  T
  16   -423.5849989  0.127670E-09  0.486E-05    0.00     132.7  T
     SCC iter.                  ...        0 min,  4.706 sec
     gradient                   ...        0 min,  1.117 sec
 * total energy  :  -416.9868850 Eh     change       -0.9210752E-02 Eh
   gradient norm :     0.0411210 Eh/α   predicted    -0.1490218E-01 (  61.79%)
   displ. norm   :     0.7551240 α      lambda       -0.1756928E-01
   maximum displ.:     0.5212541 α      in ANC's #9, #58, #39, ...

........................................................................
.............................. CYCLE   20 ..............................
........................................................................
   1   -423.6018349 -0.423602E+03  0.140E-01    0.02       0.0  T
   2   -423.1299572  0.471878E+00  0.871E-01    0.44       1.0  T
   3   -423.3837585 -0.253801E+00  0.602E-01    0.04       1.0  T
   4   -423.5508285 -0.167070E+00  0.306E-01    0.01       1.0  T
   5   -423.5873910 -0.365625E-01  0.208E-01    0.01       1.0  T
   6   -423.6056935 -0.183026E-01  0.113E-01    0.01       1.0  T
   7   -423.6122031 -0.650959E-02  0.464E-02    0.00       1.0  T
   8   -423.6131386 -0.935442E-03  0.271E-02    0.00       1.0  T
   9   -423.6135754 -0.436847E-03  0.834E-03    0.00       1.0  T
  10   -423.6136012 -0.257942E-04  0.513E-03    0.00       1.3  T
  11   -423.6136173 -0.160851E-04  0.180E-03    0.00       3.6  T
  12   -423.6136189 -0.161335E-05  0.907E-04    0.00       7.1  T
  13   -423.6136194 -0.512052E-06  0.286E-04    0.00      22.6  T
  14   -423.6136194  0.552907E-07  0.402E-04    0.00      16.0  T
  15   -423.6136195 -0.104241E-06  0.883E-05    0.00      73.1  T
  16   -423.6136195 -0.435693E-08  0.299E-05    0.00     216.0  T
     SCC iter.                  ...        0 min,  6.305 sec
     gradient                   ...        0 min,  1.113 sec
 * total energy  :  -416.9990077 Eh     change       -0.1212268E-01 Eh
   gradient norm :     0.0416641 Eh/α   predicted    -0.1379375E-01 (  13.78%)
   displ. norm   :     0.7850040 α      lambda       -0.1474821E-01
   maximum displ.:     0.5895119 α      in ANC's #9, #32, #58, ...
 * RMSD in coord.:     0.7559219 α      energy gain  -0.5530192E+00 Eh

generating ANC from model Hessian ...
Using Lindh-Hessian (1995)
 Shifting diagonal of input Hessian by    1.0017539942742813E-002
 Lowest  eigenvalues of input Hessian
    0.010000    0.010002    0.010003    0.010005    0.010010    0.010014
    0.010016    0.010017    0.000000    0.000000    0.000000    0.000000
    0.000000    0.000000    0.010018    0.010026    0.010028    0.010032
 Highest eigenvalues
    2.373414    2.390421    2.471472    2.654508    2.669490    2.776028


........................................................................
.............................. CYCLE   21 ..............................
........................................................................
   1   -423.6349878 -0.423635E+03  0.914E-02    0.01       0.0  T
   2   -423.1901101  0.444878E+00  0.837E-01    0.27       1.0  T
   3   -423.3271650 -0.137055E+00  0.666E-01    0.12       1.0  T
   4   -423.6316589 -0.304494E+00  0.119E-01    0.01       1.0  T
   5   -423.6259507  0.570811E-02  0.150E-01    0.01       1.0  T
   6   -423.6393850 -0.134343E-01  0.323E-02    0.01       1.0  T
   7   -423.6394824 -0.973832E-04  0.286E-02    0.00       1.0  T
   8   -423.6399730 -0.490594E-03  0.452E-03    0.00       1.4  T
   9   -423.6399654  0.766197E-05  0.544E-03    0.00       1.2  T
  10   -423.6399849 -0.195493E-04  0.774E-04    0.00       8.3  T
  11   -423.6399848  0.122114E-06  0.888E-04    0.00       7.3  T
  12   -423.6399853 -0.484696E-06  0.185E-04    0.00      34.9  T
  13   -423.6399853  0.384028E-08  0.203E-04    0.00      31.9  T
  14   -423.6399853 -0.213104E-07  0.954E-05    0.00      67.6  T
     SCC iter.                  ...        0 min,  4.842 sec
     gradient                   ...        0 min,  1.209 sec
 * total energy  :  -417.0077300 Eh     change       -0.8722287E-02 Eh
   gradient norm :     0.0455586 Eh/α   predicted     0.0000000E+00 (-100.00%)
   displ. norm   :     0.5913688 α      lambda       -0.9548610E-02
   maximum displ.:     0.3471551 α      in ANC's #20, #62, #38, ...

........................................................................
.............................. CYCLE   22 ..............................
........................................................................
   1   -423.6654917 -0.423665E+03  0.249E-02    0.01       0.0  T
   2   -423.4799639  0.185528E+00  0.540E-01    0.05       1.0  T
   3   -423.6497911 -0.169827E+00  0.162E-01    0.00       1.0  T
   4   -423.6651522 -0.153611E-01  0.330E-02    0.00       1.0  T
   5   -423.6456654  0.194868E-01  0.169E-01    0.01       1.0  T
   6   -423.6657462 -0.200807E-01  0.123E-02    0.00       1.0  T
   7   -423.6657997 -0.534713E-04  0.770E-03    0.00       1.0  T
   8   -423.6658101 -0.104788E-04  0.639E-03    0.00       1.0  T
   9   -423.6658336 -0.234169E-04  0.172E-03    0.00       3.8  T
  10   -423.6658349 -0.136587E-05  0.999E-04    0.00       6.5  T
  11   -423.6658353 -0.339056E-06  0.676E-04    0.00       9.6  T
  12   -423.6658355 -0.257446E-06  0.207E-04    0.00      31.2  T
  13   -423.6658355 -0.208510E-07  0.904E-05    0.00      71.4  T
  14   -423.6658355 -0.452553E-08  0.393E-05    0.00     164.1  T
     SCC iter.                  ...        0 min,  5.507 sec
     gradient                   ...        0 min,  0.951 sec
 * total energy  :  -417.0161220 Eh     change       -0.8391979E-02 Eh
   gradient norm :     0.0245025 Eh/α   predicted    -0.6448980E-02 ( -23.15%)
   displ. norm   :     0.8618550 α      lambda       -0.1156328E-01
   maximum displ.:     0.4913333 α      in ANC's #20, #62, #38, ...

........................................................................
.............................. CYCLE   23 ..............................
........................................................................
   1   -423.6944316 -0.423694E+03  0.460E-02    0.01       0.0  T
   2   -423.3672530  0.327179E+00  0.719E-01    0.10       1.0  T
   3   -423.5904167 -0.223164E+00  0.405E-01    0.02       1.0  T
   4   -423.6908009 -0.100384E+00  0.853E-02    0.00       1.0  T
   5   -423.6873237  0.347719E-02  0.112E-01    0.00       1.0  T
   6   -423.6951256 -0.780188E-02  0.286E-02    0.00       1.0  T
   7   -423.6955609 -0.435325E-03  0.104E-02    0.00       1.0  T
   8   -423.6954060  0.154856E-03  0.186E-02    0.00       1.0  T
   9   -423.6956095 -0.203459E-03  0.515E-03    0.00       1.3  T
  10   -423.6956177 -0.818150E-05  0.375E-03    0.00       1.7  T
  11   -423.6956252 -0.756190E-05  0.147E-03    0.00       4.4  T
  12   -423.6956266 -0.133584E-05  0.151E-04    0.00      42.7  T
  13   -423.6956266  0.884779E-08  0.197E-04    0.00      32.7  T
  14   -423.6956266 -0.136884E-07  0.132E-04    0.00      49.0  T
     SCC iter.                  ...        0 min,  4.102 sec
     gradient                   ...        0 min,  0.921 sec
 * total energy  :  -417.0253920 Eh     change       -0.9270076E-02 Eh
   gradient norm :     0.0215061 Eh/α   predicted    -0.1007621E-01 (   8.70%)
   displ. norm   :     0.8699236 α      lambda       -0.1043858E-01
   maximum displ.:     0.5072735 α      in ANC's #20, #62, #38, ...

........................................................................
.............................. CYCLE   24 ..............................
........................................................................
   1   -423.7166702 -0.423717E+03  0.478E-02    0.01       0.0  T
   2   -423.3586485  0.358022E+00  0.754E-01    0.12       1.0  T
   3   -423.6032856 -0.244637E+00  0.412E-01    0.04       1.0  T
   4   -423.7136535 -0.110368E+00  0.825E-02    0.00       1.0  T
   5   -423.7111222  0.253128E-02  0.105E-01    0.00       1.0  T
   6   -423.7174223 -0.630011E-02  0.290E-02    0.00       1.0  T
   7   -423.7179341 -0.511835E-03  0.757E-03    0.00       1.0  T
   8   -423.7177260  0.208165E-03  0.195E-02    0.01       1.0  T
   9   -423.7179582 -0.232252E-03  0.388E-03    0.00       1.7  T
  10   -423.7179504  0.783820E-05  0.523E-03    0.00       1.2  T
  11   -423.7179663 -0.159563E-04  0.159E-03    0.00       4.1  T
  12   -423.7179679 -0.158464E-05  0.207E-04    0.00      31.2  T
  13   -423.7179679 -0.205397E-07  0.121E-04    0.00      53.3  T
  14   -423.7179680 -0.446249E-08  0.881E-05    0.00      73.2  T
     SCC iter.                  ...        0 min,  4.087 sec
     gradient                   ...        0 min,  0.958 sec
 * total energy  :  -417.0330903 Eh     change       -0.7698255E-02 Eh
   gradient norm :     0.0322974 Eh/α   predicted    -0.9169087E-02 (  19.11%)
   displ. norm   :     0.8119675 α      lambda       -0.9074045E-02
   maximum displ.:     0.5003870 α      in ANC's #20, #62, #38, ...

........................................................................
.............................. CYCLE   25 ..............................
........................................................................
   1   -423.7357489 -0.423736E+03  0.346E-02    0.01       0.0  T
   2   -423.4255997  0.310149E+00  0.702E-01    0.09       1.0  T
   3   -423.6971823 -0.271583E+00  0.237E-01    0.02       1.0  T
   4   -423.7351433 -0.379609E-01  0.449E-02    0.01       1.0  T
   5   -423.7213813  0.137619E-01  0.159E-01    0.02       1.0  T
   6   -423.7362418 -0.148604E-01  0.165E-02    0.00       1.0  T
   7   -423.7364113 -0.169501E-03  0.517E-03    0.00       1.2  T
   8   -423.7363973  0.140064E-04  0.730E-03    0.00       1.0  T
   9   -423.7364244 -0.271848E-04  0.299E-03    0.00       2.2  T
  10   -423.7364263 -0.182507E-05  0.242E-03    0.00       2.7  T
  11   -423.7364286 -0.234301E-05  0.150E-03    0.00       4.3  T
  12   -423.7364297 -0.113146E-05  0.710E-04    0.00       9.1  T
  13   -423.7364301 -0.322341E-06  0.474E-05    0.00     136.2  T
  14   -423.7364301  0.117382E-09  0.491E-05    0.00     131.4  T
     SCC iter.                  ...        0 min,  5.256 sec
     gradient                   ...        0 min,  1.124 sec
 * total energy  :  -417.0402835 Eh     change       -0.7193206E-02 Eh
   gradient norm :     0.0318591 Eh/α   predicted    -0.7528254E-02 (   4.66%)
   displ. norm   :     0.8001436 α      lambda       -0.8680935E-02
   maximum displ.:     0.5120400 α      in ANC's #20, #38, #62, ...

........................................................................
.............................. CYCLE   26 ..............................
........................................................................
   1   -423.7514909 -0.423751E+03  0.207E-02    0.01       0.0  T
   2   -423.5781047  0.173386E+00  0.521E-01    0.03       1.0  T
   3   -423.7486920 -0.170587E+00  0.695E-02    0.01       1.0  T
   4   -423.7498051 -0.111311E-02  0.532E-02    0.00       1.0  T
   5   -423.7432185  0.658661E-02  0.117E-01    0.00       1.0  T
   6   -423.7515834 -0.836489E-02  0.154E-02    0.01       1.0  T
   7   -423.7516953 -0.111824E-03  0.705E-03    0.00       1.0  T
   8   -423.7517206 -0.253277E-04  0.333E-03    0.00       1.9  T
   9   -423.7517247 -0.408139E-05  0.194E-03    0.00       3.3  T
  10   -423.7517269 -0.225282E-05  0.491E-04    0.00      13.1  T
  11   -423.7517270 -0.130097E-06  0.229E-04    0.00      28.1  T
  12   -423.7517270  0.245689E-07  0.299E-04    0.00      21.6  T
  13   -423.7517271 -0.427769E-07  0.152E-04    0.00      42.4  T
  14   -423.7517271 -0.138502E-07  0.341E-05    0.00     189.1  T
     SCC iter.                  ...        0 min,  5.572 sec
     gradient                   ...        0 min,  0.933 sec
 * total energy  :  -417.0473035 Eh     change       -0.7020030E-02 Eh
   gradient norm :     0.0225344 Eh/α   predicted    -0.7119375E-02 (   1.42%)
   displ. norm   :     0.8222313 α      lambda       -0.8155965E-02
   maximum displ.:     0.5463774 α      in ANC's #20, #38, #62, ...

........................................................................
.............................. CYCLE   27 ..............................
........................................................................
   1   -423.7699147 -0.423770E+03  0.101E-02    0.00       0.0  T
   2   -423.7284461  0.414686E-01  0.248E-01    0.01       1.0  T
   3   -423.7696808 -0.412347E-01  0.207E-02    0.00       1.0  T
   4   -423.7627544  0.692649E-02  0.106E-01    0.00       1.0  T
   5   -423.7697518 -0.699743E-02  0.185E-02    0.00       1.0  T
   6   -423.7690774  0.674348E-03  0.384E-02    0.00       1.0  T
   7   -423.7699478 -0.870308E-03  0.302E-03    0.00       2.1  T
   8   -423.7699524 -0.466411E-05  0.732E-04    0.00       8.8  T
   9   -423.7699526 -0.184331E-06  0.603E-04    0.00      10.7  T
  10   -423.7699528 -0.220042E-06  0.129E-04    0.00      49.9  T
  11   -423.7699528 -0.801657E-08  0.616E-05    0.00     104.8  T
     SCC iter.                  ...        0 min,  4.415 sec
     gradient                   ...        0 min,  1.221 sec
 * total energy  :  -417.0539754 Eh     change       -0.6671871E-02 Eh
   gradient norm :     0.0149786 Eh/α   predicted    -0.6834958E-02 (   2.44%)
   displ. norm   :     0.8479835 α      lambda       -0.7230945E-02
   maximum displ.:     0.5792834 α      in ANC's #20, #38, #29, ...

........................................................................
.............................. CYCLE   28 ..............................
........................................................................
   1   -423.7899381 -0.423790E+03  0.889E-03    0.00       0.0  T
   2   -423.7550376  0.349005E-01  0.234E-01    0.02       1.0  T
   3   -423.7897361 -0.346985E-01  0.188E-02    0.00       1.0  T
   4   -423.7819238  0.781232E-02  0.109E-01    0.01       1.0  T
   5   -423.7899100 -0.798626E-02  0.978E-03    0.00       1.0  T
   6   -423.7888559  0.105415E-02  0.437E-02    0.00       1.0  T
   7   -423.7899659 -0.111003E-02  0.194E-03    0.00       3.3  T
   8   -423.7899676 -0.164776E-05  0.102E-03    0.00       6.3  T
   9   -423.7899677 -0.141908E-06  0.975E-04    0.00       6.6  T
  10   -423.7899683 -0.589394E-06  0.151E-04    0.00      42.6  T
  11   -423.7899683 -0.166816E-07  0.456E-05    0.00     141.7  T
     SCC iter.                  ...        0 min,  3.920 sec
     gradient                   ...        0 min,  0.952 sec
 * total energy  :  -417.0602311 Eh     change       -0.6255732E-02 Eh
   gradient norm :     0.0157874 Eh/α   predicted    -0.6215273E-02 (  -0.65%)
   displ. norm   :     0.8519416 α      lambda       -0.6732064E-02
   maximum displ.:     0.5909297 α      in ANC's #20, #38, #29, ...

........................................................................
.............................. CYCLE   29 ..............................
........................................................................
   1   -423.8082536 -0.423808E+03  0.139E-02    0.00       0.0  T
   2   -423.7038567  0.104397E+00  0.410E-01    0.06       1.0  T
   3   -423.8077901 -0.103933E+00  0.304E-02    0.00       1.0  T
   4   -423.8010802  0.670998E-02  0.110E-01    0.00       1.0  T
   5   -423.8078563 -0.677609E-02  0.269E-02    0.00       1.0  T
   6   -423.8081352 -0.278913E-03  0.179E-02    0.00       1.0  T
   7   -423.8083431 -0.207893E-03  0.358E-03    0.00       1.8  T
   8   -423.8083489 -0.589024E-05  0.185E-03    0.00       3.5  T
   9   -423.8083490 -0.524161E-07  0.178E-03    0.00       3.6  T
  10   -423.8083509 -0.189014E-05  0.352E-04    0.00      18.3  T
  11   -423.8083510 -0.769496E-07  0.856E-05    0.00      75.4  T
  12   -423.8083510 -0.266027E-09  0.827E-05    0.00      78.0  T
     SCC iter.                  ...        0 min,  3.481 sec
     gradient                   ...        0 min,  0.936 sec
 * total energy  :  -417.0660735 Eh     change       -0.5842344E-02 Eh
   gradient norm :     0.0156784 Eh/α   predicted    -0.5809096E-02 (  -0.57%)
   displ. norm   :     0.8304907 α      lambda       -0.6189877E-02
   maximum displ.:     0.5895327 α      in ANC's #20, #38, #29, ...

........................................................................
.............................. CYCLE   30 ..............................
........................................................................
   1   -423.8247990 -0.423825E+03  0.278E-02    0.00       0.0  T
   2   -423.5595838  0.265215E+00  0.653E-01    0.12       1.0  T
   3   -423.8220474 -0.262464E+00  0.690E-02    0.01       1.0  T
   4   -423.8215613  0.486151E-03  0.734E-02    0.01       1.0  T
   5   -423.8171134  0.444790E-02  0.117E-01    0.01       1.0  T
   6   -423.8252271 -0.811374E-02  0.482E-03    0.00       1.3  T
   7   -423.8252371 -0.992804E-05  0.245E-03    0.00       2.6  T
   8   -423.8252363  0.756202E-06  0.273E-03    0.00       2.4  T
   9   -423.8252351  0.123161E-05  0.299E-03    0.00       2.2  T
  10   -423.8252405 -0.546820E-05  0.366E-04    0.00      17.6  T
  11   -423.8252404  0.157481E-06  0.622E-04    0.00      10.4  T
  12   -423.8252405 -0.164132E-06  0.344E-04    0.00      18.8  T
  13   -423.8252406 -0.706016E-07  0.428E-05    0.00     150.9  T
  14   -423.8252406 -0.932118E-09  0.196E-05    0.00     328.9  T
     SCC iter.                  ...        0 min,  4.100 sec
     gradient                   ...        0 min,  0.958 sec
 * total energy  :  -417.0717884 Eh     change       -0.5714887E-02 Eh
   gradient norm :     0.0131676 Eh/α   predicted    -0.5229559E-02 (  -8.49%)
   displ. norm   :     0.8437032 α      lambda       -0.5912650E-02
   maximum displ.:     0.6126065 α      in ANC's #20, #38, #29, ...

........................................................................
.............................. CYCLE   31 ..............................
........................................................................
   1   -423.8410944 -0.423841E+03  0.552E-02    0.00       0.0  T
   2   -423.4744968  0.366598E+00  0.769E-01    0.25       1.0  T
   3   -423.8229073 -0.348410E+00  0.170E-01    0.02       1.0  T
   4   -423.8422989 -0.193916E-01  0.290E-02    0.00       1.0  T
   5   -423.8296707  0.126282E-01  0.151E-01    0.02       1.0  T
   6   -423.8428734 -0.132027E-01  0.357E-03    0.00       1.8  T
   7   -423.8427600  0.113397E-03  0.142E-02    0.00       1.0  T
   8   -423.8428771 -0.117035E-03  0.284E-03    0.00       2.3  T
   9   -423.8428512  0.258977E-04  0.709E-03    0.00       1.0  T
  10   -423.8428796 -0.284519E-04  0.192E-03    0.00       3.4  T
  11   -423.8428808 -0.118869E-05  0.134E-03    0.00       4.8  T
  12   -423.8428818 -0.104678E-05  0.294E-04    0.00      22.0  T
  13   -423.8428818  0.188375E-07  0.341E-04    0.00      18.9  T
  14   -423.8428819 -0.679727E-07  0.571E-05    0.00     113.1  T
  15   -423.8428819 -0.118871E-08  0.349E-05    0.00     184.7  T
     SCC iter.                  ...        0 min,  5.779 sec
     gradient                   ...        0 min,  1.079 sec
 * total energy  :  -417.0771640 Eh     change       -0.5375629E-02 Eh
   gradient norm :     0.0119877 Eh/α   predicted    -0.5060749E-02 (  -5.86%)
   displ. norm   :     0.8405292 α      lambda       -0.5716927E-02
   maximum displ.:     0.6187329 α      in ANC's #20, #38, #29, ...

........................................................................
.............................. CYCLE   32 ..............................
........................................................................
   1   -423.8574008 -0.423857E+03  0.743E-02    0.01       0.0  T
   2   -423.4705837  0.386817E+00  0.791E-01    0.33       1.0  T
   3   -423.8226787 -0.352095E+00  0.236E-01    0.02       1.0  T
   4   -423.8591388 -0.364601E-01  0.499E-02    0.01       1.0  T
   5   -423.8370080  0.221308E-01  0.200E-01    0.02       1.0  T
   6   -423.8603828 -0.233748E-01  0.223E-02    0.00       1.0  T
   7   -423.8605518 -0.169014E-03  0.136E-02    0.00       1.0  T
   8   -423.8605831 -0.312529E-04  0.113E-02    0.00       1.0  T
   9   -423.8606608 -0.777576E-04  0.156E-03    0.00       4.1  T
  10   -423.8606531  0.767798E-05  0.386E-03    0.00       1.7  T
  11   -423.8606619 -0.879129E-05  0.628E-04    0.00      10.3  T
  12   -423.8606621 -0.160494E-06  0.361E-04    0.00      17.9  T
  13   -423.8606622 -0.761722E-07  0.449E-05    0.00     143.7  T
  14   -423.8606622  0.151863E-08  0.677E-05    0.00      95.4  T
     SCC iter.                  ...        0 min,  5.239 sec
     gradient                   ...        0 min,  0.996 sec
 * total energy  :  -417.0822538 Eh     change       -0.5089752E-02 Eh
   gradient norm :     0.0109424 Eh/α   predicted    -0.4877937E-02 (  -4.16%)
   displ. norm   :     0.8302442 α      lambda       -0.5277551E-02
   maximum displ.:     0.6169665 α      in ANC's #20, #38, #29, ...

........................................................................
.............................. CYCLE   33 ..............................
........................................................................
   1   -423.8729269 -0.423873E+03  0.769E-02    0.01       0.0  T
   2   -423.4823266  0.390600E+00  0.796E-01    0.35       1.0  T
   3   -423.8435061 -0.361179E+00  0.223E-01    0.02       1.0  T
   4   -423.8739152 -0.304091E-01  0.640E-02    0.01       1.0  T
   5   -423.8537943  0.201209E-01  0.194E-01    0.02       1.0  T
   6   -423.8760563 -0.222621E-01  0.256E-02    0.00       1.0  T
   7   -423.8762950 -0.238694E-03  0.149E-02    0.00       1.0  T
   8   -423.8763325 -0.374485E-04  0.125E-02    0.00       1.0  T
   9   -423.8764273 -0.948631E-04  0.126E-03    0.00       5.1  T
  10   -423.8764193  0.806759E-05  0.385E-03    0.00       1.7  T
  11   -423.8764281 -0.884587E-05  0.396E-04    0.00      16.3  T
  12   -423.8764281 -0.171187E-07  0.361E-04    0.00      17.9  T
  13   -423.8764282 -0.732774E-07  0.812E-05    0.00      79.5  T
  14   -423.8764282 -0.174958E-08  0.595E-05    0.00     108.5  T
     SCC iter.                  ...        0 min,  5.645 sec
     gradient                   ...        0 min,  1.201 sec
 * total energy  :  -417.0871103 Eh     change       -0.4856533E-02 Eh
   gradient norm :     0.0092911 Eh/α   predicted    -0.4457702E-02 (  -8.21%)
   displ. norm   :     0.8261135 α      lambda       -0.4871360E-02
   maximum displ.:     0.6186864 α      in ANC's #20, #38, #29, ...

........................................................................
.............................. CYCLE   34 ..............................
........................................................................
   1   -423.8863431 -0.423886E+03  0.684E-02    0.01       0.0  T
   2   -423.5003665  0.385977E+00  0.792E-01    0.32       1.0  T
   3   -423.8744180 -0.374052E+00  0.156E-01    0.00       1.0  T
   4   -423.8872459 -0.128279E-01  0.546E-02    0.00       1.0  T
   5   -423.8587867  0.284591E-01  0.215E-01    0.00       1.0  T
   6   -423.8889536 -0.301669E-01  0.168E-02    0.00       1.0  T
   7   -423.8889966 -0.429447E-04  0.137E-02    0.00       1.0  T
   8   -423.8890007 -0.407973E-05  0.134E-02    0.00       1.0  T
   9   -423.8891096 -0.108934E-03  0.690E-04    0.00       9.4  T
  10   -423.8891006  0.901891E-05  0.392E-03    0.00       1.6  T
  11   -423.8891098 -0.921836E-05  0.225E-04    0.00      28.6  T
  12   -423.8891097  0.120288E-06  0.503E-04    0.00      12.8  T
  13   -423.8891098 -0.144981E-06  0.999E-05    0.00      64.6  T
  14   -423.8891098 -0.374501E-08  0.597E-05    0.00     108.0  T
     SCC iter.                  ...        0 min,  4.180 sec
     gradient                   ...        0 min,  0.937 sec
 * total energy  :  -417.0916322 Eh     change       -0.4521950E-02 Eh
   gradient norm :     0.0083455 Eh/α   predicted    -0.4097944E-02 (  -9.38%)
   displ. norm   :     0.8110899 α      lambda       -0.4536605E-02
   maximum displ.:     0.6129609 α      in ANC's #20, #38, #29, ...

........................................................................
.............................. CYCLE   35 ..............................
........................................................................
   1   -423.8989775 -0.423899E+03  0.610E-02    0.00       0.0  T
   2   -423.5179339  0.381044E+00  0.787E-01    0.29       1.0  T
   3   -423.8975731 -0.379639E+00  0.794E-02    0.00       1.0  T
   4   -423.8988595 -0.128643E-02  0.635E-02    0.00       1.0  T
   5   -423.8995681 -0.708622E-03  0.484E-02    0.00       1.0  T
   6   -423.9010940 -0.152589E-02  0.114E-02    0.00       1.0  T
   7   -423.9010832  0.108470E-04  0.123E-02    0.00       1.0  T
   8   -423.9011193 -0.360805E-04  0.952E-03    0.00       1.0  T
   9   -423.9011652 -0.458968E-04  0.380E-03    0.00       1.7  T
  10   -423.9011710 -0.583765E-05  0.221E-03    0.00       2.9  T
  11   -423.9011739 -0.292029E-05  0.170E-04    0.00      38.0  T
  12   -423.9011739  0.637741E-07  0.373E-04    0.00      17.3  T
  13   -423.9011739 -0.731138E-07  0.124E-04    0.00      52.3  T
  14   -423.9011739 -0.828834E-08  0.338E-05    0.00     190.7  T
     SCC iter.                  ...        0 min,  4.053 sec
     gradient                   ...        0 min,  0.947 sec
 * total energy  :  -417.0957477 Eh     change       -0.4115483E-02 Eh
   gradient norm :     0.0092825 Eh/α   predicted    -0.3760553E-02 (  -8.62%)
   displ. norm   :     0.7723543 α      lambda       -0.4086144E-02
   maximum displ.:     0.5931988 α      in ANC's #20, #38, #29, ...

........................................................................
.............................. CYCLE   36 ..............................
........................................................................
   1   -423.9137962 -0.423914E+03  0.564E-02    0.00       0.0  T
   2   -423.5366600  0.377136E+00  0.784E-01    0.28       1.0  T
   3   -423.9154207 -0.378761E+00  0.191E-02    0.00       1.0  T
   4   -423.8845835  0.308372E-01  0.214E-01    0.01       1.0  T
   5   -423.9148710 -0.302875E-01  0.368E-02    0.00       1.0  T
   6   -423.9155524 -0.681435E-03  0.136E-02    0.00       1.0  T
   7   -423.9155401  0.123232E-04  0.141E-02    0.00       1.0  T
   8   -423.9156586 -0.118535E-03  0.559E-04    0.00      11.5  T
   9   -423.9156424  0.162252E-04  0.518E-03    0.00       1.2  T
  10   -423.9156570 -0.146567E-04  0.171E-03    0.00       3.8  T
  11   -423.9156578 -0.801784E-06  0.122E-03    0.00       5.3  T
  12   -423.9156587 -0.819167E-06  0.357E-04    0.00      18.1  T
  13   -423.9156587 -0.262928E-07  0.287E-04    0.00      22.5  T
  14   -423.9156587 -0.452773E-07  0.782E-05    0.00      82.5  T
  15   -423.9156587 -0.248497E-08  0.431E-05    0.00     149.6  T
     SCC iter.                  ...        0 min,  5.013 sec
     gradient                   ...        0 min,  1.176 sec
 * total energy  :  -417.0996287 Eh     change       -0.3880954E-02 Eh
   gradient norm :     0.0075337 Eh/α   predicted    -0.3261819E-02 ( -15.95%)
   displ. norm   :     0.7542245 α      lambda       -0.3702911E-02
   maximum displ.:     0.5895310 α      in ANC's #20, #38, #29, ...

........................................................................
.............................. CYCLE   37 ..............................
........................................................................
   1   -423.9289098 -0.423929E+03  0.506E-02    0.00       0.0  T
   2   -423.5592329  0.369677E+00  0.776E-01    0.25       1.0  T
   3   -423.9296037 -0.370371E+00  0.374E-02    0.00       1.0  T
   4   -423.9232920  0.631175E-02  0.111E-01    0.01       1.0  T
   5   -423.9269416 -0.364958E-02  0.712E-02    0.01       1.0  T
[...]
rotational constants/cm⁻¹ :        0.5022507E-03   0.2338346E-04   0.2237714E-04

 * 243 selected distances

     #   Z          #   Z                                           value/Å
     2   6 C        3   6 C                                       1.3866837
     3   6 C        4   6 C                                       1.4348646
     4   6 C        5   6 C                                       1.3560820
     5   6 C        6   6 C                                       1.4377270
     3   6 C        7   7 N                                       1.3659164
     6   6 C        7   7 N                                       1.3652031
     6   6 C        8   6 C                                       1.3966737
     8   6 C        9   6 C                                       1.3957038
     9   6 C       10   6 C                                       1.4353819
    10   6 C       11   6 C                                       1.3572071
     9   6 C       12   7 N                                       1.3704057
    11   6 C       13   6 C                                       1.4320775
    12   7 N       13   6 C                                       1.3609256
    13   6 C       14   6 C                                       1.4064610
    14   6 C       15   6 C                                       1.4064289
    15   6 C       16   6 C                                       1.4320289
    16   6 C       17   6 C                                       1.3572176
    17   6 C       18   6 C                                       1.4354125
    18   6 C       19   6 C                                       1.3958221
    20   6 C       21   6 C                                       1.3953722
    21   6 C       22   6 C                                       1.3868376
    22   6 C       23   6 C                                       1.3882577
    23   6 C       24   6 C                                       1.3882470
    20   6 C       25   6 C                                       1.3952349
    24   6 C       25   6 C                                       1.3868924
    19   6 C       26   6 C                                       1.3967887
    26   6 C       27   6 C                                       1.4377572 (max)
    27   6 C       28   6 C                                       1.3560782
     2   6 C       29   6 C                                       1.3866929
    28   6 C       29   6 C                                       1.4348292
    26   6 C       30   7 N                                       1.3652202
    29   6 C       30   7 N                                       1.3659444
    15   6 C       31   7 N                                       1.3609619
    18   6 C       31   7 N                                       1.3704046
    32   6 C       33   6 C                                       1.3953068
    33   6 C       34   6 C                                       1.3868465
    34   6 C       35   6 C                                       1.3882531
    35   6 C       36   6 C                                       1.3882402
    32   6 C       37   6 C                                       1.3951578
    36   6 C       37   6 C                                       1.3869150
     2   6 C       38   1 H                                       1.0851609
     4   6 C       39   1 H                                       1.0787022
     5   6 C       40   1 H                                       1.0781517
    10   6 C       41   1 H                                       1.0779933
    11   6 C       42   1 H                                       1.0782828
    16   6 C       43   1 H                                       1.0782875
    17   6 C       44   1 H                                       1.0779873
    21   6 C       45   1 H                                       1.0844019
    22   6 C       46   1 H                                       1.0844177
    23   6 C       47   1 H                                       1.0841204
    24   6 C       48   1 H                                       1.0844012
    25   6 C       49   1 H                                       1.0843717
    27   6 C       50   1 H                                       1.0781411
    28   6 C       51   1 H                                       1.0787007
    33   6 C       52   1 H                                       1.0843981
    34   6 C       53   1 H                                       1.0844118
    35   6 C       54   1 H                                       1.0841216
    36   6 C       55   1 H                                       1.0843981
    37   6 C       56   1 H                                       1.0843644
    58   6 C       59   6 C                                       1.3866842
    59   6 C       60   6 C                                       1.4348657
    60   6 C       61   6 C                                       1.3560811
    61   6 C       62   6 C                                       1.4377273
    59   6 C       63   7 N                                       1.3659152
    62   6 C       63   7 N                                       1.3652063
    62   6 C       64   6 C                                       1.3966690
    64   6 C       65   6 C                                       1.3956998
    65   6 C       66   6 C                                       1.4353817
    66   6 C       67   6 C                                       1.3572090
    65   6 C       68   7 N                                       1.3703998
    67   6 C       69   6 C                                       1.4320752
    68   7 N       69   6 C                                       1.3609258
    69   6 C       70   6 C                                       1.4064544
    70   6 C       71   6 C                                       1.4064366
    71   6 C       72   6 C                                       1.4320337
    72   6 C       73   6 C                                       1.3572174
    73   6 C       74   6 C                                       1.4354113
    74   6 C       75   6 C                                       1.3958252
    76   6 C       77   6 C                                       1.3953685
    77   6 C       78   6 C                                       1.3868402
    78   6 C       79   6 C                                       1.3882574
    79   6 C       80   6 C                                       1.3882474
    76   6 C       81   6 C                                       1.3952389
    80   6 C       81   6 C                                       1.3868903
    75   6 C       82   6 C                                       1.3967849
    82   6 C       83   6 C                                       1.4377567
    83   6 C       84   6 C                                       1.3560782
    58   6 C       85   6 C                                       1.3866941
    84   6 C       85   6 C                                       1.4348302
    82   6 C       86   7 N                                       1.3652249
    85   6 C       86   7 N                                       1.3659433
    71   6 C       87   7 N                                       1.3609638
    74   6 C       87   7 N                                       1.3704015
    88   6 C       89   6 C                                       1.3953003
    89   6 C       90   6 C                                       1.3868479
    90   6 C       91   6 C                                       1.3882520
    91   6 C       92   6 C                                       1.3882388
    88   6 C       93   6 C                                       1.3951554
    92   6 C       93   6 C                                       1.3869149
    58   6 C       94   1 H                                       1.0851608
    60   6 C       95   1 H                                       1.0787020
    61   6 C       96   1 H                                       1.0781517
    66   6 C       97   1 H                                       1.0779947
    67   6 C       98   1 H                                       1.0782834
    72   6 C       99   1 H                                       1.0782867
    73   6 C      100   1 H                                       1.0779874
    77   6 C      101   1 H                                       1.0844011
    78   6 C      102   1 H                                       1.0844176
    79   6 C      103   1 H                                       1.0841203
    80   6 C      104   1 H                                       1.0844014
    81   6 C      105   1 H                                       1.0843723
    83   6 C      106   1 H                                       1.0781408
    84   6 C      107   1 H                                       1.0787009
    89   6 C      108   1 H                                       1.0843982
    90   6 C      109   1 H                                       1.0844135
    91   6 C      110   1 H                                       1.0841211
    92   6 C      111   1 H                                       1.0843983
    93   6 C      112   1 H                                       1.0843664
   113   6 C      114   6 C                                       1.2284949
   115   6 C      116   6 C                                       1.2239878
   117   6 C      118   6 C                                       1.2242579
   119   6 C      120   6 C                                       1.2288392
   121   6 C      122   6 C                                       1.2244245
   123   6 C      124   6 C                                       1.2244252
   125   6 C      126   6 C                                       1.2284052
   127   6 C      128   6 C                                       1.2242830
   129   6 C      130   6 C                                       1.2240545
   132   6 C      133   6 C                                       1.4069145
   133   6 C      134   6 C                                       1.4317341
   134   6 C      135   6 C                                       1.3575255
   135   6 C      136   6 C                                       1.4350887
   133   6 C      137   7 N                                       1.3605100
   136   6 C      137   7 N                                       1.3697164
   136   6 C      138   6 C                                       1.3963384
   138   6 C      139   6 C                                       1.3963099
   139   6 C      140   6 C                                       1.4350478
   140   6 C      141   6 C                                       1.3575555
   139   6 C      142   7 N                                       1.3698342
   141   6 C      143   6 C                                       1.4317449
   142   7 N      143   6 C                                       1.3605128
   143   6 C      144   6 C                                       1.4071201
   144   6 C      145   6 C                                       1.4070989
   145   6 C      146   6 C                                       1.4317549
   146   6 C      147   6 C                                       1.3575594
   147   6 C      148   6 C                                       1.4350530
   148   6 C      149   6 C                                       1.3962906
   150   6 C      151   6 C                                       1.3953803
   151   6 C      152   6 C                                       1.3868028
   152   6 C      153   6 C                                       1.3882684
   153   6 C      154   6 C                                       1.3882615
   150   6 C      155   6 C                                       1.3953408
   154   6 C      155   6 C                                       1.3868237
   149   6 C      156   6 C                                       1.3963336
   156   6 C      157   6 C                                       1.4351000
   157   6 C      158   6 C                                       1.3575359
   132   6 C      159   6 C                                       1.4068744
   158   6 C      159   6 C                                       1.4317388
   156   6 C      160   7 N                                       1.3697075
   159   6 C      160   7 N                                       1.3605255
   145   6 C      161   7 N                                       1.3605172
   148   6 C      161   7 N                                       1.3698282
   162   6 C      163   6 C                                       1.3953961
   163   6 C      164   6 C                                       1.3867991
   164   6 C      165   6 C                                       1.3882684
   165   6 C      166   6 C                                       1.3882643
   162   6 C      167   6 C                                       1.3953614
   166   6 C      167   6 C                                       1.3868140
   134   6 C      168   1 H                                       1.0782880
   135   6 C      169   1 H                                       1.0779660 (min)
   140   6 C      170   1 H                                       1.0779722
   141   6 C      171   1 H                                       1.0782838
   146   6 C      172   1 H                                       1.0782879
   147   6 C      173   1 H                                       1.0779767
   151   6 C      174   1 H                                       1.0843725
   152   6 C      175   1 H                                       1.0843978
   153   6 C      176   1 H                                       1.0841190
   154   6 C      177   1 H                                       1.0843940
   155   6 C      178   1 H                                       1.0843664
   157   6 C      179   1 H                                       1.0779700
   158   6 C      180   1 H                                       1.0782927
   163   6 C      181   1 H                                       1.0843729
   164   6 C      182   1 H                                       1.0843976
   165   6 C      183   1 H                                       1.0841177
   166   6 C      184   1 H                                       1.0843939
   167   6 C      185   1 H                                       1.0843679
   187   6 C      188   6 C                                       1.4071017
   188   6 C      189   6 C                                       1.4317570
   189   6 C      190   6 C                                       1.3575571
   190   6 C      191   6 C                                       1.4350493
   188   6 C      192   7 N                                       1.3605143
   191   6 C      192   7 N                                       1.3698305
   191   6 C      193   6 C                                       1.3962793
   193   6 C      194   6 C                                       1.3963186
   194   6 C      195   6 C                                       1.4350956
   195   6 C      196   6 C                                       1.3575329
   194   6 C      197   7 N                                       1.3697027
   196   6 C      198   6 C                                       1.4317381
   197   7 N      198   6 C                                       1.3605194
   198   6 C      199   6 C                                       1.4068673
   199   6 C      200   6 C                                       1.4069282
   200   6 C      201   6 C                                       1.4317362
   201   6 C      202   6 C                                       1.3575305
   202   6 C      203   6 C                                       1.4350903
   203   6 C      204   6 C                                       1.3963490
   205   6 C      206   6 C                                       1.3953620
   206   6 C      207   6 C                                       1.3868156
   207   6 C      208   6 C                                       1.3882640
   208   6 C      209   6 C                                       1.3882691
   205   6 C      210   6 C                                       1.3953971
   209   6 C      210   6 C                                       1.3867994
   204   6 C      211   6 C                                       1.3963128
   211   6 C      212   6 C                                       1.4350496
   212   6 C      213   6 C                                       1.3575587
   187   6 C      214   6 C                                       1.4071191
   213   6 C      214   6 C                                       1.4317456
   211   6 C      215   7 N                                       1.3698329
   214   6 C      215   7 N                                       1.3605155
   200   6 C      216   7 N                                       1.3605194
   203   6 C      216   7 N                                       1.3697193
   217   6 C      218   6 C                                       1.3953337
   218   6 C      219   6 C                                       1.3868251
   219   6 C      220   6 C                                       1.3882620
   220   6 C      221   6 C                                       1.3882683
   217   6 C      222   6 C                                       1.3953763
   221   6 C      222   6 C                                       1.3868014
   189   6 C      223   1 H                                       1.0782870
   190   6 C      224   1 H                                       1.0779762
   195   6 C      225   1 H                                       1.0779705
   196   6 C      226   1 H                                       1.0782929
   201   6 C      227   1 H                                       1.0782868
   202   6 C      228   1 H                                       1.0779662
   206   6 C      229   1 H                                       1.0843680
   207   6 C      230   1 H                                       1.0843944
   208   6 C      231   1 H                                       1.0841177
   209   6 C      232   1 H                                       1.0843979
   210   6 C      233   1 H                                       1.0843727
   212   6 C      234   1 H                                       1.0779733
   213   6 C      235   1 H                                       1.0782851
   218   6 C      236   1 H                                       1.0843664
   219   6 C      237   1 H                                       1.0843938
   220   6 C      238   1 H                                       1.0841184
   221   6 C      239   1 H                                       1.0843977
   222   6 C      240   1 H                                       1.0843729

 * 3 distinct bonds (by element types)

   Z      Z             #   av. dist./Å        max./Å        min./Å
   1 H    6 C          74     1.0817069     1.0851609     1.0779660
   6 C    6 C         137     1.3878475     1.4377572     1.2239878
   6 C    7 N          32     1.3653834     1.3704057     1.3605100


optimized geometry written to: xtbopt.xyz


           -------------------------------------------------
          | TOTAL ENERGY             -417.152281163483 Eh   |
          | GRADIENT NORM               0.000448526990 Eh/α |
          | HOMO-LUMO GAP               0.000016419153 eV   |
           -------------------------------------------------

------------------------------------------------------------------------
 * finished run on 2022/07/30 at 09:10:48.627     
------------------------------------------------------------------------
 total:
 * wall-time:     0 d,  0 h, 11 min, 31.300 sec
 *  cpu-time:     0 d,  0 h, 11 min, 27.201 sec
 * ratio c/w:     0.994 speedup
 SCF:
 * wall-time:     0 d,  0 h,  0 min, 26.916 sec
 *  cpu-time:     0 d,  0 h,  0 min, 26.757 sec
 * ratio c/w:     0.994 speedup
 ANC optimizer:
 * wall-time:     0 d,  0 h, 11 min,  3.998 sec
 *  cpu-time:     0 d,  0 h, 11 min,  0.064 sec
 * ratio c/w:     0.994 speedup

