240
 energy: -416.445988538264 gnorm: 0.578593107621 xtb: 6.5.1 (b24c23e)
Cu          37.52103600000000        0.06773600000000        0.01659900000000
C           34.18447299999999       -0.08833500000000        0.00618700000000
C           34.84858199999999       -1.24053900000000       -0.12164200000000
C           34.19890400000000       -2.53728000000000       -0.27203200000000
C           35.14073300000000       -3.46099300000000       -0.31942400000000
C           36.44556200000000       -2.79657200000000       -0.19995600000000
N           36.26727499999999       -1.38499300000000       -0.07952000000000
C           37.63576499999999       -3.42829800000000       -0.15477600000000
C           38.92939800000000       -2.71226100000000       -0.00430800000000
C           40.21994099999999       -3.38705900000000        0.18060300000000
C           41.15465699999999       -2.46058300000000        0.23839700000000
N           39.07001600000000       -1.42320600000000       -0.06427600000000
C           40.46952099999999       -1.18316900000000        0.08299600000000
C           41.06409500000000        0.01925900000000        0.01230700000000
C           40.30308099999999        1.27684200000000       -0.16660300000000
C           40.84004900000000        2.42191300000000       -0.56880700000000
C           39.79631400000000        3.42666400000000       -0.52674900000000
C           38.69029600000000        2.83021900000000       -0.09745600000000
C           37.40518800000000        3.53223200000000        0.15374700000000
C           37.42430800000000        5.00703300000000        0.31170800000000
C           36.76504400000000        5.83298500000000       -0.61454000000000
C           36.80374700000000        7.22309900000000       -0.46944300000000
C           37.50530200000000        7.79705800000000        0.59453300000000
C           38.17134500000000        6.98182400000000        1.51403100000000
C           38.13455100000000        5.59117100000000        1.37310800000000
C           36.24014000000000        2.86223000000000        0.24245000000000
C           34.92777999999999        3.44316600000000        0.52123300000000
C           34.06618800000000        2.44609400000000        0.46874900000000
C           34.81917000000000        1.22914500000000        0.17046600000000
N           36.08732100000000        1.45925300000000        0.03703300000000
N           38.92005500000000        1.44159200000000        0.14956700000000
C           37.67454600000000       -4.90320800000000       -0.24668400000000
C           37.57355700000000       -5.53535900000000       -1.49557900000000
C           37.61164999999999       -6.93060800000000       -1.58017200000000
C           37.75156600000000       -7.69914100000000       -0.42057200000000
C           37.85341400000000       -7.07355900000000        0.82567900000000
C           37.81503300000000       -5.67860800000000        0.91453100000000
H           33.10107100000000       -0.11693500000000        0.00319800000000
H           33.13457700000000       -2.72699700000000       -0.32655600000000
H           34.95529900000000       -4.52285900000000       -0.41720900000000
H           40.39736000000000       -4.45190900000000        0.25270800000000
H           42.21332699999999       -2.64506700000000        0.36324900000000
H           41.86938900000000        2.58959500000000       -0.85596800000000
H           39.90916400000000        4.47330700000000       -0.77816800000000
H           36.22618499999999        5.39967400000000       -1.44822100000000
H           36.29247500000000        7.85553800000000       -1.18359600000000
H           37.53520200000000        8.87332700000000        0.70482700000000
H           38.71714599999999        7.42758500000000        2.33550300000000
H           38.65564000000000        4.96927800000000        2.09072700000000
H           34.68293599999999        4.47537500000000        0.73417100000000
H           32.99891200000000        2.52756200000000        0.62762400000000
H           37.46548300000000       -4.94781000000000       -2.39903900000000
H           37.53308600000000       -7.41607100000000       -2.54429400000000
H           37.78120400000000       -8.77896000000000       -0.48771000000000
H           37.96201100000000       -7.66956800000000        1.72253600000000
H           37.89467000000000       -5.20232300000000        1.88404000000000
Cu          89.42314399999999       -0.02935900000000        0.01449000000000
C           92.75970700000001        0.12701600000000        0.01086400000000
C           92.09559800000000        1.28368400000000       -0.06681300000000
C           92.74527600000000        2.58573300000000       -0.16075400000000
C           91.80344700000001        3.51063200000000       -0.16799200000000
C           90.49861799999999        2.84165000000000       -0.07748700000000
N           90.67690500000000        1.42617300000000       -0.01845800000000
C           89.30841500000000        3.47081900000000       -0.00491900000000
C           88.01478200000000        2.74892300000000        0.11431500000000
C           86.72423899999998        3.41505600000000        0.32835300000000
C           85.78952300000000        2.48694400000000        0.34586300000000
N           87.87416399999998        1.46368800000000       -0.00157000000000
C           86.47465900000000        1.21748300000000        0.13514100000000
C           85.88008499999999        0.01925900000000        0.01230700000000
C           86.64109900000000       -1.22937000000000       -0.22104100000000
C           86.10413100000000       -2.35589600000000       -0.67258700000000
C           87.14786599999999       -3.36152600000000       -0.67419700000000
C           88.25388400000000       -2.78428400000000       -0.21940900000000
C           89.53899199999999       -3.49654300000000        0.00107400000000
C           89.51987200000001       -4.97681200000000        0.09484700000000
C           90.17913599999999       -5.76176500000000       -0.86639200000000
C           90.14043400000000       -7.15686800000000       -0.78179200000000
C           89.43887799999999       -7.77648600000000        0.25625700000000
C           88.77283499999999       -7.00194700000000        1.21028700000000
C           88.80962900000000       -5.60648700000000        1.12988100000000
C           90.70404000000001       -2.83102400000000        0.11878600000000
C           92.01640000000000       -3.42351800000000        0.37208100000000
C           92.87799199999999       -2.42510700000000        0.36294100000000
C           92.12500999999999       -1.19635400000000        0.11778100000000
N           90.85685899999999       -1.42045100000000       -0.02551700000000
N           88.02412500000000       -1.40769300000000        0.08767800000000
C           89.26963400000000        4.94832800000000       -0.03269700000000
C           89.37062299999999        5.63411300000000       -1.25296500000000
C           89.33253000000001        7.03171900000000       -1.27689300000000
C           89.19261400000001        7.74917500000000       -0.08501600000000
C           89.09076599999999        7.07006800000000        1.13289500000000
C           89.12914699999999        5.67257500000000        1.16109200000000
H           93.84310899999998        0.15571900000000        0.00912000000000
H           93.80960300000000        2.77763800000000       -0.20698800000000
H           91.98888100000001        4.57574300000000       -0.21957600000000
H           86.54681999999998        4.47577100000000        0.44662800000000
H           84.73085300000000        2.66583300000000        0.47860800000000
H           85.07479100000000       -2.51095100000000       -0.96675800000000
H           87.03501599999998       -4.39626400000000       -0.97082500000000
H           90.71799500000000       -5.29266300000000       -1.68047100000000
H           90.65170499999999       -7.75770100000000       -1.52273400000000
H           89.40897800000000       -8.85652900000000        0.31971400000000
H           88.22703400000000       -7.48295700000000        2.01162800000000
H           88.28853999999998       -5.01634000000000        1.87382700000000
H           92.26124400000000       -4.46399900000000        0.53999700000000
H           93.94526800000000       -2.51339700000000        0.51812900000000
H           89.47869699999998        5.08634800000000       -2.18108500000000
H           89.41109400000001        7.55858800000000       -2.21902700000000
H           89.16297600000000        8.83089000000000       -0.10520300000000
H           88.98216900000000        7.62657200000000        2.05478600000000
H           89.04951000000000        5.15464100000000        2.10900600000000
C           47.67914000000000        0.02012900000000        0.02086100000000
C           46.47020100000000        0.00667400000000        0.01241400000000
C           45.04867200000000        0.01549300000000        0.00043100000000
C           43.83700200000000        0.02293200000000        0.01129400000000
C           49.09574499999999        0.01345400000000        0.02139500000000
C           50.31644000000000        0.02293200000000        0.01129400000000
C           64.07584900000001        0.02012900000000        0.02086100000000
C           62.86691000000000        0.00667400000000        0.01241400000000
C           61.44538100000000        0.01549300000000        0.00043100000000
C           60.23371100000000        0.02293200000000        0.01129400000000
C           65.49245300000000        0.01345400000000        0.02139500000000
C           66.71314900000000        0.02293200000000        0.01129400000000
C           80.47255800000001        0.02012900000000        0.02086100000000
C           79.26361899999999        0.00667400000000        0.01241400000000
C           77.84209000000000        0.01549300000000        0.00043100000000
C           76.63042000000000        0.02293200000000        0.01129400000000
C           81.88916199999998        0.01345400000000        0.02139500000000
C           83.10985800000000        0.02293200000000        0.01129400000000
Cu          55.20006800000000        0.07359700000000        0.02717800000000
C           51.82586000000000       -0.02336100000000       -0.01437900000000
C           52.48468099999999       -1.19643300000000       -0.01918800000000
C           51.83923400000000       -2.51112200000000       -0.00726600000000
C           52.77897900000000       -3.43380500000000       -0.01554500000000
C           54.08264300000000       -2.76388700000000       -0.03693500000000
N           53.90670800000000       -1.34536600000000       -0.03601500000000
C           55.26917399999999       -3.40313500000000       -0.05537900000000
C           56.57829599999999       -2.70704400000000       -0.08105800000000
C           57.86325799999999       -3.41063600000000       -0.17908600000000
C           58.81790400000000       -2.50644100000000       -0.17338200000000
N           56.73921400000000       -1.42029600000000       -0.01709200000000
C           58.15176500000000       -1.21307200000000       -0.06959200000000
C           58.77383100000000       -0.02336100000000       -0.01437900000000
C           58.04950299999999        1.26499400000000        0.09975300000000
C           58.65024900000000        2.43741100000000        0.25416500000000
C           57.61968000000000        3.45023900000000        0.29376000000000
C           56.45027600000000        2.83665300000000        0.15398700000000
C           55.14346500000000        3.54605600000000        0.11792400000000
C           55.15262800000000        5.02822500000000        0.14057300000000
C           54.78499400000000        5.72072600000000        1.30562800000000
C           54.80904400000000        7.11853200000000        1.32908600000000
C           55.20576000000000        7.83063700000000        0.19298100000000
C           55.57616199999999        7.14627700000000       -0.96857900000000
C           55.55196100000000        5.74816900000000       -0.99656700000000
C           53.96136500000000        2.90099800000000        0.06532700000000
C           52.65270699999999        3.54470600000000        0.00002700000000
C           51.76701899999999        2.57333800000000       -0.04120600000000
C           52.49531500000000        1.30047100000000       -0.00421900000000
N           53.78008100000000        1.48350700000000        0.05673000000000
N           56.62927400000000        1.42369400000000        0.02955000000000
C           55.29095500000000       -4.88178000000000       -0.06148600000000
C           55.15029100000000       -5.58530100000000       -1.26788000000000
C           55.18795100000000       -6.98299200000000       -1.27220800000000
C           55.36710799999999       -7.68265200000000       -0.07509100000000
C           55.50751499999999       -6.98542500000000        1.12890500000000
C           55.47207800000000       -5.58782300000000        1.13718700000000
H           50.77895599999999       -2.72515500000000        0.00908300000000
H           52.59267199999999       -4.50012600000000       -0.00476900000000
H           58.01976300000000       -4.47862400000000       -0.24941900000000
H           59.87704699999999       -2.71660600000000       -0.23617200000000
H           59.71300800000000        2.62132200000000        0.33180500000000
H           57.78543600000000        4.51226900000000        0.40795800000000
H           54.48466400000000        5.17794400000000        2.19290600000000
H           54.52342399999999        7.65031600000000        2.22829600000000
H           55.22624299999999        8.91229300000000        0.21450500000000
H           55.88559299999999        7.69863700000000       -1.84645400000000
H           55.84564000000000        5.22676900000000       -1.89941100000000
H           52.42545900000000        4.60326400000000       -0.01797400000000
H           50.69688100000000        2.71867400000000       -0.09590600000000
H           55.01502599999999       -5.05123500000000       -2.20007400000000
H           55.08076199999999       -7.52403300000000       -2.20341600000000
H           55.39789900000000       -8.76412400000000       -0.07996600000000
H           55.64625500000000       -7.52889700000000        2.05481500000000
H           55.58550600000000       -5.05523800000000        2.07313800000000
Cu          71.59677700000000        0.07359700000000        0.02717800000000
C           68.22256899999999       -0.02336100000000       -0.01437900000000
C           68.88139000000000       -1.19643300000000       -0.01918800000000
C           68.23594199999999       -2.51112200000000       -0.00726600000000
C           69.17568799999999       -3.43380500000000       -0.01554500000000
C           70.47935200000001       -2.76388700000000       -0.03693500000000
N           70.30341700000000       -1.34536600000000       -0.03601500000000
C           71.66588299999999       -3.40313500000000       -0.05537900000000
C           72.97500500000000       -2.70704400000000       -0.08105800000000
C           74.25996700000000       -3.41063600000000       -0.17908600000000
C           75.21461300000000       -2.50644100000000       -0.17338200000000
N           73.13592300000001       -1.42029600000000       -0.01709200000000
C           74.54847400000000       -1.21307200000000       -0.06959200000000
C           75.17054000000000       -0.02336100000000       -0.01437900000000
C           74.44621200000000        1.26499400000000        0.09975300000000
C           75.04695800000000        2.43741100000000        0.25416500000000
C           74.01638899999999        3.45023900000000        0.29376000000000
C           72.84698500000000        2.83665300000000        0.15398700000000
C           71.54017399999999        3.54605600000000        0.11792400000000
C           71.54933699999998        5.02822500000000        0.14057300000000
C           71.18170300000000        5.72072600000000        1.30562800000000
C           71.20575300000000        7.11853200000000        1.32908600000000
C           71.60246899999999        7.83063700000000        0.19298100000000
C           71.97287100000000        7.14627700000000       -0.96857900000000
C           71.94867000000001        5.74816900000000       -0.99656700000000
C           70.35807400000000        2.90099800000000        0.06532700000000
C           69.04941500000000        3.54470600000000        0.00002700000000
C           68.16372800000001        2.57333800000000       -0.04120600000000
C           68.89202400000001        1.30047100000000       -0.00421900000000
N           70.17678900000000        1.48350700000000        0.05673000000000
N           73.02598300000000        1.42369400000000        0.02955000000000
C           71.68766399999998       -4.88178000000000       -0.06148600000000
C           71.54700000000000       -5.58530100000000       -1.26788000000000
C           71.58466000000000       -6.98299200000000       -1.27220800000000
C           71.76381700000000       -7.68265200000000       -0.07509100000000
C           71.90422400000000       -6.98542500000000        1.12890500000000
C           71.86878700000000       -5.58782300000000        1.13718700000000
H           67.17566500000000       -2.72515500000000        0.00908300000000
H           68.98938099999998       -4.50012600000000       -0.00476900000000
H           74.41647199999998       -4.47862400000000       -0.24941900000000
H           76.27375600000001       -2.71660600000000       -0.23617200000000
H           76.10971700000000        2.62132200000000        0.33180500000000
H           74.18214499999999        4.51226900000000        0.40795800000000
H           70.88137299999998        5.17794400000000        2.19290600000000
H           70.92013300000001        7.65031600000000        2.22829600000000
H           71.62295200000000        8.91229300000000        0.21450500000000
H           72.28230200000000        7.69863700000000       -1.84645400000000
H           72.24234899999999        5.22676900000000       -1.89941100000000
H           68.82216800000000        4.60326400000000       -0.01797400000000
H           67.09359000000001        2.71867400000000       -0.09590600000000
H           71.41173499999999       -5.05123500000000       -2.20007400000000
H           71.47747099999999       -7.52403300000000       -2.20341600000000
H           71.79460799999998       -8.76412400000000       -0.07996600000000
H           72.04296400000000       -7.52889700000000        2.05481500000000
H           71.98221500000000       -5.05523800000000        2.07313800000000
240
 energy: -416.593755387979 gnorm: 0.327835016644 xtb: 6.5.1 (b24c23e)
Cu          37.53347578958944        0.05554891839873        0.01265745339084
C           34.18353942600235       -0.06810560794442        0.00850785531459
C           34.85337071784750       -1.23953782856780       -0.12175415586162
C           34.20043046235185       -2.52845991508556       -0.27121932223376
C           35.15459947117260       -3.46195295245630       -0.31964963131874
C           36.44704231943820       -2.79044809686991       -0.20053700693971
N           36.24505568536214       -1.40380315427139       -0.07716805101145
C           37.65359356467255       -3.42432269099883       -0.15300250952382
C           38.92320812090125       -2.73071844455113       -0.00611609059308
C           40.20408310374754       -3.39871028864892        0.17722661659905
C           41.15100541970923       -2.44995329101230        0.23839910343080
N           39.08200883433206       -1.42251709059757       -0.06126271231761
C           40.47900458907446       -1.17354136220360        0.08475483894624
C           41.05294146767142        0.04108745647827        0.00695550318685
C           40.29867961292974        1.26505076489576       -0.15642834512108
C           40.84422436394903        2.44786470252522       -0.57163882264534
C           39.82297898669613        3.43033610027548       -0.52797671556057
C           38.68300036538444        2.81795303616749       -0.08627989524943
C           37.42419151551401        3.52080741785495        0.15368491573788
C           37.43739062664199        5.00371834971027        0.30506422216874
C           36.76810126040807        5.83191293249123       -0.60825556397548
C           36.80638438325656        7.21709427859857       -0.46435399179116
C           37.50513435366647        7.79104758124593        0.59396303657644
C           38.16730211126088        6.97777934343827        1.50930565869499
C           38.13548492343239        5.59300026050482        1.36672851762191
C           36.24176744269712        2.85897000158516        0.24422901194914
C           34.93777283662387        3.43876326898702        0.51853245979820
C           34.05428198987959        2.43078001025016        0.46681042173453
C           34.79586279234574        1.21928621326917        0.16891652731721
N           36.08668802535596        1.46750930568303        0.04351985538093
N           38.92524550129449        1.44587738072320        0.14668443646566
C           37.68215290743219       -4.90684875326570       -0.24627995872218
C           37.57403372714516       -5.53893731803853       -1.48981882522933
C           37.61152223998695       -6.92801203423691       -1.57416195242210
C           37.75144956443761       -7.69417800549149       -0.42023485613051
C           37.85268568592001       -7.07084657836886        0.82046317343789
C           37.81723450586082       -5.68237127356744        0.90939579540412
H           33.10083467429711       -0.10633597538534        0.00583816714655
H           33.13601940968838       -2.71293113409363       -0.32577736276968
H           34.97390723698288       -4.52343998972365       -0.41711085943614
H           40.38215245259192       -4.45957694665579        0.25119748579370
H           42.21039871183775       -2.62690643539437        0.36234509847112
H           41.87129769657301        2.59980547448705       -0.85898882793152
H           39.91978448554640        4.47413099382597       -0.78144730378495
H           36.22924793355023        5.39812967024023       -1.44443489300128
H           36.29429018185809        7.85139711918243       -1.18111648802872
H           37.53513090368033        8.86993503625086        0.70429774708420
H           38.71479521758015        7.42477294186455        2.33280795570204
H           38.65396876535727        4.96943055294909        2.08729709701568
H           34.70023321117457        4.47248248253417        0.73153174706031
H           32.99173187057043        2.51499409659431        0.62607932850757
H           37.46636722685989       -4.94821753582883       -2.39405198435438
H           37.53323648441356       -7.41393022334720       -2.54115677828525
H           37.78115816319792       -8.77627242094699       -0.48762090795765
H           37.96135929853149       -7.66760436555599        1.71990553937820
H           37.89449916051136       -5.20272761356608        1.87979079332251
Cu          89.41068666845912       -0.01696210534583        0.01103454542354
C           92.76064407991974        0.10670244140432        0.01230065194634
C           92.09080716173398        1.28267663167865       -0.06696865576124
C           92.74374291231655        2.57687145163196       -0.16032184390463
C           91.78957363608355        3.51158882268839       -0.16818406743513
C           90.49713527424743        2.83556182983061       -0.07833137996535
N           90.69910307857228        1.44483676609971       -0.01525870417761
C           89.29062264648796        3.46681597744153       -0.00331599372251
C           88.02104179556807        2.76751875883090        0.11329217313367
C           86.74013077887327        3.42684842588287        0.32546187762637
C           85.79325603231328        2.47628302375977        0.34543243059409
N           87.86239911783510        1.46295628412139        0.00137242204047
C           86.46544688261808        1.20783023503823        0.13653318705394
C           85.89190816074951       -0.00224140711018        0.00610282720236
C           86.64574073906664       -1.21805764509618       -0.21039662348809
C           86.10001056672068       -2.38167541396938       -0.67653555336750
C           87.12122069600990       -3.36514527125709       -0.67558990769450
C           88.26122759876191       -2.77254833870576       -0.20773120687246
C           89.51999847316405       -3.48514425819152        0.00151124298479
C           89.50679508056706       -4.97322080088798        0.08835444035183
C           90.17608112303689       -5.76097077796496       -0.86006805523367
C           90.13779675664367       -7.15109255111127       -0.77644820142229
C           89.43904582757509       -7.77045739317380        0.25594869549041
C           88.77687743529431       -6.99770250395171        1.20574186881716
C           88.80869544228777       -5.60803975409371        1.12342855125974
C           90.70240703102233       -2.82783588687303        0.12071079130152
C           92.00639680724893       -3.41899210965938        0.36956809943405
C           92.88988695182290       -2.40970768660736        0.36167429002984
C           92.14830969614631       -1.18642525080039        0.11666397625263
N           90.85746321493619       -1.42895160233092       -0.01940704816343
N           88.01906936696791       -1.41190699042501        0.08469222275451
C           89.26204341307240        4.95197222543856       -0.03213056084930
C           89.37015006479527        5.63744335136899       -1.24705701387481
C           89.33265800390141        7.02886795374969       -1.27100180868072
C           89.19273153128161        7.74420320644208       -0.08489410294379
C           89.09149424518837        7.06758944338654        1.12756839102441
C           89.12694769304498        5.67656578419226        1.15613109757420
H           93.84334685764432        0.14501490539679        0.01129810982076
H           93.80815480672470        2.76354405989221       -0.20682135228224
H           91.97026800961139        4.57630944871793       -0.21945337026879
H           86.56202424226150        4.48349212754693        0.44544516629453
H           84.73382202175291        2.64765610303079        0.47690308047294
H           85.07292099527525       -2.52098850040661       -0.97022138297169
H           87.02439043255804       -4.39694944744220       -0.97413101018290
H           90.71493286716610       -5.29128544519055       -1.67662214232304
H           90.64989025151834       -7.75367326857309       -1.52007766655917
H           89.40904901415924       -8.85311787819481        0.31933249353991
H           88.22938437367786       -7.48003136872933        2.00905796628613
H           88.29021201133642       -5.01634398923536        1.87039311773691
H           92.24394155553122       -4.46098676187118        0.53748396511899
H           93.95244024578390       -2.50076626237674        0.51712975946025
H           89.47781239892595        5.08653865132187       -2.17608513126135
H           89.41094201651386        7.55631309053535       -2.21598590190687
H           89.16302051083426        8.82820116436901       -0.10523070418379
H           88.98281890204875        7.62472566866759        2.05207372536743
H           89.04968013584866        5.15523133855729        2.10477970750023
C           47.69237746542639        0.01943436800544        0.02091749034865
C           46.46068745802579        0.00765828609575        0.01234963952580
C           45.05234342817653        0.01563836125780        0.00156125584492
C           43.82747899670910        0.02277147120773        0.01109562173385
C           49.09314898923570        0.01138611487740        0.01879199230861
C           50.32146299558126        0.02337753572135        0.00995124732751
C           64.08952618689237        0.01993503576097        0.02076258080195
C           62.85774951581293        0.00818709494218        0.01336897586239
C           61.45693546277619        0.01462206121979        0.00034805212131
C           60.22881222080937        0.03260304833704        0.00825625452805
C           65.49009133707912        0.01133261080172        0.01873005268539
C           66.71853637238011        0.02313501413357        0.00995788484724
C           80.48465518558763        0.02026531170500        0.02010265732880
C           79.25267462249067        0.00785323442994        0.01291525038931
C           77.85353788344140        0.01461192898804        0.00033129811604
C           76.62472687749721        0.03292210867619        0.00827088442350
C           81.88899958154877        0.01386525932881        0.02106704367289
C           83.11472061098574        0.02192583234408        0.01191285825084
Cu          55.20790745694562        0.06410925709332        0.02399750299014
C           51.79892225273242       -0.00108448802824       -0.01146779124266
C           52.47731095117376       -1.19404948938160       -0.01784887315195
C           51.83615915159465       -2.49961033269672       -0.00708717918935
C           52.79133097527077       -3.43325894408269       -0.01552814019436
C           54.08108974947161       -2.75507435489598       -0.03637220812269
N           53.87643094402962       -1.36175924991167       -0.03692634078781
C           55.28661034095456       -3.39782084227049       -0.05625101648011
C           56.56924133419333       -2.72707840512441       -0.08087817813637
C           57.84498985801591       -3.42513646575085       -0.17892586411356
C           58.81278085195402       -2.49881335524062       -0.17269324472020
N           56.75444229668357       -1.42045298492965       -0.01976159395840