187
 energy: -329.779381253956 gnorm: 3.694058454952 xtb: 6.5.1 (b24c23e)
Zn          31.66962900000000       -0.02113700000000        0.00244900000000
C           28.30787600000000        0.11397000000000       -0.11657500000000
C           28.97393599999999        1.26766200000000       -0.01614200000000
C           28.32411000000000        2.56926100000000        0.07778900000000
C           29.26421400000000        3.48348000000000        0.22301200000000
C           30.56955000000000        2.80841400000000        0.22397300000000
N           30.39217800000000        1.39984700000000        0.06913900000000
C           31.75896400000000        3.42075100000000        0.39702600000000
C           31.79529500000000        4.88769200000000        0.58956400000000
C           32.05015700000000        5.42540800000000        1.85921200000000
C           32.08890100000000        6.81060100000000        2.04235800000000
C           31.86855600000000        7.67608900000000        0.95671500000000
C           31.90188100000000        9.13961400000000        1.13057600000000
O           32.13623000000000        9.65591600000000        2.25582700000000
C           31.61247000000000        7.13418400000000       -0.31248500000000
C           31.57845400000000        5.74894300000000       -0.49601800000000
C           33.05470600000000        2.68983400000000        0.41371200000000
C           34.34948900000000        3.33167300000000        0.67241400000000
C           35.28364400000000        2.40837100000000        0.57957800000000
N           33.19340200000000        1.42342500000000        0.16256300000000
C           34.59534000000000        1.16631500000000        0.25085400000000
C           35.19145200000000       -0.01238100000000        0.00353100000000
C           34.43656500000000       -1.23583400000000       -0.35491300000000
C           34.99018600000000       -2.32427700000000       -0.87491000000000
C           33.94621900000000       -3.31922600000000       -1.00863100000000
C           32.82151500000000       -2.77555600000000       -0.55965300000000
N           33.04003500000000       -1.43110400000000       -0.12548900000000
C           31.52481400000000       -3.49574100000000       -0.47337900000000
C           31.53430200000000       -4.97576900000000       -0.54887900000000
C           30.97197100000000       -5.63496800000000       -1.65334400000000
C           31.00146900000000       -7.03023300000000       -1.73044100000000
C           31.59833600000000       -7.78483200000000       -0.70813300000000
C           31.62606100000000       -9.25541300000000       -0.80949400000000
O           32.20210400000000       -9.95677600000000        0.06304500000000
C           32.16603600000000       -7.12231100000000        0.39483500000000
C           32.13665200000000       -5.72694000000000        0.47088600000000
C           30.35657200000000       -2.84239000000000       -0.32970100000000
C           29.03487000000000       -3.45604700000000       -0.21253300000000
C           28.17442400000000       -2.46045200000000       -0.12707400000000
C           28.93733900000000       -1.21445000000000       -0.17702300000000
N           30.21080100000000       -1.42422000000000       -0.29517900000000
H           27.22460600000000        0.14678400000000       -0.13341400000000
H           27.26027100000000        2.76702800000000        0.05051600000000
H           29.07569800000000        4.54342300000000        0.33329200000000
H           32.21959500000000        4.77073500000000        2.70545100000000
H           32.28951800000000        7.20319000000000        3.03133500000000
H           31.72439100000000        9.78950700000000        0.28332400000000
H           31.43954700000000        7.78352000000000       -1.16212600000000
H           31.38143000000000        5.34610900000000       -1.48222500000000
H           34.53204000000000        4.37503800000000        0.89143200000000
H           36.34460600000000        2.57576700000000        0.70956600000000
H           36.03029900000000       -2.46117800000000       -1.13809600000000
H           34.07017900000000       -4.32432200000000       -1.38985100000000
H           30.51559700000000       -5.06707300000000       -2.45568800000000
H           30.56360000000000       -7.52082300000000       -2.59202300000000
H           31.15451900000000       -9.74828100000000       -1.64970900000000
H           32.63228200000000       -7.68138600000000        1.19717800000000
H           32.57980000000000       -5.23117200000000        1.32630200000000
H           28.78375900000000       -4.50857500000000       -0.19352700000000
H           27.10141500000000       -2.56252400000000       -0.02893800000000
Zn          59.28710000000000       -0.00355900000000        0.00370700000000
C           62.64885300000000       -0.12033900000000       -0.13334400000000
C           61.98279300000000       -1.27657600000000       -0.19822900000000
C           62.63261899999999       -2.57828500000000       -0.29061200000000
C           61.69251499999999       -3.50386800000000       -0.27706000000000
C           60.38717900000000       -2.83581800000000       -0.17997500000000
N           60.56455100000000       -1.41955800000000       -0.13264100000000
C           59.19776600000000       -3.46655900000000       -0.09588700000000
C           59.16143399999999       -4.94596800000000       -0.11421400000000
C           58.90657200000000       -5.65901000000000        1.06592000000000
C           58.86782800000000       -7.05616700000000        1.04993800000000
C           59.08817300000000       -7.75823100000000       -0.14789200000000
C           59.05484800000000       -9.23159900000000       -0.18421900000000
O           58.82049900000000       -9.90288200000000        0.85603900000000
C           59.34425900000000       -7.04110600000000       -1.32698500000000
C           59.37827500000000       -5.64384700000000       -1.31138000000000
C           57.90202299999999       -2.74546700000000        0.02471700000000
C           56.60724000000000       -3.41760600000000        0.18938000000000
C           55.67308600000000       -2.49049400000000        0.22897500000000
N           57.76332700000000       -1.45620000000000       -0.04352600000000
C           56.36138900000000       -1.21428400000000        0.08047900000000
C           55.76527700000000       -0.01238100000000        0.00353100000000
C           56.52016400000000        1.24964900000000       -0.17703200000000
C           55.96654299999999        2.40104900000000       -0.53672700000000
C           57.01051000000000        3.40490100000000       -0.52739700000000
C           58.13521399999999        2.80283500000000       -0.16041700000000
N           57.91669400000000        1.41025700000000        0.07786200000000
C           59.43191599999999        3.50339400000000        0.02753700000000
C           59.42242699999999        4.97908800000000        0.16357200000000
C           59.98475800000000        5.78885300000000       -0.83576200000000
C           59.95526099999999        7.18087600000000       -0.71337700000000
C           59.35839300000000        7.78220100000000        0.40597200000000
C           59.33066800000000        9.25222900000000        0.51506500000000
O           58.75462500000000        9.82218800000000        1.47859000000000
C           58.79069299999999        6.96936200000000        1.40335100000000
C           58.82007700000000        5.57738200000000        1.27991600000000
C           60.60015700000000        2.83624000000000        0.07670900000000
C           61.92185899999999        3.42695700000000        0.28007200000000
C           62.78230599999999        2.42934000000000        0.22288000000000
C           62.01938999999999        1.20315000000000       -0.00400000000000
N           60.74592800000000        1.42760700000000       -0.09107900000000
H           63.73212399999999       -0.15042200000000       -0.15468400000000
H           63.69645800000000       -2.77015300000000       -0.34577000000000
H           61.88103099999999       -4.56871200000000       -0.31884700000000
H           58.73713400000000       -5.13152000000000        1.99676500000000
H           58.66721200000000       -7.58559200000000        1.97292800000000
H           59.23233800000000       -9.75421400000000       -1.11538500000000
H           59.51718199999999       -7.56283000000000       -2.26043700000000
H           59.57529900000000       -5.10467500000000       -2.23016900000000
H           56.42468900000000       -4.48152700000000        0.25758400000000
H           54.61212400000000       -2.67469500000000        0.33380000000000
H           54.92643000000000        2.57403500000000       -0.77773500000000
H           56.88655000000000        4.45404200000000       -0.76159900000000
H           60.44113200000000        5.34100500000000       -1.71080000000000
H           60.39312900000000        7.78916200000000       -1.49631400000000
H           59.80221000000000        9.85972700000000       -0.24639900000000
H           58.32444700000000        7.40848000000000        2.27713200000000
H           58.37692900000000        4.96485000000000        2.05601400000000
H           62.17296999999999        4.46605100000000        0.44877100000000
H           63.85531400000000        2.51639600000000        0.33455100000000
C           38.31861700000000        0.00005600000000        0.00597300000000
C           37.06634600000000       -0.01912500000000        0.00162400000000
C           39.63228500000000       -0.00071000000000        0.00790500000000
C           41.13541800000000       -0.01912500000000        0.00162400000000
C           51.16358699999999        0.00005600000000        0.00597300000000
C           49.91131699999999       -0.01912500000000        0.00162400000000
C           52.47725499999999       -0.00071000000000        0.00790500000000
C           53.98038900000000       -0.01912500000000        0.00162400000000
Zn          45.46256500000000       -0.01592800000000        0.01410600000000
C           42.02033100000000        0.02777400000000       -0.00740200000000
C           42.67658300000000        1.16280200000000        0.30201300000000
C           42.03563300000000        2.45374400000000        0.56460000000000
C           42.97583800000000        3.32891100000000        0.86697400000000
C           44.27381300000000        2.64935600000000        0.82155000000000
N           44.09393799999999        1.27796900000000        0.45655400000000
C           45.45883200000000        3.23060000000000        1.10344600000000
C           45.49341099999999        4.64814500000000        1.52625300000000
C           45.99472500000000        5.62845000000000        0.65718500000000
C           46.03897000000000        6.96660200000000        1.05657700000000
C           45.58385500000000        7.34085700000000        2.33326500000000
C           45.60800300000000        8.74629300000000        2.77474000000000
O           46.07307200000000        9.64760300000000        2.03107400000000
C           45.09165800000000        6.35691500000000        3.20126000000000
C           45.04804700000000        5.01877000000000        2.80051600000000
C           46.75499100000000        2.51510300000000        1.01302200000000
C           48.02302699999999        3.05786000000000        1.51538300000000
C           48.97494700000000        2.19644800000000        1.22044000000000
N           46.92262100000000        1.36570400000000        0.43596700000000
C           48.32060400000000        1.09371400000000        0.52812400000000
C           48.93625300000000        0.02777400000000       -0.00740200000000
C           48.18766000000000       -1.05612200000000       -0.67610400000000
C           48.72070900000000       -1.92780200000000       -1.52174000000000
C           47.68903699999999       -2.89299800000000       -1.85083700000000
C           46.59700200000000       -2.54348900000000       -1.18322500000000
N           46.82209499999999       -1.36602200000000       -0.41029500000000
C           45.34184900000000       -3.33037100000000       -1.15794500000000
C           45.40344400000000       -4.76744700000000       -1.51346700000000
C           46.17055199999999       -5.64841800000000       -0.73682100000000
C           46.24284600000000       -7.00334900000000       -1.07186800000000
C           45.55433299999999       -7.49481700000000       -2.19220600000000
C           45.63839100000000       -8.92795400000000       -2.52302700000000
O           45.01838299999999       -9.40600600000000       -3.51184300000000
C           44.79554399999999       -6.60935200000000       -2.97816800000000
C           44.72347300000000       -5.25382100000000       -2.64215400000000
C           44.16865900000000       -2.77411700000000       -0.79884800000000
C           42.89173500000000       -3.46993200000000       -0.67629500000000
C           42.00071500000000       -2.55024700000000       -0.36230100000000
C           42.69820700000000       -1.26197100000000       -0.27605300000000
N           43.96573200000000       -1.38708800000000       -0.52698800000000
H           40.97888199999999        2.68522300000000        0.52168900000000
H           42.79162800000000        4.36955700000000        1.10138100000000
H           46.34835400000000        5.35480600000000       -0.32940900000000
H           46.42649500000000        7.70735500000000        0.36797700000000
H           45.21464099999999        9.01872700000000        3.75417300000000
H           44.74057899999999        6.62369000000000        4.18904700000000
H           44.66837300000000        4.27096800000000        3.48216200000000
H           48.17260100000000        3.99532100000000        2.03474100000000
H           50.02479600000000        2.31398700000000        1.45654300000000
H           49.74111100000000       -1.94206500000000       -1.87850300000000
H           47.80335600000000       -3.75843700000000       -2.48971000000000
H           46.70708700000000       -5.28603400000000        0.13201800000000
H           46.83568100000000       -7.66920900000000       -0.45525700000000
H           46.23823600000000       -9.59016900000000       -1.90998800000000
H           44.26265600000000       -6.96292800000000       -3.85243800000000
H           44.14079100000000       -4.58217700000000       -3.26196700000000
H           42.68958499999999       -4.52586600000000       -0.80326000000000
H           40.94825299999999       -2.73982900000000       -0.19504300000000
187
 energy: -330.796780769999 gnorm: 0.688606828124 xtb: 6.5.1 (b24c23e)
Zn          31.67104003160616       -0.02157593483459        0.00211951853960
C           28.30832190812849        0.10591040772865       -0.11704701678141
C           28.97825001513545        1.26965330307833       -0.01571171180316
C           28.32292068625895        2.56640785711495        0.07743726018626
C           29.26805617479804        3.48502324993339        0.22338186369825
C           30.56737042409945        2.80439074912732        0.22326057232884
N           30.38381713577085        1.40844339868704        0.06949291878057
C           31.76621985316829        3.41882899028362        0.39728911637241
C           31.79609735228427        4.88853705878155        0.58970068825836
C           32.05033254830505        5.42751699278697        1.85832904195896
C           32.08863929564637        6.80929870125457        2.04117346539072
C           31.86845470762594        7.67651766184346        0.95626977604702
C           31.90401454600498        9.14096659521665        1.14058801798268
O           32.13460863679313        9.65223087006896        2.24814383450330
C           31.61252107349948        7.13242853643827       -0.31192704172807
C           31.57840102923283        5.75033829207762       -0.49475561926248
C           33.05106940699488        2.69767041123037        0.41480897702139
C           34.34428660972964        3.33606110209157        0.67268270631744
C           35.28472249979492        2.40499268145440        0.57883691645265
N           33.19903516130884        1.42100376502237        0.16327002114208
C           34.59789592066583        1.16717764683716        0.25117367677807
C           35.20370418063965       -0.01773425188111        0.00138857243221
C           34.43497866676746       -1.22779215904463       -0.34986641585634
C           34.99075501391086       -2.33489716982936       -0.87843803878804
C           33.95685319081347       -3.31988123026311       -1.01059287632664
C           32.81396002095848       -2.77056959467882       -0.55506300893035
N           33.04440573979583       -1.43415528185695       -0.12806842274963
C           31.53048872813859       -3.49279804232364       -0.47340820095325
C           31.53568809931942       -4.97581132270808       -0.54954399152503
C           30.97221871818473       -5.63636355989668       -1.65234529054374
C           31.00176661697290       -7.02856981189523       -1.72956219722241
C           31.59802944661939       -7.78509527475616       -0.70851787346202
C           31.63147070651398       -9.25844271056476       -0.80134197558190
O           32.19811051530905       -9.95188990159675        0.05727997644298
C           32.16542296922768       -7.12076794611994        0.39397988441726
C           32.13636864426419       -5.72866237872393        0.46969655920296
C           30.35477863901961       -2.84137862627301       -0.32948920466431
C           29.03850739384854       -3.45732052874397       -0.21296058091129
C           28.17076419254126       -2.45578021111838       -0.12679499052416
C           28.92910119769068       -1.20970928405476       -0.17663487786445
N           30.21195249961934       -1.42973057623548       -0.29480916373706
H           27.22473015655893        0.14592573826848       -0.13339498972685
H           27.26027507526029        2.76547233740505        0.05029647208620
H           29.07755554719153        4.54356051481971        0.33335679804719
H           32.21950621786862        4.77079950081556        2.70508871667312
H           32.28940666962546        7.20378340310366        3.03098829963454
H           31.72409297943971        9.78924450897552        0.28190472631025
H           31.43962025637176        7.78360174691016       -1.16194132188051
H           31.38153942494588        5.34599199575194       -1.48189924686789
H           34.53051058147609        4.37573173769691        0.89147322485231
H           36.34448208058051        2.57389921985924        0.70924969781841
H           36.03028255438990       -2.46183599809419       -1.13840917228365
H           34.07096193579704       -4.32417596808494       -1.39010497478138
H           30.51580173831216       -5.06701735984151       -2.45534764271026
H           30.56373387633947       -7.52088187217188       -2.59178950201455
H           31.15373395508190       -9.74779654589288       -1.65090759243424
H           32.63205226348020       -7.68184838890964        1.19668243528502
H           32.57962788756110       -5.23114810260463        1.32593210511736
H           28.78551913390745       -4.50851096631573       -0.19368410558849
H           27.10101825286765       -2.56120998472389       -0.02892246510274
Zn          59.28569113955311       -0.00307357151434        0.00344491268601
C           62.64840764258391       -0.11230137009944       -0.13266424142579
C           61.97848747376507       -1.27861953996475       -0.19808568995646
C           62.63381263462739       -2.57540390044545       -0.29055372887172
C           61.68866228944397       -3.50544816295329       -0.27690947210089
C           60.38938723241478       -2.83172531653892       -0.18011472817112
N           60.57291243270566       -1.42812440206646       -0.13351870444985
C           59.19045785954219       -3.46469048602401       -0.09535526820521
C           59.16063243107242       -4.94682734245356       -0.11420005364682
C           58.90639809119180       -5.66096805501164        1.06474649734513
C           58.86809080649888       -7.05470987901934        1.04895031219308
C           59.08827427676693       -7.75858912458934       -0.14839325670735
C           59.05271708996030       -9.23436519400702       -0.17450144327615
O           58.82211622126888       -9.89814048588654        0.84895664605022
C           59.34420689971489       -7.03944863199422       -1.32618249030963
C           59.37832762840605       -5.64540529940592       -1.31033011307824
C           57.90568184899575       -2.75350831493394        0.02471604005785
C           56.61254019192607       -3.42204102867455        0.18901935134075
C           55.67207502805941       -2.48698407257221        0.22872512389311
N           57.75751320624514       -1.45375350411341       -0.04243209320434
C           56.35923046451718       -1.21576073967764        0.08061232505858
C           55.75053256548496       -0.00671855149139        0.00215943420213
C           56.52181929424015        1.24128092161446       -0.17314315513276
C           55.96599516166103        2.41202671537079       -0.53871950102214
C           56.99992607328507        3.40584076260632       -0.52923388983369
C           58.14275268005687        2.79726871360626       -0.15660575192201
N           57.91225067269908        1.41358629617266        0.07573420284191
C           59.42625138774819        3.50048883304286        0.02708914330850
C           59.42104028975498        4.97923342320258        0.16292541273661
C           59.98451101327080        5.79008612055255       -0.83457526907177
C           59.95495970211194        7.17910789517064       -0.71273920575776
C           59.35869901446375        7.78250212299457        0.40562936946588
C           59.32524782828278        9.25409101890960        0.52357628758100
O           58.75863577128673        9.81815857448130        1.47217367451055
C           58.79130810147340        6.96796103236888        1.40228305891321
C           58.82035957957358        5.57925143432639        1.27898469479249
C           60.60194705256804        2.83521675652975        0.07677843752208
C           61.91822242215314        3.42827794156319        0.27982914829089
C           62.78596466486343        2.42467924679920        0.22249178372085
C           62.02761755511433        1.19841821122974       -0.00428843990585
N           60.74478203787199        1.43299673639389       -0.08993286740583
H           63.73199888885742       -0.14957574376859       -0.15454391767422
H           63.69645312667704       -2.76858106342995       -0.34576606461054
H           61.87917195345323       -4.56885609090266       -0.31880229256993
H           58.73722276157404       -5.13153215796105        1.99639702725570
H           58.66732310264019       -7.58612926315636        1.97250026835925
H           59.23263618640220       -9.75375223089796       -1.11675222956429
H           59.51710899955878       -7.56293634901581       -2.26026544580186
H           59.57518928870120       -5.10460586584009       -2.22983021147581
H           56.42621811124983       -4.48222046768334        0.25752330820225
H           54.61222907863287       -2.67274713151640        0.33373891100212
H           54.92643192514807        2.57470806138318       -0.77794486914884
H           56.88576635155721        4.45392777356564       -0.76186742511171
H           60.44092722963850        5.34090054581781       -1.71047242092991
H           60.39299495080618        7.78918556619805       -1.49607411315225
H           59.80299461863778        9.85941833994599       -0.24765381095062
H           58.32467568296855        7.40900822914910        2.27670607545856
H           58.37710103539886        4.96487909955535        2.05564462412451
H           62.17120933160327        4.46600827816500        0.44860599446473
H           63.85570932386228        2.51509232988746        0.33437938851101
C           38.31168821058571       -0.00043011909653        0.00603090649104
C           37.05136689615675       -0.01977339007395        0.00151490360574
C           39.62755415680281       -0.00123919214847        0.00765420387506
C           40.92240727526287       -0.03220212564499        0.00110540937231
C           51.20559021212146       -0.00147920870587        0.00616753080815
C           50.02631255326982       -0.02884962672377        0.00078499003955
C           52.51480499124968       -0.00064517121767        0.00788377514392
C           53.96571880921612       -0.01770467238506        0.00169405516620
Zn          45.46356015560536       -0.01632441538848        0.01371286017289
C           42.17467876120040        0.02878032560397       -0.00954535085113
C           42.71008704398854        1.18249010974823        0.30679972915293
C           42.03477671750272        2.44707419518336        0.56281858484845
C           42.98173875450063        3.33090169707963        0.86807388689310
C           44.27023682443338        2.64736814123190        0.82076293223991
N           44.08881575473383        1.28867985651665        0.45895258036878
C           45.46697693044700        3.22914281841622        1.10405619166989
C           45.49437879771802        4.64882662805881        1.52659016828170
C           45.99465395205588        5.62995648344038        0.65876089539622
C           46.03850016478478        6.96502697445224        1.05708775285476
C           45.58357962572725        7.34102828593431        2.33382694128796
C           45.61202657935928        8.75156472233484        2.76733600893391
O           46.06993974975276        9.64164199675612        2.03605184471785
C           45.09176115687242        6.35540259179189        3.20007523179259
C           45.04811684979786        5.02057225289493        2.80010074180107
C           46.75101209626578        2.52626660332472        1.01691383588146
C           48.01609258355933        3.06293708837356        1.51636203706540
C           48.97535737308775        2.19113477474305        1.21769719404329
N           46.92618131252620        1.36464503636000        0.43700071520013
C           48.29673708244307        1.10819660690529        0.53504789244822
C           48.82660581235861        0.02673282139258       -0.01147183096530
C           48.16685265031903       -1.05811631983177       -0.67449181313134
C           48.72066717742831       -1.93613162321506       -1.52725245429274
C           47.69909499384077       -2.89322326052982       -1.85341242270132
C           46.58970694713665       -2.54182943823469       -1.17742265424202
N           46.82318118658192       -1.36985525071014       -0.41426703906575
C           45.34756250040650       -3.32784043209565       -1.15779746278880
C           45.40458801403583       -4.76728173455520       -1.51423677946179
C           46.17033078377079       -5.64960252455080       -0.73803177004009
C           46.24216903213322       -7.00154417715660       -1.07206050703733
C           45.55464833906884       -7.49511485984948       -2.19188048017685
C           45.63242291292446       -8.92937849065999       -2.53157028707684
O           45.02276674784815       -9.40241346916040       -3.50484055077088
C           44.79613854005849       -6.60798127158098       -2.97685614326250
C           44.72394500353897       -5.25571730715259       -2.64136972923556
C           44.16650289976617       -2.77454036446466       -0.79870018446984
C           42.89603175478082       -3.47106882849751       -0.67737584782902
C           41.99713135740783       -2.54397861271271       -0.36069418926657
C           42.71126686310468       -1.26995816001105       -0.27683395786152
N           43.97081859671466       -1.39498539947911       -0.52890747579044
H           40.97886207410957        2.68254647557975        0.52103533838157
H           42.79340840519558        4.36951737382574        1.10155402510881
H           46.34821903171811        5.35469323912324       -0.32908371799337
H           46.42630921882022        7.70773012249254        0.36852698653013
H           45.21440427383823        9.01771542686553        3.75454540149961
H           44.74060747971424        6.62383469393093        4.18911012326512
H           44.66838223254690        4.27075657626729        3.48211498229706
H           48.17112286463177        3.99594663645183        2.03483096077070
H           50.02448527766263        2.31187805647950        1.45547123928035
H           49.74100759929355       -1.94224769596629       -1.87889738904440
H           47.80418953222092       -3.75812909431946       -2.49013149225242
H           46.70689244675305       -5.28587947047133        0.13174543967942
H           46.83549498515212       -7.66917301448750       -0.45548896888690
H           46.23896079101093       -9.58989906052966       -1.90891719952067
H           44.26298023469857       -6.96344879779964       -3.85214104403477
H           44.14109087092623       -4.58226209094983       -3.26162329529254
H           42.69120768922867       -4.52551338169412       -0.80350469685133
H           40.94778301957230       -2.73776519312662       -0.19466517908696
187
 energy: -331.014042879567 gnorm: 0.380713159794 xtb: 6.5.1 (b24c23e)
Zn          31.67453057830291       -0.01909443252321       -0.00047568539484
C           28.30914076810131        0.09026775556645       -0.11786390067866
C           28.98141221023539        1.27010740217009       -0.01510561231132
C           28.32356528322845        2.56055436329127        0.07701084452219
C           29.27773307445255        3.48653011816536        0.22402024723541
C           30.56725793614871        2.80083328135513        0.22215821790649
N           30.36340258025170        1.42895923995968        0.07016026580773