128
 energy: -247.718539171917 gnorm: 0.000393753923 xtb: 6.5.1 (b24c23e)
Zn          15.97905442846639        0.06276018765350       -0.00717196918817
C           12.57379157343003        0.10006408117657       -0.17773784366949
C           13.20453735166920        1.33699077827438       -0.11860184853260
C           12.53035976684874        2.60468762877040       -0.08779231875613
C           13.48812860101278        3.56208940162598       -0.01205356927824
C           14.76138377024426        2.89117808018787       -0.00552387635016
N           14.55318034129854        1.54376718205606       -0.06359812219639
C           16.01083006119828        3.51791832978722        0.07821063865230
C           16.02364669758938        5.00298532516347        0.11776032429230
C           15.51686040447851        5.73750249723691       -0.95458329116706
C           15.53039923573345        7.12688675603105       -0.91736325751719
O           15.04619638789749        7.85010590701193       -1.95723112003633
C           16.04650881811510        7.78763285335735        0.19837638942582
O           16.04388232794757        9.15848143981141        0.20891504317393
C           16.55026373718898        7.05467810927434        1.26971186947606
O           17.03689614567925        7.77267956649265        2.33114216780574
C           16.54375160080835        5.66585834633930        1.23276419212664
C           17.24822655545937        2.86587607831389        0.12694263841346
C           18.52931894307221        3.51587164148808        0.15704016391208
C           19.47346615578935        2.54042565517105        0.17949642396762
N           17.43974038165336        1.50975739076320        0.12053106964996
C           18.78070612449793        1.28608092309867        0.15527143090959
C           19.40957675796630        0.02461041011118        0.15025173074698
C           18.75513657904879       -1.22242354820797        0.09624651180628
C           19.42204393857177       -2.49104834365276        0.06888369277454
C           18.45843535026684       -3.44490463753532        0.00404970224984
C           17.19126352403306       -2.76753425860352       -0.00280713839332
N           17.40998936850411       -1.41639256663102        0.04827309788702
C           15.94214809465676       -3.39176076743228       -0.08437310857267
C           15.92807811074884       -4.87772726871787       -0.11442355664780
C           16.39897586979632       -5.60428779011629        0.97915455253928
C           16.38374201673107       -6.99387927400245        0.95195774866355
O           16.83030980213323       -7.71045674812912        2.01307169282986
C           15.90594983238261       -7.66191443894543       -0.17648831970558
O           15.90863793041872       -9.03294982720479       -0.17749382769401
C           15.44037180861290       -6.93635895250181       -1.26972660492457
O           14.99209993968622       -7.66138312654519       -2.34347269426333
C           15.44412744415558       -5.54718130505232       -1.24122722236125
C           14.70526540195540       -2.73846564907905       -0.14092623082368
C           13.41987740198080       -3.38398765760041       -0.18275988655854
C           12.48042462356269       -2.40560727805709       -0.21145835435626
C           13.17887005300584       -1.15118997867555       -0.17940693989335
N           14.52300519503815       -1.38627157050514       -0.13461213311218
H           11.48885202150318        0.11238822078748       -0.21640091768701
H           11.45957436706714        2.73346991162081       -0.11418372155709
H           13.34874588896109        4.62970533386579        0.04538117487066
H           15.12769129581558        5.23567656548678       -1.83110126191152
H           15.14435186775016        8.79265706730939       -1.74367536968625
H           16.43552136919416        9.45040802003254        1.04744613281602
H           17.37011194662787        7.18316493071868        3.02025595121430
H           16.92455486070028        5.10218765362994        2.07645866253650
H           18.68641710124932        4.58250842952048        0.14676904708910
H           20.54577217325492        2.65328860306396        0.20259652906305
H           20.49172160631679       -2.62663158306074        0.09078770210031
H           18.59191862490836       -4.51354704734800       -0.04624032113807
H           16.76246067272896       -5.09567094990273        1.86275873687146
H           16.73887466932333       -8.65431067343412        1.80228095511799
H           15.54877470901997       -9.33073062128417       -1.02807228315684
H           14.69760219205613       -7.07597643081094       -3.05335385439008
H           15.09046872672763       -4.98871871207559       -2.10008838691113
H           13.26107054048654       -4.45065350511188       -0.17816546879360
H           11.40733060656449       -2.51247144573742       -0.24374675871736
Zn          29.44293355945384       -0.06154746249300       -0.00576500365426
C           32.84557511775454       -0.07246921979511       -0.21839328780631
C           32.21699003174974       -1.30993886656067       -0.28769846320976
C           32.89305317814541       -2.57185689665040       -0.40134782518538
C           31.93726387118077       -3.53401434438996       -0.42132508706632
C           30.66319218594646       -2.87067077588942       -0.33108439274625
N           30.86920986197370       -1.52454972813854       -0.24273635069892
C           29.41487045061834       -3.50505765820187       -0.31042401174535
C           29.40250715282346       -4.98474893121255       -0.44014010213098
C           29.91273271919895       -5.59254952799406       -1.58763909403238
C           29.89735740262990       -6.97698286906445       -1.71004620620988
O           30.38495575715061       -7.57695964377414       -2.82408104144546
C           29.37511583602043       -7.76045143350059       -0.67988690196302
O           29.37473722751893       -9.12337667498644       -0.82721446916618
C           28.86802569010361       -7.15430266918868        0.46649798616788
O           28.37494164341985       -7.98838113865313        1.43607931185171
C           28.87726211452623       -5.77049145320370        0.58948698840066
C           28.17719206854578       -2.86401239068471       -0.18243785089534
C           26.89646969370493       -3.51415587307433       -0.22416549857860
C           25.95185087764037       -2.54859604964000       -0.08713442785066
N           27.98488976618714       -1.51637732972802       -0.03177286089480
C           26.64386213679992       -1.29930033410769        0.03168547768452
C           26.01401898081728       -0.04640108235880        0.17387261301099
C           26.66719199692049        1.19900623226580        0.26669234257599
C           25.99893988784531        2.46073551511508        0.39398258046936
C           26.96108271743207        3.41744923260484        0.43343754246053
C           28.22886529541093        2.74809215829550        0.33653849621935
N           28.01180290248598        1.39968141490650        0.23245235276473
C           29.47663497685539        3.38022048437752        0.31183311745513
C           29.49035204911502        4.85989631597550        0.44864536191562
C           29.02042862529943        5.46049685999192        1.61663923715640
C           29.03612463685470        6.84449591689205        1.74438441004853
O           28.58954823469897        7.43850090484829        2.87863701391687
C           29.51505486039073        7.63399949335199        0.69785179462272
O           29.51418458841144        8.99653525581879        0.85001553223413
C           29.98029121932028        7.03454138743422       -0.46949933303196
O           30.43022590175532        7.87440539905401       -1.45522514328552
C           29.97423665813544        5.65100678596696       -0.59663021945947
C           30.71306107947728        2.73970336849706        0.16499852951974
C           31.99768655905158        3.38804100885115        0.17974920672053
C           32.93696323455463        2.42108567187556        0.02690785628662
C           32.23946864136666        1.16986677742348       -0.07369849216114
N           30.89594429398400        1.39587271001106        0.01525664978295
H           33.92995664064208       -0.07780809066085       -0.27156633272076
H           33.96371662293367       -2.69452074066600       -0.45120402237984
H           32.07883051838081       -4.60123504486158       -0.48070108026314
H           30.30544232986416       -4.99431070990247       -2.39970049167719
H           30.28449180960709       -8.53760087336530       -2.72060955963237
H           28.97756919215470       -9.50879394351148       -0.03008004374329
H           28.03839725569172       -7.48114204671953        2.18633136316343
H           28.49413907694242       -5.30681842202021        1.49101424024880
H           26.73955395179556       -4.57246220681774       -0.35774903801120
H           24.87968218559177       -2.66433270627442       -0.07430960206875
H           24.92938353722259        2.59076654096413        0.44100405432884
H           26.82563027362049        4.48430957734534        0.50930065240834
H           28.65769393524737        4.85701648188847        2.43868578255435
H           28.68153211750617        8.39993054608241        2.77449463376803
H           29.87315666148108        9.38696312850153        0.03731768346673
H           30.72590071416264        7.37152996836698       -2.22537684242061
H           30.32612770948972        5.19190933151371       -1.51311152141774
H           32.15691946255982        4.44732777379822        0.30435848122876
H           34.00945119998465        2.53307146071832       -0.00790255469394
C           22.03687668419133       -0.00468589790640        0.20554748793288
C           20.81491341489316        0.00852546431662        0.18465756669818
C           23.38641984649703       -0.02120594533743        0.21277617432868
C           24.60845948267490       -0.03519053496514        0.20323323578881
