380
 energy: -568.728462915405 gnorm: 1.289327891453 xtb: 6.5.1 (b24c23e)
C           67.89043400000000       -0.03152400000000       -0.02879200000000
C           68.61562200000000       -1.41029500000000        0.01439100000000
C           67.99797799999999       -2.63619200000000        0.10801900000000
C           69.01990199999999       -3.61909400000000        0.07916300000000
C           70.22828300000000       -2.95930100000000       -0.03133000000000
N           69.97123800000000       -1.61176000000000       -0.03905400000000
C           71.66200400000000       -3.62938400000000       -0.15305600000000
C           71.71408400000000       -5.11526700000000       -0.30054300000000
C           71.64344300000000       -5.70752300000000       -1.58270000000000
C           71.53327299999999       -4.86160400000000       -2.82448900000000
C           71.68181199999999       -7.10672500000000       -1.70200900000000
C           71.79634100000000       -7.92576800000000       -0.57367400000000
C           71.80049200000001       -9.41718900000000       -0.71608100000000
C           71.84988399999999       -7.33499600000000        0.69320700000000
C           71.81537899999999       -5.93899000000000        0.84488300000000
C           71.88502099999999       -5.34230900000000        2.22647600000000
C           72.78826800000000       -2.86480100000000       -0.15005100000000
C           74.10117700000001       -3.45423200000000       -0.31080700000000
C           75.00265600000000       -2.48026400000000       -0.29505400000000
N           72.97784400000000       -1.51238400000000       -0.02454700000000
C           74.31495099999998       -1.21718400000000       -0.10659000000000
C           74.98662799999998       -0.03612300000000       -0.03985800000000
C           74.21462199999999        1.33181800000000        0.20956200000000
C           74.78502800000000        2.52212200000000        0.61881300000000
C           73.75756900000000        3.49411300000000        0.67712900000000
C           72.58293300000000        2.87041500000000        0.31530900000000
N           72.86387499999999        1.54663400000000        0.06521500000000
C           71.15551000000001        3.56211100000000        0.21061200000000
C           71.09806100000000        5.05324900000000        0.20469800000000
C           71.23323499999999        5.76310900000000       -1.01045600000000
C           71.42941900000000        5.03697300000000       -2.31571100000000
C           71.17376299999999        7.16674200000000       -1.00312200000000
C           70.99232300000000        7.87633700000000        0.18859300000000
C           70.88848299999999        9.37101100000000        0.17706900000000
C           70.84836600000000        7.16828500000000        1.38652900000000
C           70.90894900000001        5.76511500000000        1.41230300000000
C           70.74305400000000        5.04268500000000        2.72368600000000
C           70.03611999999998        2.79689000000000        0.11859500000000
C           68.70678599999999        3.37271700000000        0.01432300000000
C           67.82498299999999        2.38010100000000       -0.04436000000000
C           68.55563800000000        1.13779000000000        0.01222300000000
N           69.87946100000001        1.43850200000000        0.10133100000000
H           66.80937500000000       -0.03069300000000       -0.10358000000000
H           66.93467200000001       -2.80435100000000        0.17782600000000
H           68.88912300000000       -4.68973700000000        0.12001600000000
H           70.67669999999998       -0.87867500000000       -0.07400400000000
H           70.63190600000000       -4.24210400000000       -2.79301200000000
H           71.46499100000000       -5.48332600000000       -3.72396800000000
H           72.41652800000000       -4.22576000000000       -2.93715300000000
H           71.62327999999999       -7.55711200000000       -2.68974300000000
H           70.77588299999999       -9.79981900000000       -0.68240900000000
H           72.25915500000001       -9.71848500000000       -1.66363600000000
H           72.37943400000000       -9.88569800000000        0.08674500000000
H           71.92119900000000       -7.96392300000000        1.57702100000000
H           70.98381000000001       -4.75988300000000        2.44120600000000
H           71.95569900000000       -6.12217800000000        2.99262000000000
H           72.76988500000000       -4.70689500000000        2.32992000000000
H           74.31766299999998       -4.50068900000000       -0.43191900000000
H           76.06168599999998       -2.63060000000000       -0.39674900000000
H           75.82827300000000        2.68429000000000        0.84278000000000
H           73.86282999999999        4.53388100000000        0.94925600000000
H           72.16926700000000        0.83740000000000       -0.15710400000000
H           71.51326099999999        5.73953600000000       -3.15215700000000
H           72.35176000000000        4.44834000000000       -2.29650700000000
H           70.57656700000000        4.38405900000000       -2.52605500000000
H           71.26660800000001        7.70671900000000       -1.94203600000000
H           71.33170800000001        9.79812600000000        1.08217100000000
H           69.83826300000000        9.67268400000000        0.12160600000000
H           71.42192900000001        9.79710400000000       -0.67856300000000
H           70.68447999999999        7.71029800000000        2.31446800000000
H           70.72543000000000        5.74620900000000        3.56351100000000
H           69.79983300000001        4.48848500000000        2.74065900000000
H           71.57765499999998        4.35803900000000        2.90142800000000
H           68.47322899999999        4.42208500000000       -0.00879600000000
H           66.75784899999999        2.47960500000000       -0.12302500000000
C          119.25885399999999       -0.04015400000000       -0.02857200000000
C          118.53366599999998        1.33902900000000       -0.05552600000000
C          119.15131000000000        2.56810000000000       -0.02432900000000
C          118.12938600000000        3.54826500000000       -0.10310700000000
C          116.92100499999998        2.88370900000000       -0.17992100000000
N          117.17804999999998        1.53751700000000       -0.11914200000000
C          115.48728399999999        3.54673800000000       -0.33554900000000
C          115.43520400000000        5.02320400000000       -0.55837100000000
C          115.50584499999999        5.54952500000000       -1.86897400000000
C          115.61601399999999        4.64158100000000       -3.06616100000000
C          115.46747600000000        6.94085400000000       -2.05924800000000
C          115.35294700000000        7.81619000000000       -0.97400200000000
C          115.34879599999999        9.29844500000000       -1.19203200000000
C          115.29940300000000        7.29057500000000        0.32126900000000
C          115.33390900000001        5.90408300000000        0.54370600000000
C          115.26426700000000        5.37839700000000        1.95384200000000
C          114.36102000000000        2.78329700000000       -0.29368500000000
C          113.04811099999999        3.36379400000000       -0.48419400000000
C          112.14663200000000        2.39188600000000       -0.41895600000000
N          114.17144399999998        1.43900800000000       -0.09960300000000
C          112.83433700000000        1.14001800000000       -0.16653500000000
C          112.16266000000000       -0.03612300000000       -0.03985800000000
C          112.93466600000001       -1.38961900000000        0.27877000000000
C          112.36426000000000       -2.55758300000000        0.74799300000000
C          113.39171899999999       -3.52535300000000        0.85563900000000
C          114.56635499999999       -2.92085300000000        0.46258400000000
N          114.28541300000001       -1.61149400000000        0.14552900000000
C          115.99377800000001       -3.61697500000000        0.39318000000000
C          116.05122700000000       -5.10648700000000        0.46306700000000
C          115.91605299999999       -5.87719400000000       -0.71443600000000
C          115.71986899999999       -5.21834000000000       -2.05491100000000
C          115.97552500000000       -7.27863900000000       -0.63576600000000
C          116.15696499999999       -7.92674400000000        0.59047500000000
C          116.26080500000000       -9.42007200000000        0.65493800000000
C          116.30092199999999       -7.15871900000000        1.75087400000000
C          116.24033900000001       -5.75605300000000        1.70529400000000
C          116.40623399999998       -4.96790100000000        2.97826100000000
C          117.11316800000000       -2.85742100000000        0.26238800000000
C          118.44250199999999       -3.43780400000000        0.18751800000000
C          119.32430500000000       -2.44945300000000        0.07845900000000
C          118.59364999999998       -1.20587200000000        0.07182400000000
N          117.26982699999999       -1.50166600000000        0.17610200000000
H          120.33991300000000       -0.04478600000000       -0.10322100000000
H          120.21461600000001        2.73959000000000        0.03684000000000
H          118.26016499999999        4.61960100000000       -0.11672700000000
H          116.47258800000000        0.80360400000000       -0.11678600000000
H          116.51738199999998        4.02448200000000       -3.00323700000000
H          115.68429699999999        5.21678100000000       -3.99607900000000
H          114.73276000000000        4.00083300000000       -3.14636100000000
H          115.52600800000000        7.34045400000000       -3.06859800000000
H          116.37340500000001        9.68229200000000       -1.17785100000000
H          114.89013300000001        9.55118900000000       -2.15367600000000
H          114.76985399999998        9.80715400000000       -0.41405600000000
H          115.22808900000000        7.96361200000000        1.17197300000000
H          116.16547799999999        4.80763800000000        2.19789800000000
H          115.19358900000000        6.19620000000000        2.67935500000000
H          114.37940299999998        4.74906300000000        2.08944900000000
H          112.83162500000000        4.40274300000000       -0.65833900000000
H          111.08760200000000        2.53685900000000       -0.52816100000000
H          111.32101499999999       -2.70815700000000        0.97991300000000
H          113.28645800000000       -4.54994600000000        1.18026400000000
H          114.98002099999998       -0.91447700000000       -0.11255300000000
H          115.63602700000000       -5.96251100000000       -2.85456600000000
H          114.79752800000000       -4.62949200000000       -2.06565200000000
H          116.57272099999999       -4.57696100000000       -2.29817100000000
H          115.88267999999999       -7.86564200000000       -1.54602100000000
H          115.81757999999999       -9.80063000000000        1.58058000000000
H          117.31102500000000       -9.72417400000000        0.61488000000000
H          115.72735900000001       -9.88910500000000       -0.17793000000000
H          116.46480799999999       -7.65286500000000        2.70516300000000
H          116.42385799999998       -5.62782800000000        3.85276000000000
H          117.34945499999999       -4.41355400000000        2.96704400000000
H          115.57163300000001       -4.27510500000000        3.12097400000000
H          118.67605900000000       -4.48699000000000        0.21776800000000
H          120.39143899999999       -2.55282700000000        0.00495300000000
C           76.90955699999999       -0.03612300000000       -0.03985800000000
C           78.13147400000000       -0.03612300000000       -0.03985800000000
C           87.61230899999998       -0.03612300000000       -0.03985800000000
C           88.83422700000000       -0.03612300000000       -0.03985800000000
C           98.31506100000000       -0.03612300000000       -0.03985800000000
C           99.53697900000000       -0.03612300000000       -0.03985800000000
C          109.01781300000000       -0.03612300000000       -0.03985800000000
C          110.23973100000001       -0.03612300000000       -0.03985800000000
C           79.28145299999998        0.02570900000000        0.02836700000000
C           80.06984100000000       -0.75928800000000        1.15837700000000
C           79.54233300000000       -1.25699700000000        2.33267100000000
C           80.57784599999999       -1.96001600000000        2.99831100000000
C           81.70937600000001       -1.85918300000000        2.21782200000000
N           81.40787400000001       -1.06976800000000        1.13547600000000
C           83.10844200000000       -2.55057700000000        2.49803100000000
C           83.11581199999999       -3.78261800000000        3.34150400000000
C           82.85602500000000       -5.04358600000000        2.75614400000000
C           82.57352299999999       -5.17240200000000        1.28182000000000
C           82.87558399999999       -6.19744600000000        3.55770800000000
C           83.13862700000000       -6.12108100000000        4.92934900000000
C           83.20003400000000       -7.36571000000000        5.76065200000000
C           83.40561699999999       -4.87270200000000        5.50128500000000
C           83.38715300000000       -3.69992200000000        4.72745700000000
C           83.68680100000000       -2.37792500000000        5.38523100000000
C           84.24102600000001       -2.05202400000000        1.93426200000000
C           85.53283600000000       -2.67888400000000        2.12587800000000
C           86.44164100000000       -1.97980800000000        1.45576400000000
N           84.44717100000000       -0.96877900000000        1.12441800000000
C           85.77489000000000       -0.87226400000000        0.80022500000000
C           86.44179000000000        0.02570900000000        0.02836700000000
C           85.65334999999999        1.21427400000000       -0.66331700000000
C           86.17784699999999        2.42874800000000       -1.05668900000000
C           85.14269500000000        3.14690900000000       -1.70689400000000
C           84.01344100000000        2.35562300000000       -1.67858800000000
N           84.31694599999999        1.21178200000000       -0.98251400000000
C           82.61446800000000        2.68875600000000       -2.34745000000000
C           82.60867800000000        3.63618200000000       -3.50152500000000
C           82.87820600000001        3.16475000000000       -4.80721200000000
C           83.16034999999999        1.70721600000000       -5.06613100000000
C           82.88141100000000        4.06799200000000       -5.88317900000000
C           82.61135199999998        5.42682800000000       -5.68761900000000
C           82.65138500000000        6.38157900000000       -6.84195000000000
C           82.35889399999999        5.89048200000000       -4.39221600000000
C           82.35019600000000        5.01202300000000       -3.29566200000000
C           82.06376700000000        5.55203500000000       -1.91869500000000
C           81.48242600000000        2.08434900000000       -1.89774800000000
C           80.19071000000000        2.32712100000000       -2.50560600000000
C           79.28239700000000        1.60306700000000       -1.86176800000000
C           79.94908199999999        0.86183600000000       -0.80966900000000
N           81.27737799999998        1.18850500000000       -0.88448800000000
H           78.52104000000000       -1.15034900000000        2.66460800000000
H           80.50221999999999       -2.49819700000000        3.93122900000000
H           82.07767200000001       -0.74454100000000        0.44390400000000
H           81.68270200000001       -4.60088000000000        1.00682000000000
H           83.42968700000000       -4.82904300000000        0.69465000000000
H           82.38491800000000       -6.21402800000000        1.00372200000000
H           82.68675100000000       -7.16502800000000        3.09956600000000
H           82.87183100000000       -7.16698200000000        6.78598500000000
H           82.54218199999998       -8.14050400000000        5.35424100000000
H           84.22441800000000       -7.74845500000000        5.78552900000000
H           83.63432200000000       -4.80532000000000        6.56194200000000
H           82.88830100000000       -1.65497800000000        5.19170700000000
H           83.76224599999999       -2.48560700000000        6.47333400000000
H           84.64103200000000       -1.97848900000000        5.02826300000000
H           85.72937699999999       -3.56210800000000        2.70768800000000
H           87.49006000000000       -2.21352800000000        1.41859900000000
H           87.19785599999999        2.75510100000000       -0.91761300000000
H           85.21822400000001        4.12235700000000       -2.16374700000000
H           83.64913900000001        0.49283200000000       -0.71838500000000
H           83.33226000000001        1.52008200000000       -6.13079400000000
H           82.30878800000001        1.09016500000000       -4.76466300000000
H           84.05965399999999        1.38656600000000       -4.53251400000000
H           83.09473800000001        3.70042700000000       -6.88402900000000
H           82.32280400000000        5.89229500000000       -7.76500500000000
H           83.66965899999998        6.75614900000000       -6.98140200000000
H           81.98290899999999        7.23188200000000       -6.67075700000000
H           82.16459999999999        6.94751900000000       -4.22796700000000
H           82.90185699999999        5.35626900000000       -1.24167100000000
H           81.91674500000001        6.63852800000000       -1.94182600000000
H           81.14799499999999        5.11135300000000       -1.51358000000000
H           79.99452800000000        2.97972900000000       -3.33766500000000
H           78.23423699999998        1.58589900000000       -2.09740800000000
C           89.98420499999999        0.02570900000000        0.02836700000000
C           90.77259300000000       -0.75928800000000        1.15837700000000
C           90.24508599999999       -1.25699700000000        2.33267100000000
C           91.28059800000000       -1.96001600000000        2.99831100000000
C           92.41212800000000       -1.85918300000000        2.21782200000000
N           92.11062600000000       -1.06976800000000        1.13547600000000
C           93.81119400000000       -2.55057700000000        2.49803100000000
C           93.81856399999998       -3.78261800000000        3.34150400000000
C           93.55877700000001       -5.04358600000000        2.75614400000000
C           93.27627500000000       -5.17240200000000        1.28182000000000
C           93.57833699999999       -6.19744600000000        3.55770800000000
C           93.84138000000000       -6.12108100000000        4.92934900000000
C           93.90278600000001       -7.36571000000000        5.76065200000000
C           94.10836999999998       -4.87270200000000        5.50128500000000
C           94.08990500000000       -3.69992200000000        4.72745700000000
C           94.38955400000000       -2.37792500000000        5.38523100000000
C           94.94377799999999       -2.05202400000000        1.93426200000000
C           96.23558900000000       -2.67888400000000        2.12587800000000
C           97.14439299999999       -1.97980800000000        1.45576400000000
N           95.14992299999999       -0.96877900000000        1.12441800000000
C           96.47764200000000       -0.87226400000000        0.80022500000000
C           97.14454200000000        0.02570900000000        0.02836700000000
C           96.35610199999999        1.21427400000000       -0.66331700000000
C           96.88059999999999        2.42874800000000       -1.05668900000000
C           95.84544800000000        3.14690900000000       -1.70689400000000
C           94.71619300000000        2.35562300000000       -1.67858800000000
N           95.01969800000001        1.21178200000000       -0.98251400000000
C           93.31722000000001        2.68875600000000       -2.34745000000000
C           93.31143000000000        3.63618200000000       -3.50152500000000
C           93.58095800000000        3.16475000000000       -4.80721200000000
C           93.86310300000000        1.70721600000000       -5.06613100000000
C           93.58416400000000        4.06799200000000       -5.88317900000000
C           93.31410399999999        5.42682800000000       -5.68761900000000
C           93.35413800000001        6.38157900000000       -6.84195000000000
C           93.06164599999998        5.89048200000000       -4.39221600000000
C           93.05294800000000        5.01202300000000       -3.29566200000000
C           92.76652000000000        5.55203500000000       -1.91869500000000
C           92.18517799999999        2.08434900000000       -1.89774800000000
C           90.89346200000000        2.32712100000000       -2.50560600000000
C           89.98514900000001        1.60306700000000       -1.86176800000000
C           90.65183499999999        0.86183600000000       -0.80966900000000
N           91.98013099999999        1.18850500000000       -0.88448800000000
H           89.22379200000000       -1.15034900000000        2.66460800000000
H           91.20497200000000       -2.49819700000000        3.93122900000000
H           92.78042399999998       -0.74454100000000        0.44390400000000
H           92.38545400000000       -4.60088000000000        1.00682000000000
H           94.13243900000001       -4.82904300000000        0.69465000000000
H           93.08767000000000       -6.21402800000000        1.00372200000000
H           93.38950400000000       -7.16502800000000        3.09956600000000
H           93.57458300000000       -7.16698200000000        6.78598500000000
H           93.24493399999999       -8.14050400000000        5.35424100000000
H           94.92717000000000       -7.74845500000000        5.78552900000000
H           94.33707500000000       -4.80532000000000        6.56194200000000
H           93.59105300000000       -1.65497800000000        5.19170700000000
H           94.46499799999998       -2.48560700000000        6.47333400000000
H           95.34378500000000       -1.97848900000000        5.02826300000000
H           96.43212899999999       -3.56210800000000        2.70768800000000
H           98.19281300000000       -2.21352800000000        1.41859900000000
H           97.90060799999999        2.75510100000000       -0.91761300000000
H           95.92097599999998        4.12235700000000       -2.16374700000000
H           94.35189099999999        0.49283200000000       -0.71838500000000
H           94.03501199999998        1.52008200000000       -6.13079400000000
H           93.01154000000000        1.09016500000000       -4.76466300000000
H           94.76240700000000        1.38656600000000       -4.53251400000000
H           93.79749099999999        3.70042700000000       -6.88402900000000
H           93.02555599999999        5.89229500000000       -7.76500500000000
H           94.37241099999999        6.75614900000000       -6.98140200000000
H           92.68566099999998        7.23188200000000       -6.67075700000000
H           92.86735299999999        6.94751900000000       -4.22796700000000
H           93.60460999999998        5.35626900000000       -1.24167100000000
H           92.61949700000000        6.63852800000000       -1.94182600000000
H           91.85074700000000        5.11135300000000       -1.51358000000000
H           90.69728000000001        2.97972900000000       -3.33766500000000
H           88.93698999999998        1.58589900000000       -2.09740800000000
C          100.68695699999999        0.02570900000000        0.02836700000000
C          101.47534600000000       -0.75928800000000        1.15837700000000
C          100.94783800000000       -1.25699700000000        2.33267100000000
C          101.98334999999999       -1.96001600000000        2.99831100000000
C          103.11488000000000       -1.85918300000000        2.21782200000000
N          102.81337800000000       -1.06976800000000        1.13547600000000
C          104.51394600000000       -2.55057700000000        2.49803100000000
C          104.52131599999998       -3.78261800000000        3.34150400000000
C          104.26152999999998       -5.04358600000000        2.75614400000000
C          103.97902700000000       -5.17240200000000        1.28182000000000
C          104.28108899999998       -6.19744600000000        3.55770800000000
C          104.54413199999999       -6.12108100000000        4.92934900000000
C          104.60553800000000       -7.36571000000000        5.76065200000000
C          104.81112199999998       -4.87270200000000        5.50128500000000
C          104.79265800000000       -3.69992200000000        4.72745700000000
C          105.09230599999999       -2.37792500000000        5.38523100000000
C          105.64653100000000       -2.05202400000000        1.93426200000000
C          106.93834099999999       -2.67888400000000        2.12587800000000
C          107.84714500000000       -1.97980800000000        1.45576400000000
N          105.85267499999999       -0.96877900000000        1.12441800000000
C          107.18039500000000       -0.87226400000000        0.80022500000000
C          107.84729400000001        0.02570900000000        0.02836700000000
C          107.05885400000000        1.21427400000000       -0.66331700000000
C          107.58335199999999        2.42874800000000       -1.05668900000000
C          106.54819999999999        3.14690900000000       -1.70689400000000
C          105.41894499999999        2.35562300000000       -1.67858800000000
N          105.72245100000001        1.21178200000000       -0.98251400000000
C          104.01997200000000        2.68875600000000       -2.34745000000000
C          104.01418300000000        3.63618200000000       -3.50152500000000
C          104.28371100000000        3.16475000000000       -4.80721200000000
C          104.56585500000000        1.70721600000000       -5.06613100000000
C          104.28691600000001        4.06799200000000       -5.88317900000000
C          104.01685699999999        5.42682800000000       -5.68761900000000
C          104.05689000000000        6.38157900000000       -6.84195000000000
C          103.76439899999998        5.89048200000000       -4.39221600000000
C          103.75570000000000        5.01202300000000       -3.29566200000000
C          103.46927200000000        5.55203500000000       -1.91869500000000
C          102.88793000000000        2.08434900000000       -1.89774800000000
C          101.59621400000000        2.32712100000000       -2.50560600000000
C          100.68790199999999        1.60306700000000       -1.86176800000000
C          101.35458699999998        0.86183600000000       -0.80966900000000
N          102.68288299999999        1.18850500000000       -0.88448800000000
H           99.92654400000001       -1.15034900000000        2.66460800000000
H          101.90772400000000       -2.49819700000000        3.93122900000000
H          103.48317599999999       -0.74454100000000        0.44390400000000
H          103.08820700000000       -4.60088000000000        1.00682000000000
H          104.83519099999998       -4.82904300000000        0.69465000000000
H          103.79042200000001       -6.21402800000000        1.00372200000000
H          104.09225600000001       -7.16502800000000        3.09956600000000
H          104.27733499999999       -7.16698200000000        6.78598500000000
H          103.94768599999999       -8.14050400000000        5.35424100000000
H          105.62992199999999       -7.74845500000000        5.78552900000000
H          105.03982700000000       -4.80532000000000        6.56194200000000
H          104.29380600000000       -1.65497800000000        5.19170700000000
H          105.16774999999998       -2.48560700000000        6.47333400000000
H          106.04653700000000       -1.97848900000000        5.02826300000000
H          107.13488099999998       -3.56210800000000        2.70768800000000
H          108.89556500000000       -2.21352800000000        1.41859900000000
H          108.60335999999998        2.75510100000000       -0.91761300000000
H          106.62372899999998        4.12235700000000       -2.16374700000000
H          105.05464300000000        0.49283200000000       -0.71838500000000
H          104.73776399999998        1.52008200000000       -6.13079400000000
H          103.71429200000000        1.09016500000000       -4.76466300000000
H          105.46515900000000        1.38656600000000       -4.53251400000000
H          104.50024300000000        3.70042700000000       -6.88402900000000
H          103.72830799999998        5.89229500000000       -7.76500500000000
H          105.07516299999999        6.75614900000000       -6.98140200000000
H          103.38841299999999        7.23188200000000       -6.67075700000000
H          103.57010500000000        6.94751900000000       -4.22796700000000
H          104.30736199999998        5.35626900000000       -1.24167100000000
H          103.32225000000000        6.63852800000000       -1.94182600000000
H          102.55349900000000        5.11135300000000       -1.51358000000000
H          101.40003200000000        2.97972900000000       -3.33766500000000
H           99.63974199999998        1.58589900000000       -2.09740800000000
380
 energy: -569.190728876167 gnorm: 0.569374429916 xtb: 6.5.1 (b24c23e)
C           67.90774360099347       -0.05744709550636       -0.02796502665354
C           68.61126803122745       -1.39438576558248        0.01444656363454