244
 energy: -441.665712273121 gnorm: 1.398751148381 xtb: 6.5.1 (b24c23e)
Co          51.84133099999999       -0.02962800000000        0.00460000000000
C           48.47957900000000        0.10547900000000       -0.11442300000000
C           49.14563800000000        1.25917200000000       -0.01399100000000
C           48.49581199999999        2.56077000000000        0.07994000000000
C           49.43591700000000        3.47498900000000        0.22516400000000
C           50.74125200000000        2.79992300000000        0.22612400000000
N           50.56388100000000        1.39135600000000        0.07129100000000
C           51.93066600000000        3.41226000000000        0.39917700000000
C           51.96699799999999        4.87920200000000        0.59171600000000
C           52.22185999999999        5.41691700000000        1.86136400000000
C           52.26060300000000        6.80211000000000        2.04451000000000
C           52.04025900000000        7.66759800000000        0.95886600000000
C           52.07358400000000        9.13112300000000        1.13272800000000
O           52.30793300000000        9.64742500000000        2.25797900000000
C           51.78417200000000        7.12569300000000       -0.31033400000000
C           51.75015700000000        5.74045300000000       -0.49386600000000
C           53.22640900000000        2.68134300000000        0.41586400000000
C           54.52119100000000        3.32318200000000        0.67456600000000
C           55.45534600000000        2.39988100000000        0.58173000000000
N           53.36510500000000        1.41493400000000        0.16471500000000
C           54.76704200000000        1.15782400000000        0.25300600000000
C           55.36315400000000       -0.02087100000000        0.00568300000000
C           54.60826700000000       -1.24432500000000       -0.35276200000000
C           55.16188799999999       -2.33276800000000       -0.87275800000000
C           54.11792200000000       -3.32771700000000       -1.00647900000000
C           52.99321699999999       -2.78404700000000       -0.55750100000000
N           53.21173700000000       -1.43959500000000       -0.12333700000000
C           51.69651600000000       -3.50423200000000       -0.47122700000000
C           51.70600500000000       -4.98425900000000       -0.54672700000000
C           51.14367300000000       -5.64345900000000       -1.65119300000000
C           51.17317100000000       -7.03872300000000       -1.72828900000000
C           51.77003800000000       -7.79332200000000       -0.70598100000000
C           51.79776300000000       -9.26390400000000       -0.80734200000000
O           52.37380699999999       -9.96526700000000        0.06519600000000
C           52.33773799999999       -7.13080100000000        0.39698700000000
C           52.30835500000000       -5.73543000000000        0.47303800000000
C           50.52827400000000       -2.85088000000000       -0.32754900000000
C           49.20657200000000       -3.46453700000000       -0.21038100000000
C           48.34612599999999       -2.46894300000000       -0.12492200000000
C           49.10904200000000       -1.22294100000000       -0.17487200000000
N           50.38250400000000       -1.43271000000000       -0.29302700000000
H           47.39630800000000        0.13829400000000       -0.13126200000000
H           47.43197400000000        2.75853700000000        0.05266700000000
H           49.24740100000000        4.53493200000000        0.33544400000000
H           52.39129799999999        4.76224400000000        2.70760300000000
H           52.46122000000000        7.19470000000000        3.03348700000000
H           51.89609400000000        9.78101600000000        0.28547600000000
H           51.61124999999999        7.77503000000000       -1.15997400000000
H           51.55313300000000        5.33761800000000       -1.48007400000000
H           54.70374300000000        4.36654700000000        0.89358400000000
H           56.51630800000000        2.56727600000000        0.71171800000000
H           56.20200199999999       -2.46966900000000       -1.13594500000000
H           54.24188200000000       -4.33281300000000       -1.38770000000000
H           50.68730000000000       -5.07556400000000       -2.45353600000000
H           50.73530200000000       -7.52931400000000       -2.58987100000000
H           51.32622200000000       -9.75677200000000       -1.64755800000000
H           52.80398400000000       -7.68987700000000        1.19932900000000
H           52.75150300000000       -5.23966300000000        1.32845400000000
H           48.95546200000000       -4.51706500000000       -0.19137600000000
H           47.27311800000000       -2.57101500000000       -0.02678600000000
Co          84.59954500000001       -0.01205000000000        0.00585800000000
C           87.96129800000000       -0.12883000000000       -0.13119200000000
C           87.29523800000000       -1.28506700000000       -0.19607700000000
C           87.94506399999999       -2.58677600000000       -0.28846000000000
C           87.00496000000000       -3.51235900000000       -0.27490800000000
C           85.69962400000000       -2.84430900000000       -0.17782300000000
N           85.87699600000001       -1.42804900000000       -0.13048900000000
C           84.51021000000000       -3.47504900000000       -0.09373500000000
C           84.47387900000000       -4.95445900000000       -0.11206200000000
C           84.21901599999998       -5.66750100000000        1.06807200000000
C           84.18027299999999       -7.06465700000000        1.05209000000000
C           84.40061700000000       -7.76672200000000       -0.14574000000000
C           84.36729200000001       -9.24009000000000       -0.18206700000000
O           84.13294399999999       -9.91137300000000        0.85819000000000
C           84.65670400000000       -7.04959600000000       -1.32483400000000
C           84.69072000000000       -5.65233800000000       -1.30922800000000
C           83.21446800000000       -2.75395800000000        0.02686900000000
C           81.91968499999999       -3.42609700000000        0.19153200000000
C           80.98553000000000       -2.49898500000000        0.23112700000000
N           83.07577200000000       -1.46469100000000       -0.04137500000000
C           81.67383400000000       -1.22277400000000        0.08263100000000
C           81.07772199999999       -0.02087100000000        0.00568300000000
C           81.83260900000001        1.24115800000000       -0.17488000000000
C           81.27898800000000        2.39255900000000       -0.53457500000000
C           82.32295400000000        3.39641000000000       -0.52524500000000
C           83.44765899999999        2.79434400000000       -0.15826600000000
N           83.22913900000000        1.40176600000000        0.08001400000000
C           84.74436000000000        3.49490300000000        0.02968800000000
C           84.73487200000000        4.97059800000000        0.16572400000000
C           85.29720300000000        5.78036300000000       -0.83361000000000
C           85.26770499999999        7.17238600000000       -0.71122500000000
C           84.67083800000000        7.77371000000000        0.40812400000000
C           84.64311300000000        9.24373800000000        0.51721700000000
O           84.06706900000000        9.81369700000000        1.48074100000000
C           84.10313800000000        6.96087100000000        1.40550300000000
C           84.13252100000000        5.56889100000000        1.28206800000000
C           85.91260200000001        2.82774900000000        0.07886100000000
C           87.23430399999999        3.41846600000000        0.28222300000000
C           88.09474999999999        2.42084900000000        0.22503200000000
C           87.33183499999998        1.19465900000000       -0.00184800000000
N           86.05837300000000        1.41911700000000       -0.08892700000000
H           89.04456799999998       -0.15891200000000       -0.15253200000000
H           89.00890299999999       -2.77864400000000       -0.34361900000000
H           87.19347499999999       -4.57720300000000       -0.31669500000000
H           84.04957800000000       -5.14001000000000        1.99891600000000
H           83.97965600000001       -7.59408300000000        1.97508000000000
H           84.54478200000000       -9.76270400000000       -1.11323400000000
H           84.82962700000000       -7.57132000000000       -2.25828500000000
H           84.88774400000000       -5.11316600000000       -2.22801800000000
H           81.73713300000000       -4.49001800000000        0.25973500000000
H           79.92456799999999       -2.68318600000000        0.33595200000000
H           80.23887400000000        2.56554400000000       -0.77558300000000
H           82.19899400000000        4.44555100000000       -0.75944800000000
H           85.75357700000001        5.33251400000000       -1.70864900000000
H           85.70557400000000        7.78067200000000       -1.49416300000000
H           85.11465399999999        9.85123600000000       -0.24424800000000
H           83.63689200000000        7.39998900000000        2.27928400000000
H           83.68937400000000        4.95636000000000        2.05816500000000
H           87.48541400000001        4.45756100000000        0.45092200000000
H           89.16775800000001        2.50790600000000        0.33670300000000
C           57.20505300000000       -0.02087100000000        0.00568300000000
C           58.42697099999999       -0.02087100000000        0.00568300000000
C           67.60947899999999       -0.02087100000000        0.00568300000000
C           68.83139699999998       -0.02087100000000        0.00568300000000
C           78.01390600000001       -0.02087100000000        0.00568300000000
C           79.23582299999998       -0.02087100000000        0.00568300000000
Co          63.00242000000000       -0.02141600000000        0.01544000000000
C           59.56018600000000        0.02228600000000       -0.00606800000000
C           60.21643799999999        1.15731500000000        0.30334700000000
C           59.57548800000000        2.44825700000000        0.56593400000000
C           60.51569300000000        3.32342300000000        0.86830800000000
C           61.81366799999999        2.64386800000000        0.82288400000000
N           61.63379299999999        1.27248100000000        0.45788800000000
C           62.99868699999999        3.22511200000000        1.10478000000000
C           63.03326599999999        4.64265700000000        1.52758700000000
C           63.53458000000000        5.62296200000000        0.65851900000000
C           63.57882500000000        6.96111400000000        1.05791100000000
C           63.12371000000000        7.33536900000000        2.33459900000000
C           63.14785799999999        8.74080500000000        2.77607400000000
O           63.61292700000000        9.64211500000000        2.03240800000000
C           62.63151300000000        6.35142700000000        3.20259400000000
C           62.58790199999999        5.01328300000000        2.80185000000000
C           64.29484600000001        2.50961500000000        1.01435600000000
C           65.56288200000000        3.05237200000000        1.51671700000000
C           66.51480200000000        2.19096000000000        1.22177400000000
N           64.46247600000000        1.36021700000000        0.43730200000000
C           65.86045900000001        1.08822700000000        0.52945800000000
C           66.47610800000000        0.02228600000000       -0.00606800000000
C           65.72751500000000       -1.06161000000000       -0.67477000000000
C           66.26056300000000       -1.93328900000000       -1.52040600000000
C           65.22889200000000       -2.89848500000000       -1.84950300000000
C           64.13685700000001       -2.54897700000000       -1.18189100000000
N           64.36194999999999       -1.37151000000000       -0.40896100000000
C           62.88170400000000       -3.33585900000000       -1.15661100000000
C           62.94329900000000       -4.77293500000000       -1.51213300000000
C           63.71040699999999       -5.65390600000000       -0.73548700000000
C           63.78270100000000       -7.00883700000000       -1.07053400000000
C           63.09418800000000       -7.50030500000000       -2.19087200000000
C           63.17824500000000       -8.93344200000000       -2.52169300000000
O           62.55823800000000       -9.41149400000000       -3.51050900000000
C           62.33539900000000       -6.61484000000000       -2.97683400000000
C           62.26332800000000       -5.25930900000000       -2.64082000000000
C           61.70851399999999       -2.77960500000000       -0.79751400000000
C           60.43158999999999       -3.47541900000000       -0.67496100000000
C           59.54057000000000       -2.55573500000000       -0.36096700000000
C           60.23806199999999       -1.26745900000000       -0.27471900000000
N           61.50558699999999       -1.39257600000000       -0.52565400000000
H           58.51873700000000        2.67973500000000        0.52302300000000
H           60.33148299999999        4.36406900000000        1.10271500000000
H           63.88820900000000        5.34931800000000       -0.32807500000000
H           63.96635000000000        7.70186700000000        0.36931100000000
H           62.75449600000000        9.01323900000000        3.75550700000000
H           62.28043400000000        6.61820200000000        4.19038100000000
H           62.20822800000000        4.26548000000000        3.48349600000000
H           65.71245600000000        3.98983300000000        2.03607600000000
H           67.56465100000000        2.30849900000000        1.45787700000000
H           67.28096600000001       -1.94755200000000       -1.87716900000000
H           65.34321100000000       -3.76392500000000       -2.48837600000000
H           64.24694200000000       -5.29152100000000        0.13335200000000
H           64.37553600000000       -7.67469700000000       -0.45392300000000
H           63.77809100000000       -9.59565600000000       -1.90865400000000
H           61.80251100000000       -6.96841600000000       -3.85110400000000
H           61.68064600000000       -4.58766500000000       -3.26063300000000
H           60.22943999999999       -4.53135400000000       -0.80192600000000
H           58.48810799999999       -2.74531700000000       -0.19370900000000
Co          73.40684600000000       -0.02141600000000        0.01544000000000
C           69.96461300000000        0.02228600000000       -0.00606800000000
C           70.62086400000000        1.15731500000000        0.30334700000000
C           69.97991399999999        2.44825700000000        0.56593400000000
C           70.92012000000000        3.32342300000000        0.86830800000000
C           72.21809399999998        2.64386800000000        0.82288400000000
N           72.03822000000000        1.27248100000000        0.45788800000000
C           73.40311400000000        3.22511200000000        1.10478000000000
C           73.43769300000000        4.64265700000000        1.52758700000000
C           73.93900600000001        5.62296200000000        0.65851900000000
C           73.98325100000000        6.96111400000000        1.05791100000000
C           73.52813600000000        7.33536900000000        2.33459900000000
C           73.55228400000000        8.74080500000000        2.77607400000000
O           74.01735400000000        9.64211500000000        2.03240800000000
C           73.03593900000000        6.35142700000000        3.20259400000000
C           72.99232800000000        5.01328300000000        2.80185000000000
C           74.69927199999999        2.50961500000000        1.01435600000000
C           75.96730900000000        3.05237200000000        1.51671700000000
C           76.91922800000000        2.19096000000000        1.22177400000000
N           74.86690299999999        1.36021700000000        0.43730200000000
C           76.26488499999999        1.08822700000000        0.52945800000000
C           76.88053499999999        0.02228600000000       -0.00606800000000
C           76.13194100000000       -1.06161000000000       -0.67477000000000
C           76.66499000000000       -1.93328900000000       -1.52040600000000
C           75.63331800000000       -2.89848500000000       -1.84950300000000
C           74.54128300000001       -2.54897700000000       -1.18189100000000
N           74.76637700000001       -1.37151000000000       -0.40896100000000
C           73.28613000000000       -3.33585900000000       -1.15661100000000
C           73.34772599999998       -4.77293500000000       -1.51213300000000
C           74.11483300000000       -5.65390600000000       -0.73548700000000
C           74.18712699999999       -7.00883700000000       -1.07053400000000
C           73.49861500000000       -7.50030500000000       -2.19087200000000
C           73.58267199999999       -8.93344200000000       -2.52169300000000
O           72.96266400000000       -9.41149400000000       -3.51050900000000
C           72.73982599999999       -6.61484000000000       -2.97683400000000
C           72.66775399999999       -5.25930900000000       -2.64082000000000
C           72.11293999999998       -2.77960500000000       -0.79751400000000
C           70.83601599999999       -3.47541900000000       -0.67496100000000
C           69.94499600000000       -2.55573500000000       -0.36096700000000
C           70.64248800000000       -1.26745900000000       -0.27471900000000
N           71.91001300000001       -1.39257600000000       -0.52565400000000
H           68.92316300000000        2.67973500000000        0.52302300000000
H           70.73590900000001        4.36406900000000        1.10271500000000
H           74.29263500000000        5.34931800000000       -0.32807500000000
H           74.37077600000001        7.70186700000000        0.36931100000000
H           73.15892200000000        9.01323900000000        3.75550700000000
H           72.68486000000000        6.61820200000000        4.19038100000000
H           72.61265499999999        4.26548000000000        3.48349600000000
H           76.11688200000000        3.98983300000000        2.03607600000000
H           77.96907700000000        2.30849900000000        1.45787700000000
H           77.68539199999999       -1.94755200000000       -1.87716900000000
H           75.74763699999998       -3.76392500000000       -2.48837600000000
H           74.65136799999999       -5.29152100000000        0.13335200000000
H           74.77996200000000       -7.67469700000000       -0.45392300000000
H           74.18251700000000       -9.59565600000000       -1.90865400000000
H           72.20693700000000       -6.96841600000000       -3.85110400000000
H           72.08507200000000       -4.58766500000000       -3.26063300000000
H           70.63386600000000       -4.53135400000000       -0.80192600000000
H           68.89253400000000       -2.74531700000000       -0.19370900000000
244
 energy: -442.113655077957 gnorm: 0.520840444265 xtb: 6.5.1 (b24c23e)
Co          51.84587983865320       -0.02695776850829        0.00169253116060
C           48.48055654591369        0.09161305821847       -0.11497973175791
C           49.15268115095531        1.25918484350655       -0.01355307679386
C           48.49564004436763        2.55473898865422        0.07903752689262
C           49.44432021585981        3.47608226686700        0.22558488733479
C           50.74094356319813        2.79194823859613        0.22470312237350
N           50.55526991339290        1.39830605710205        0.07277744235139
C           51.94397390922577        3.40842389173658        0.39952705200750
C           51.96976655260527        4.88068053195660        0.59190383227670
C           52.22253450804277        5.42085834541761        1.85931855598213
C           52.25996313417295        6.80023680350451        2.04187474267779
C           52.04016849814148        7.66814233794373        0.95852179740357
C           52.07707869029417        9.13201155521029        1.14888829183709
O           52.30524086741371        9.64054680384733        2.24519663052870
C           51.78426794334005        7.12279122435540       -0.30882010915355
C           51.74994543222952        5.74271032578192       -0.49110307825630
C           53.21928366170273        2.69253739631107        0.41744228422610
C           54.51009051532606        3.33101834696162        0.67435245401629
C           55.45444956227735        2.39402833626022        0.58028747042396
N           53.37115309034516        1.40547604270685        0.16765620699386
C           54.77330307164647        1.15517896821331        0.25280899297794
C           55.38423754373979       -0.03239274416501        0.00062333087328
C           54.60708597176379       -1.23140985769341       -0.34348512638003
C           55.16329998808936       -2.34952675121482       -0.87743775063306
C           54.13438629576578       -3.32852382019750       -1.00832562531492
C           52.98192799467105       -2.77343786008635       -0.54880133937450
N           53.21251167650030       -1.43537652054964       -0.13062393409701
C           51.70741595767815       -3.49754029741047       -0.47079921497712
C           51.71067229575387       -4.98342232425076       -0.54869967769213
C           51.14427208540164       -5.64548941277814       -1.64872836757021
C           51.17383192733441       -7.03584840108610       -1.72615802168470
C           51.76968056419337       -7.79358698330296       -0.70621287861653
C           51.80684240879722       -9.26746465637639       -0.79412373445187
O           52.36704196920496       -9.95642241564005        0.05588102882977
C           52.33620981149600       -7.12818171104014        0.39492599322142
C           52.30802445184604       -5.73829697710944        0.47020432191165
C           50.52831481938581       -2.84761282035182       -0.32691561332511
C           49.21350529405776       -3.46407582309132       -0.21103318788844
C           48.33978169811529       -2.45909535205160       -0.12503125196958
C           49.09622731247206       -1.21402031530413       -0.17423059304816
N           50.38852423995285       -1.43569603988781       -0.28825506029698
H           47.39689821913554        0.13503131267238       -0.13126495363365
H           47.43242129644231        2.75330637489860        0.05192250204523
H           49.25389727062865        4.53503628163004        0.33559317400163
H           52.39098954236952        4.76293857279748        2.70620499669446
H           52.46077885522302        7.19617460776375        3.03198434190714
H           51.89571329252774        9.77905762984378        0.28366328808749
H           51.61151714134987        7.77483267379813       -1.15909755041205
H           51.55356730401312        5.33752341540597       -1.47868637407143
H           54.69835621685994        4.36930063159736        0.89373816295866
H           56.51480885510235        2.56166620396402        0.71079917557941
H           56.20231171683707       -2.47281628879595       -1.13720819249489
H           54.24479861264899       -4.33248956479353       -1.38839267949815
H           50.68809072921888       -5.07565047049768       -2.45222590730060
H           50.73585656036184       -7.52908106080079       -2.58879020581263
H           51.32520379137955       -9.75456567126029       -1.64883833710871
H           52.80305482603652       -7.69085006420505        1.19748873603939
H           52.75083651536239       -5.23998813478480        1.32701965367752
H           48.96148196715327       -4.51627181500573       -0.19195911192141
H           47.27130770547261       -2.56646011028126       -0.02672724147451
Co          84.59500306857039       -0.01421058995387        0.00254933427079
C           87.96033451348796       -0.11494559472234       -0.12976259507085
C           87.28814866582297       -1.28512469418777       -0.19565110532482
C           87.94521722886481       -2.58067001726449       -0.28848887278830
C           86.99654398160348       -3.51351366145754       -0.27464567195592
C           85.69990927685997       -2.83621723501022       -0.17811780697594
N           85.88579312729227       -1.43528051506858       -0.12995655230783
C           84.49687738228994       -3.47128335337955       -0.09285158705769
C           84.47108605693556       -4.95595704826116       -0.11208990196234
C           84.21834085425212       -5.67111979858242        1.06548613233693
C           84.18090931514675       -7.06242879166794        1.04975901265079
C           84.40070711331531       -7.76722463349189       -0.14615772308787
C           84.36381753936855       -9.24323503824791       -0.16619728404610
O           84.13560530832818       -9.90277858902794        0.84651692936853
C           84.65661543060870       -7.04694048498193       -1.32293057793241
C           84.69092979682441       -5.65497811474795       -1.30681320764801
C           83.22170459283713       -2.76512393948769        0.02689814697366
C           81.93051645137848       -3.43366505488843        0.19024789541595
C           80.98586326894889       -2.49313542275401        0.23047572069742
N           83.07003057907453       -1.45573743810167       -0.03709646138254
C           81.66750438062883       -1.21990669297804        0.08251911144097
C           81.05795911074286       -0.00846076758045        0.00254967894899
C           81.83389164641262        1.22712773649203       -0.16730951202366
C           81.27744649156084        2.41000187890338       -0.53681597085348
C           82.30637065898080        3.39743479589578       -0.52697962015479
C           83.45894278252197        2.78261010570603       -0.15118776032494
N           83.22833912305231        1.39862538160273        0.07228264692063
C           84.73341632192442        3.48819444575230        0.02915956811618
C           84.73019110876248        4.97005097067433        0.16364784705214
C           85.29660205583741        5.78202146932701       -0.83087818887013
C           85.26704611746217        7.16923678350209       -0.70951865486156
C           84.67119463378309        7.77400152271628        0.40793534482857
C           84.63402348202715        9.24538826282896        0.53081916820851
O           84.07386543473530        9.80626111563991        1.47025070822244
C           84.10466478849385        6.95857612884330        1.40309264632978
C           84.13285602020416        5.57213668679485        1.27966971902456
C           85.91252576452200        2.82437568886105        0.07904239749374
C           87.22737065096207        3.41808295575803        0.28150127261396
C           88.10108408403892        2.41110690154810        0.22351838452947
C           87.34469500284067        1.18563257156857       -0.00249712635939
N           86.05228455817921        1.42138769173976       -0.08375989986625
H           89.04398286379978       -0.15566934978075       -0.15205602995083
H           89.00845051408935       -2.77336032572069       -0.34361252580291
H           87.18697806259749       -4.57733525470027       -0.31656142359968
H           84.04988572688862       -5.14050214336787        1.99743244848057
H           83.98009776495138       -7.59532986691530        1.97338799986496
H           84.54516564947602       -9.76050136611248       -1.11475098187862
H           84.82936182587331       -7.57125454320499       -2.25739307035119
H           84.88731136831814       -5.11327216319555       -2.22662810103697
H           81.74249656705412       -4.49270495799771        0.25948652042415
H           79.92539754691029       -2.67742351108736        0.33573187097486
H           80.23847170761795        2.56882695114325       -0.77632099550522
H           82.19605363266106        4.44530760535123       -0.76017285417952
H           85.75278690534802        5.33241207679754       -1.70733748378769
H           85.70502016198630        7.78028879574775       -1.49312450362008
H           85.11567351642806        9.84923314344609       -0.24582907529241
H           83.63781903441134        7.40121841718685        2.27760165080183
H           83.69004009782260        4.95688690192716        2.05679233432850
H           87.47938948130246        4.45685252180510        0.45023324622986
H           89.16956446509727        2.50339110755158        0.33611343516626
C           57.11894953580478       -0.02071174173987        0.00525628499156
C           58.32854699492218       -0.02815884304247        0.00418777330206
C           67.63917421271701       -0.03294466352514        0.00331979087464
C           68.79786081458406       -0.03136900750714        0.00457102154143
C           78.10933410703929       -0.03105188418653        0.00286371177590
C           79.31909416134580       -0.02210354817090        0.00528626264595
Co          62.99952326441507       -0.02184946648344        0.01496341564989
C           59.61882257044073        0.01113967662525       -0.00611618006388
C           60.24668824586222        1.17000757228325        0.30602330102420
C           59.57740161376169        2.44004660225424        0.56371547876470
C           60.52464390113206        3.32521119833607        0.86960761421355
C           61.81298118828651        2.63892091897906        0.82149912623098
N           61.63359936541528        1.28469874637599        0.45662885267484
C           63.01108544022925        3.22334667169131        1.10645637659253
C           63.03618609707963        4.64437469011025        1.52869480939691
C           63.53465673889605        5.62573300419561        0.66185338089975
C           63.57767871736887        6.95856328646815        1.05944361352964
C           63.12331827437544        7.33567571929655        2.33520520574658