185
 energy: -326.456766026425 gnorm: 1.359168228431 xtb: 6.5.1 (b24c23e)
Zn          30.50883200000000       -0.01881100000000       -0.00598700000000
C           27.17083500000000        0.10434400000000        0.06609100000000
C           27.83281000000000        1.25378800000000        0.22701300000000
C           27.18194000000000        2.55109500000000        0.36418800000000
C           28.12190900000000        3.46175300000000        0.53687500000000
C           29.42698600000000        2.78633700000000        0.53087800000000
N           29.25020000000000        1.38431900000000        0.32379400000000
C           30.61892000000000        3.39219100000000        0.71253200000000
C           30.66813000000000        4.85065600000000        0.96480200000000
C           30.18545100000000        5.37979900000000        2.17251000000000
C           30.24840500000000        6.75564500000000        2.41299500000000
C           30.79924000000000        7.61219000000000        1.45133400000000
C           30.86525200000000        9.02841200000000        1.70004700000000
N           30.91831100000000       10.16698800000000        1.90009400000000
C           31.28834800000000        7.08718700000000        0.24840000000000
C           31.22503100000000        5.71153000000000        0.00660700000000
C           31.91035300000000        2.65646700000000        0.68101600000000
C           33.19369400000000        3.24154600000000        1.08831000000000
C           34.12849600000000        2.33165200000000        0.90350000000000
N           32.05338200000000        1.43462100000000        0.26742500000000
C           33.44871200000000        1.15391700000000        0.37831500000000
C           34.04327200000000        0.01188300000000       -0.00345600000000
C           33.28005900000000       -1.14820800000000       -0.51488400000000
C           33.81097700000000       -2.14072700000000       -1.21774000000000
C           32.76836100000000       -3.12652400000000       -1.42723500000000
C           31.67045300000000       -2.67263100000000       -0.83372000000000
N           31.90384900000000       -1.39930700000000       -0.22981400000000
C           30.39195900000000       -3.42396800000000       -0.74759800000000
C           30.41521800000000       -4.88950700000000       -0.97514000000000
C           29.73104700000000       -5.45354900000000       -2.06458500000000
C           29.77292900000000       -6.83354600000000       -2.28494900000000
C           30.50458400000000       -7.66042200000000       -1.42334300000000
C           30.54859900000000       -9.08098500000000       -1.65138000000000
N           30.58402300000000      -10.22306800000000       -1.83463500000000
C           31.19631499999999       -7.10147300000000       -0.34142600000000
C           31.15439800000000       -5.72164600000000       -0.11970800000000
C           29.22963800000000       -2.80483400000000       -0.46491400000000
C           27.92235000000000       -3.44260000000000       -0.31793600000000
C           27.06036900000000       -2.46764800000000       -0.10254000000000
C           27.80857800000000       -1.21167000000000       -0.09763100000000
N           29.07360400000000       -1.39599100000000       -0.30788400000000
H           26.08747500000000        0.13217000000000        0.05673400000000
H           26.11858900000000        2.75023600000000        0.32698000000000
H           27.93387400000000        4.52050900000000        0.65813500000000
H           29.76314500000000        4.72602000000000        2.92578100000000
H           29.87032100000000        7.15070100000000        3.34829600000000
H           31.71917699999999        7.74033200000000       -0.50094100000000
H           31.60807700000000        5.31630100000000       -0.92627300000000
H           33.36436200000000        4.23764800000000        1.47509300000000
H           35.18227400000000        2.46364900000000        1.10972300000000
H           34.83674599999999       -2.22112600000000       -1.55177300000000
H           32.87747500000000       -4.06898200000000       -1.94810600000000
H           29.16969300000000       -4.82349900000000       -2.74361700000000
H           29.23820500000000       -7.25478100000000       -3.12780700000000
H           31.76823600000000       -7.73146800000000        0.32924700000000
H           31.69476700000000       -5.30107900000000        0.71960600000000
H           27.68075400000000       -4.49606800000000       -0.36906700000000
H           25.99575099999999       -2.59052500000000        0.04731000000000
Zn          63.94538099999999        0.04239600000000       -0.00764500000000
C           67.28337700000000       -0.07667700000000        0.07099400000000
C           66.62140300000000       -1.21572300000000        0.29390700000000
C           67.27227300000000       -2.50370200000000        0.50111200000000
C           66.33230399999999       -3.40367500000000        0.72284600000000
C           65.02722700000000       -2.72957500000000        0.68029400000000
N           65.20401300000000       -1.34082300000000        0.39761200000000
C           63.83529300000000       -3.32470600000000        0.89448000000000
C           63.78608299999999       -4.76737500000000        1.22533600000000
C           64.26876200000000       -5.23036100000000        2.45991900000000
C           64.20580800000000       -6.59117100000000        2.77453400000000
C           63.65497299999999       -7.49852000000000        1.86065300000000
C           63.58896099999999       -8.89920100000000        2.18567100000000
N           63.53590200000000      -10.02527700000000        2.44706300000000
C           63.16586499999999       -7.03940900000000        0.63106200000000
C           63.22918199999999       -5.67886000000000        0.31515000000000
C           62.54386000000000       -2.59176700000000        0.82318100000000
C           61.26051800000000       -3.15393900000000        1.26155100000000
C           60.32571699999999       -2.25538400000000        1.02775400000000
N           62.40083099999999       -1.39410300000000        0.34405000000000
C           61.00550100000000       -1.10780800000000        0.43958100000000
C           60.41094100000000        0.01188300000000       -0.00345600000000
C           61.17415400000000        1.14258700000000       -0.57693700000000
C           60.64323600000000        2.09560100000000       -1.33249400000000
C           61.68585199999999        3.06861100000000       -1.59504900000000
C           62.78376000000000        2.64751400000000       -0.97783200000000
N           62.55036400000000        1.40875000000000       -0.30587900000000
C           64.06225400000000        3.40241100000000       -0.93251100000000
C           64.03899500000000        4.85348300000000       -1.23905900000000
C           64.72316499999999        5.35772000000000       -2.35744100000000
C           64.68128299999999        6.72376300000000       -2.65219000000000
C           63.94962900000000        7.59607000000000       -1.83661200000000
C           63.90561300000000        9.00220500000000       -2.14121800000000
N           63.87018999999999       10.13269200000000       -2.38603300000000
C           63.25789799999999        7.09651200000000       -0.72602200000000
C           63.29981500000000        5.73071100000000       -0.42993000000000
C           65.22457500000000        2.79948900000000       -0.61672400000000
C           66.53186300000000        3.44427700000000       -0.50448800000000
C           67.39384400000000        2.48241500000000       -0.23662700000000
C           66.64563400000000        1.22854500000000       -0.16373100000000
N           65.38060900000001        1.40121200000000       -0.38365400000000
H           68.36673800000000       -0.10496800000000        0.06315800000000
H           68.33562400000000       -2.70456500000000        0.47474000000000
H           66.52033900000001       -4.45431400000000        0.90124600000000
H           64.69106800000000       -4.53676200000000        3.17669200000000
H           64.58389200000001       -6.93501300000000        3.72985100000000
H           62.73503500000000       -7.73216400000000       -0.08182100000000
H           62.84613500000000       -5.33471300000000       -0.63775800000000
H           61.08985100000000       -4.12764100000000        1.70169200000000
H           59.27193900000000       -2.37602300000000        1.24082000000000
H           59.61746700000000        2.15779800000000       -1.67038900000000
H           61.57673800000000        3.98148800000000       -2.16617700000000
H           65.28451900000000        4.69183300000000       -3.00136900000000
H           65.21600800000000        7.09875000000000       -3.51661600000000
H           62.68597700000000        7.76189100000000       -0.09043900000000
H           62.75944600000000        5.35619800000000        0.43092100000000
H           66.77345900000000        4.49343200000000       -0.61257500000000
H           68.45846200000000        2.61322400000000       -0.09364900000000
C           40.05018200000000        0.01310100000000        0.00500200000000
C           38.84124300000000       -0.00035400000000       -0.00344500000000
C           37.41971400000000        0.00846500000000       -0.01542800000000
C           36.20804399999999        0.01590400000000       -0.00456500000000
C           41.46678600000000        0.00642600000000        0.00553500000000
C           42.68748200000000        0.01590400000000       -0.00456500000000
C           55.61180199999999        0.01310100000000        0.00500200000000
C           54.40286300000000       -0.00035400000000       -0.00344500000000
C           52.98133399999999        0.00846500000000       -0.01542800000000
C           51.76966500000000        0.01590400000000       -0.00456500000000
C           57.02840700000000        0.00642600000000        0.00553500000000
C           58.24910300000000        0.01590400000000       -0.00456500000000
Zn          47.21025400000000        0.01918800000000       -0.01556800000000
C           43.77371000000000       -0.02753200000000        0.00799500000000
C           44.42927900000000       -1.13696900000000       -0.37990500000000
C           43.78855600000000       -2.40801600000000       -0.72369100000000
C           44.72505399999999       -3.25517900000000       -1.10172400000000
C           46.02219899999999       -2.57535700000000       -1.02602900000000
N           45.84426300000000       -1.23535400000000       -0.56020200000000
C           47.20662600000000       -3.13118700000000       -1.35931800000000
C           47.24222900000000       -4.51453800000000       -1.88790300000000
C           46.72099500000000       -4.80274800000000       -3.15937500000000
C           46.76976700000000       -6.10691100000000       -3.66082000000000
C           47.34432500000000       -7.13156000000000       -2.89805500000000
C           47.39567799999999       -8.47385900000000       -3.41524400000000
N           47.43709200000000       -9.55300800000000       -3.83104600000000
C           47.87112699999999       -6.84667900000000       -1.63187600000000
C           47.82206200000000       -5.54297400000000       -1.12916400000000
C           48.50357799999999       -2.42190500000000       -1.21589200000000
C           49.77219599999999       -2.91840700000000       -1.76439500000000
C           50.72440900000000       -2.08478700000000       -1.39764200000000
N           48.67135500000000       -1.32498400000000       -0.54505300000000
C           50.06951500000000       -1.04474900000000       -0.61488800000000
C           50.68452600000000       -0.02753200000000        0.00799500000000
C           49.93356699999999        1.00023000000000        0.75883400000000
C           50.46630900000000        1.80455100000000        1.66980400000000
C           49.43403700000000        2.74174800000000        2.07089900000000
C           48.34261099999999        2.44774400000000        1.37352500000000
N           48.56795699999999        1.33250000000000        0.51307200000000
C           47.08942500000000        3.23969700000000        1.40004200000000
C           47.15158699999999        4.64719500000000        1.86506400000000
C           46.44235700000000        5.05322200000000        3.00762400000000
C           46.51912200000000        6.37672600000000        3.45148700000000
C           47.31058400000000        7.30385600000000        2.76215400000000
C           47.38943700000000        8.66634000000000        3.21968400000000
N           47.45280400000000        9.76173900000000        3.58749600000000
C           48.02752800000000        6.90155800000000        1.62837800000000
C           47.95100700000000        5.57836300000000        1.18331600000000
C           45.91794199999999        2.71255900000000        0.99449400000000
C           44.64265800000000        3.41684300000000        0.90895700000000
C           43.75457099999999        2.52146900000000        0.52769200000000
C           44.45170099999999        1.24148600000000        0.36036400000000
N           45.71623400000000        1.34730300000000        0.62819400000000
H           42.73387200000000       -2.64488800000000       -0.68224800000000
H           44.53881700000000       -4.27739800000000       -1.40433500000000
H           46.27963500000000       -4.01700400000000       -3.76019800000000
H           46.36203300000000       -6.31565100000000       -4.64260300000000
H           48.31990200000000       -7.63121400000000       -1.03452400000000
H           48.23376500000000       -5.33386100000000       -0.14934200000000
H           49.92179400000000       -3.80785700000000       -2.36224400000000
H           51.77371100000000       -2.18154000000000       -1.64292200000000
H           51.48816400000000        1.79316400000000        2.02467400000000
H           49.54843699999999        3.55464900000000        2.77629200000000
H           45.83427900000000        4.34347500000000        3.55505100000000
H           45.96424399999999        6.67593800000000        4.33264400000000
H           48.64541100000000        7.60979500000000        1.08951400000000
H           48.51089500000000        5.27939300000000        0.30557800000000
H           44.43906100000000        4.46168800000000        1.10334800000000
H           42.70447000000000        2.72267400000000        0.36428800000000
185
 energy: -326.812146838085 gnorm: 0.388595976163 xtb: 6.5.1 (b24c23e)
Zn          30.51210895813936       -0.01729157332118       -0.00556162670058
C           27.17151049669680        0.08991442243305        0.06453917720358
C           27.83829237450601        1.25566807367514        0.22739420681140
C           27.18096076539912        2.54592969887499        0.36340002232001
C           28.12951746633028        3.46392023168115        0.53780879985341
C           29.42488291164197        2.78108307829972        0.53016287953878
N           29.23317628821982        1.40170461245047        0.32419256410935
C           30.63198793885854        3.38879055243877        0.71344128588726
C           30.67189878094010        4.85178947784902        0.96632459144828
C           30.18606854881625        5.38319314391850        2.16962296697755
C           30.24871862984765        6.75350027406698        2.41092577836763
C           30.79931074151380        7.61347189748473        1.45156260276842
C           30.86523360071076        9.02710310934472        1.69983774303416
N           30.91800359858717       10.16098866222808        1.89903589719783
C           31.28743402822024        7.08466968004428        0.24941254607324
C           31.22486560746817        5.71415129836095        0.01029042670941
C           31.90602578455243        2.66980147645092        0.68284213688657
C           33.18411393485595        3.25062342315978        1.08914030786467
C           34.12962482179565        2.32748327159977        0.90190782549677
N           32.06720373297553        1.43109556466282        0.27087005319007
C           33.46148917274878        1.15154270390832        0.37798688441846
C           34.06321135154919        0.00259369060964       -0.01054412289867
C           33.28362893010721       -1.13834499313629       -0.50264945216892
C           33.81374045317541       -2.15949470932643       -1.22622507186812
C           32.78781747436094       -3.12738460099135       -1.43087208834748
C           31.66238265173856       -2.66452499057674       -0.82304079852214
N           31.91335845150705       -1.40173613948309       -0.23520295553936
C           30.40325117682790       -3.41723576497886       -0.74675639070404
C           30.42025865970270       -4.88796496617739       -0.97743516295042
C           29.73244618493645       -5.45594142328556       -2.06141828100379
C           29.77370120267096       -6.83090549064204       -2.28283964088981
C           30.50462523681385       -7.66159141366581       -1.42353353505666
C           30.54863602087859       -9.07966670936010       -1.65123138305347
N           30.58378191943202      -10.21700844258231       -1.83364610707335
C           31.19493412988567       -7.09858526223903       -0.34218320268874
C           31.15371417745829       -5.72362027980923       -0.12318091303390
C           29.22758790980428       -2.80431541322151       -0.46452300814372
C           27.92823812191453       -3.44277425174539       -0.31925670776028
C           27.05226545891475       -2.45870995732516       -0.10105762632500
C           27.79186507646777       -1.20466033975184       -0.09690178332710
N           29.07225800933609       -1.40727311981926       -0.30627895857247
H           26.08788898093224        0.12844012265683        0.05690724571160
H           26.11864483217584        2.74487437401931        0.32628048141733
H           27.94049650908789        4.52113718797794        0.65872814972698
H           29.76402520343911        4.72657944824109        2.92418048575739
H           29.87088886528223        7.15057958566039        3.34722141673952
H           31.71856536797053        7.73996557527461       -0.49999097291897
H           31.60734654053225        5.31645113631443       -0.92461015513239
H           33.35902589373928        4.24108359561345        1.47536361432240
H           35.18210957679173        2.45801947183078        1.10772412867888
H           34.83747531672039       -2.22498677198001       -1.55446198708254
H           32.88114969631208       -4.06857501786865       -1.94970542710742
H           29.17085657099539       -4.82387006733035       -2.74221253244977
H           29.23899409757393       -7.25442339577214       -3.12674962558263
H           31.76741343778375       -7.73093409029772        0.32836628193509
H           31.69386455021095       -5.30117986793456        0.71815165499201
H           27.68694110177884       -4.49560503942809       -0.36986296808537
H           25.99295700841570       -2.58606538908400        0.04811214523740
Zn          63.94218365127742        0.04091459315683       -0.00713959044030
C           67.28268899490037       -0.06237301414600        0.06866599092830
C           66.61594122969512       -1.21757567146886        0.29439301052656
C           67.27325339489700       -2.49859578063656        0.50004993867192
C           66.32470196867276       -3.40578088481843        0.72389190986578
C           65.02933335502451       -2.72432738657826        0.67926541806561
N           65.22100228372778       -1.35817412146586        0.39895265990395
C           63.82215971155318       -3.32123242143467        0.89521843873409
C           63.78229482068402       -4.76844595286111        1.22693008419609
C           64.26814390058806       -5.23389852921861        2.45722425204409
C           64.20549117825249       -6.58914446319926        2.77234680648896
C           63.65490246791233       -7.49977878455041        1.86094744849805
C           63.58897987725503       -8.89792300323517        2.18539380310390
N           63.53620857239972      -10.01933182611731        2.44568260568871
C           63.16678361201510       -7.03684543823430        0.63194085939506
C           63.22934527320054       -5.68127346387028        0.31896490961459
C           62.54822433005883       -2.60497440032298        0.82573244301634
C           61.27005876026332       -3.16296256451696        1.26285541773388
C           60.32454554101538       -2.25135667925412        1.02599956393982
N           62.38694066789594       -1.39034051756307        0.34720991896118
C           60.99259488319527       -1.10545859257980        0.43912826032272
C           60.39149136686557        0.02102389250102       -0.01090467787658
C           61.17055199202296        1.13349541729919       -0.56424512580149
C           60.64044999428904        2.11392955106330       -1.34203581091337
C           61.66639208149141        3.06926877885273       -1.59872329611511
C           62.79181216530988        2.63996741217952       -0.96672941546350
N           62.54084310917350        1.41089021013892       -0.31133116676494
C           64.05099006644389        3.39573594895131       -0.93130892311026
C           64.03394768536252        4.85183764029720       -1.24127219007243
C           64.72177196567834        5.36027415508470       -2.35441098210605
C           64.68050679805040        6.72124237839861       -2.64993749384918
C           63.94958721480463        7.59721942750152       -1.83686260583184
C           63.90557729064236        9.00091283652387       -2.14099913580806
N           63.87042936263091       10.12668361305390       -2.38472030227681
C           63.25928247737971        7.09359064131718       -0.72662386898997
C           63.30048876778173        5.73249151722423       -0.43350166743869
C           65.22660985723070        2.79899534294403       -0.61630331330637
C           66.52599079065233        3.44437784359977       -0.50581498621468
C           67.40194096296388        2.47359048622194       -0.23466670992267
C           66.66232745282916        1.22159529551492       -0.16262870532223
N           65.38194603407513        1.41254335342053       -0.38265822968408
H           68.36631289859575       -0.10123776945820        0.06312709978288
H           68.33556128508042       -2.69925021873805        0.47375145292978
H           66.51371060814400       -4.45489903155284        0.90187114866126
H           64.69018745626516       -4.53740356322767        3.17512650307866
H           64.58332389127959       -6.93494527088260        3.72876654330103
H           62.73564835150752       -7.73174153128548       -0.08089077130170
H           62.84686731879756       -5.33477143025322       -0.63609425447769
H           61.09517545760704       -4.13104887836725        1.70214102516578
H           59.27208542040291       -2.37053816171826        1.23854078544359
H           59.61671797997246        2.16152389517199       -1.67328664966063
H           61.57306239816943        3.98098251213276       -2.16774476796235
H           65.28335556749016        4.69227603541309       -2.99998942002691
H           65.21521788473000        7.09844543999646       -3.51553709871362
H           62.68680191326033        7.76130551049284       -0.09128959490641
H           62.76034965945344        5.35622061476532        0.42946953779653
H           66.76727208907324        4.49292008933625       -0.61334428364382
H           68.46124593357932        2.60881450411619       -0.09260676456814
C           40.03948945881272        0.01314915592066        0.00497652834371
C           38.81630080317206        0.00019376430930       -0.00370027534514
C           37.40617667769843        0.00819581816346       -0.01474626042544
C           36.17297663002186        0.01339681346240       -0.00513582243289
C           41.39511677355973        0.00698408138691        0.00585082122070
C           42.58241420628995        0.02486780310159       -0.00210683544342
C           55.63701875437959        0.01254211223985        0.00498452755151
C           54.41347017051343        0.00039054485042       -0.00422968751777
C           53.05612705634112        0.01147962584662       -0.01472691774332
C           51.86838838422225        0.02824110485633        0.00028334382688
C           57.04501254022092        0.00708248037786        0.00518035384511
C           58.28037817600502        0.01732811299747       -0.00462231261264
Zn          47.21006852080513        0.01932288422350       -0.01458139478380
C           43.86116799978050       -0.01680773389349        0.00939257550821
C           44.46805900801455       -1.15518781278857       -0.38499210930209
C           43.79020001214606       -2.39963919173502       -0.72101043031555
C           44.73441092788369       -3.25836558228862       -1.10396724679557
C           46.02101341177026       -2.57429146121744       -1.02562406552709
N           45.83820041440197       -1.25816748919860       -0.56548040909880
C           47.21971660433223       -3.13080499915000       -1.36137612979138
C           47.24552313581108       -4.51625271796998       -1.89008627725147
C           46.72156275749224       -4.80681334217726       -3.15744508744792
C           46.77017690954551       -6.10526094494506       -3.65848736497058
C           47.34437991454908       -7.13280086551146       -2.89852945052726
C           47.39564629146171       -8.47262110040446       -3.41478474644915
N           47.43687579315201       -9.54733189148266       -3.82886040928065
C           47.87020082015810       -6.84406018699011       -1.63235054621952
C           47.82183064207977       -5.54495873174120       -1.13329559262467
C           48.49551574364128       -2.44276852425652       -1.22414131239566
C           49.75987130945519       -2.92971482902331       -1.76779882090222
C           50.72004582574247       -2.07921381278853       -1.39327653372506
N           48.67107793260015       -1.32922110637656       -0.55167357355001
C           50.03414385641059       -1.06052631197919       -0.62572707976018
C           50.59064472386896       -0.02107331766570        0.01420333425352
C           49.89986392823108        1.00358523499521        0.75635905456841
C           50.46464121250552        1.82085680769050        1.68090240061832
C           49.45216344801214        2.74379138764120        2.07526681430769
C           48.33281363027555        2.44713780832850        1.36327968094756
N           48.56504616844081        1.34016522537129        0.52228290308318
C           47.10032968649785        3.23568814083004        1.39893338209579
C           47.15615805051574        4.64586015153521        1.86734508912839
C           46.44382070782846        5.05616476326690        3.00506832975256
C           46.51988360787976        6.37445625851042        3.44909521360669
C           47.31064869391864        7.30500160813391        2.76254675850731
C           47.38941161343578        8.66508575714207        3.21931367434999
N           47.45245186074192        9.75592802165055        3.58554099755856
C           48.02604775588341        6.89866018696434        1.62858819900367
C           47.95030629494754        5.57988824178663        1.18703413115066
C           45.91749737511882        2.71550450584045        0.99531638209170
C           44.64900583394510        3.41738436833870        0.91084096184989
C           43.74841699461022        2.51107559420298        0.52444625921970
C           44.46201377435696        1.24710890164891        0.36038160810943
N           45.72695286304251        1.36409920942738        0.63129021953980
H           42.73432981365232       -2.63637759763399       -0.67955592433195
H           44.54505846322241       -4.27804390494621       -1.40538048830300
H           46.28053367366634       -4.01786820948325       -3.75878328853873
H           46.36262137757353       -6.31575759049849       -4.64158581105542
H           48.31927582779302       -7.63067884692714       -1.03536056781048
H           48.23298837630713       -5.33365261190485       -0.15100990315196
H           49.91685294098168       -3.81172694701917       -2.36374078037303
H           51.77150995766063       -2.17445537407510       -1.63835522096006
H           51.48730932618816        1.79439582532486        2.02666849139385
H           49.55240246843973        3.55419313071964        2.77848094808965
H           45.83548840230466        4.34401108274977        3.55377067053751
H           45.96506011892803        6.67573479867248        4.33158973854914
H           48.64455370368429        7.60915664461159        1.09025289746695
H           48.50994695169955        5.27925787604983        0.30699294656613
H           44.44468047883126        4.46093849757699        1.10426575821497
H           42.70201907891941        2.71604176021411        0.36242383292917
185
 energy: -326.939415918111 gnorm: 0.219517373048 xtb: 6.5.1 (b24c23e)
Zn          30.52048059521351       -0.01310976682136       -0.00301809023767
C           27.17260513021730        0.07348427906624        0.06278050901774
C           27.84118037012143        1.25694705662462        0.22650233812815
C           27.18301160562618        2.54018415379359        0.36266308193440
C           28.14085118911451        3.46479497419157        0.53927369546187
C           29.42540633940445        2.77737523188724        0.52932108811431
N           29.21135035456883        1.42391919025838        0.32265486368292
C           30.65178366576855        3.38050134849133        0.71454338673881
C           30.68209147833928        4.84896390738292        0.96976525221805
C           30.18752674225504        5.38523754059513        2.16503072794185
C           30.24856541948438        6.75057304027136        2.40723384120042