195
 energy: -347.965096843130 gnorm: 0.000713010143 xtb: 6.5.1 (b24c23e)
Zn          26.87124453774940        0.00423361083317       -0.02563212278398
C           23.46339524645776        0.06373868509686       -0.11991988163566
C           24.09890440276642        1.28941603076773        0.03726741051900
C           23.43024711941528        2.55006035566330        0.19978386195444
C           24.39305827104292        3.49408722598824        0.34586599063591
C           25.66311138618549        2.82197237044901        0.26346567207382
N           25.44926580367347        1.48726604330218        0.08291585872634
C           26.91730985001135        3.43329949715330        0.38646926814337
C           26.93727818716857        4.90340964044601        0.57806227681822
C           27.47391366920272        5.45642712183894        1.74499297174348
C           27.48767788731952        6.82569120375158        1.92680634748290
C           26.97063876093770        7.67549136430997        0.94309463145625
C           26.99818589669033        9.13297680070233        1.15930160602469
O           27.44935337644952        9.65547520563575        2.14651862814429
C           26.43769459025162        7.12476604242548       -0.22503666206257
C           26.41883840307920        5.75296280194973       -0.40338546317298
C           28.15332963689501        2.77823478689029        0.34834532072314
C           29.43627625494941        3.42192280210410        0.41820792126980
C           30.37755761485445        2.44891850062487        0.32129429059350
N           28.33997828171622        1.43015384719006        0.19899473011466
C           29.68074685795368        1.20360071003030        0.18489753650826
C           30.30578480085459       -0.05233251423148        0.04520890191640
C           29.64570583354640       -1.28799187091102       -0.11057144987280
C           30.30747118176208       -2.54912587621919       -0.27285970997323
C           29.33936086675212       -3.49221714771632       -0.39761963375553
C           28.07473023383284       -2.81568878353469       -0.30531057724308
N           28.29901548559795       -1.47527388634160       -0.13998149883418
C           26.82042692471494       -3.42843539334852       -0.40692683101443
C           26.79818652141605       -4.90322176910834       -0.55487892300556
C           26.23823130564101       -5.49343285491374       -1.69165397817425
C           26.21586194748711       -6.86984481809083       -1.82904915532684
C           26.74902854690907       -7.68606183169834       -0.82831372195919
C           26.73326165530570       -9.15473899677922       -0.94850476260755
O           27.17743024133879       -9.90016698307333       -0.11288747740308
C           27.30815249364636       -7.09636636568335        0.31045566976359
C           27.33489341386508       -5.72178504209721        0.44406779789287
C           25.58392287384398       -2.77058263128928       -0.37676600061345
C           24.29494117691753       -3.40834503783793       -0.43678185521196
C           23.35960768906062       -2.42909821113050       -0.36145555950837
C           24.06406950730053       -1.18320557794342       -0.24284244866503
N           25.40828450684942       -1.42400628836234       -0.25150959287377
H           22.37801533426308        0.08060352636552       -0.13430257424844
H           22.35976428288269        2.68273368383076        0.20823157884292
H           24.25931447455527        4.55158974555269        0.50838046248081
H           27.86414377087934        4.79980521095310        2.51444501802009
H           27.89603895429313        7.26170582864157        2.83220321000783
H           26.56529118435979        9.72577034012718        0.32532746930026
H           26.03908644540456        7.77697343774846       -0.99541600884233
H           26.01595035176238        5.32928667908659       -1.31651034029644
H           29.59503750489687        4.48388385578910        0.51394863757741
H           31.45025021557223        2.55794516335270        0.33433018353783
H           31.37677299503548       -2.68678086967006       -0.29371872967269
H           29.46879590596802       -4.55104719970702       -0.55345823734745
H           25.83546153693583       -4.86278156290269       -2.47630684706497
H           25.78416443038468       -7.31875914259075       -2.71777548725231
H           26.27004490912928       -9.53042325222994       -1.88596158493567
H           27.71676150965493       -7.73758919575938        1.08410886697807
H           27.75705931080103       -5.26843819846411        1.33387024229406
H           24.13030715282832       -4.47122329865550       -0.51263059922965
H           22.28576645553910       -2.53039459035237       -0.37504717077582
Zn          64.10686461853450       -0.02473279260808       -0.04481523882565
C           67.51563211436296       -0.07016655109064       -0.10857129888984
C           66.88045512094051       -1.30580412252203       -0.13363966694454
C           67.54937354113297       -2.57674074981402       -0.14304836917545
C           66.58658929083016       -3.53202570502815       -0.14190941461332
C           65.31640681823441       -2.85510970040289       -0.14339504536854
N           65.53001708403460       -1.50824002757037       -0.13165086446572
C           64.06185782641526       -3.47754885097812       -0.12349587274101
C           64.04132013818131       -4.96003162498672       -0.13791313111600
C           63.49067537468161       -5.66850936073282        0.93467468872733
C           63.47546722322309       -7.04972859181413        0.92528358814228
C           64.00485705755908       -7.75590292933126       -0.16019822288322
C           63.97433241242135       -9.22920957891670       -0.14858461108061
O           63.51110929350977       -9.88276094319462        0.75112242406207
C           64.55202539245050       -7.04951977804756       -1.23420990534703
C           64.57242146361183       -5.66624597790623       -1.22088959274195
C           62.82524235571782       -2.82346741758316       -0.08721893347008
C           61.54278052624296       -3.47056150665242       -0.12894146149064
C           60.60103889508574       -2.49353948992240       -0.10271613061497
N           62.63806571919385       -1.46784185358487       -0.04766331576610
C           61.29721464778835       -1.24149486920814       -0.05052239328401
C           60.67148729998016        0.02131611355422       -0.01544598147209
C           61.33103675665870        1.26641310440485        0.02273767327430
C           60.66931133901090        2.53785982002872        0.04061721098308
C           61.63738985352224        3.48880489632895        0.06831227868018
C           62.90187499486791        2.80575216371548        0.07441637231752
N           62.67772879270115        1.45568800602088        0.03808072448303
C           64.15627009792485        3.42658874816413        0.07630660387502
C           64.17801147934442        4.90732039659582        0.14446490022519
C           64.74463546971396        5.65613067710520       -0.89105152733515
C           64.76679714726120        7.03790311428831       -0.82705704565723
C           64.22699138876382        7.70022344519304        0.27832219099560
C           64.24305904012805        9.17081267357888        0.37289120164390
O           63.79349321776041        9.78722438707186        1.30513146792277
C           63.66116166008165        6.95157784582695        1.31586986849987
C           63.63439717629171        5.57213906817417        1.24824816797782
C           65.39336402628697        2.77144943402683        0.02270567610055
C           66.68188634236971        3.41140595541625        0.06738798850255
C           67.61795835259828        2.43165538300365        0.00994690842171
C           66.91431393243805        1.18152242209623       -0.05845964308292
N           65.56987953310060        1.42089321481189       -0.04571193803991
H           68.60113156994564       -0.08474309222275       -0.11386110767607
H           68.61992345937368       -2.70916543750147       -0.14151135657084
H           66.72026196148357       -4.60187078786418       -0.12850405472952
H           63.09034160913630       -5.12410778537022        1.78253359836528
H           63.05608820923131       -7.60626453550317        1.75655971482345
H           64.41966019586698       -9.70144801185993       -1.05026136469356
H           64.96037654857398       -7.58941990859970       -2.08243668569946
H           64.98629502859205       -5.12087063752556       -2.06164173765889
H           61.38492001312787       -4.53545704323096       -0.18603535710156
H           59.52850531024959       -2.60315227424615       -0.12207260429296
H           59.60011860902299        2.67738309050108        0.02740191590253
H           61.50831589342741        4.55907915870343        0.06963376441183
H           65.15290751899342        5.14589140027393       -1.75626404010818
H           65.20360796262770        7.61104178149915       -1.63849245565394
H           64.71025586173910        9.67842888653134       -0.49804536090532
H           63.24750669784930        7.47377894253143        2.17194265186442
H           63.20684287911302        4.99443685576157        2.06000567017952
H           66.84552464084842        4.47419397273015        0.14661145676160
H           68.69172726618561        2.53404689897767        0.02133534961412
C           31.71055272077123       -0.07146505512181        0.05410405344106
C           32.93536151444131       -0.07531324715148        0.06064530630236
C           34.27772899654884       -0.07989244335356        0.06342642531961
C           35.50864525541474       -0.08003011845624        0.06394650191657
C           36.84618831659495       -0.07898579237364        0.06416827713551
C           38.07709002959359       -0.07229873605553        0.06263964489396
C           39.41919644524271       -0.06679743000264        0.05676611022548
C           40.64416450040837       -0.05945113608211        0.04742126072569
C           50.33300336659188        0.01074708787804       -0.07660383526363
C           51.55796893820116        0.02094122219660       -0.07768149932451
C           52.90012040692719        0.02993624126883       -0.07512780689758
C           54.13110108823340        0.03601021849855       -0.07185188821566
C           55.46863159737567        0.04218939580276       -0.06191543561424
C           56.69946185849569        0.04686803598795       -0.05079676332891
C           58.04180700226311        0.04536278778463       -0.03653310216350
C           59.26653645967139        0.03810777426277       -0.02547235730192
Zn          45.48859434132920       -0.02493185600420       -0.01344826305303
C           42.04830370974721       -0.05056446583579        0.03455757489647
C           42.68842004022594        1.15681670247951        0.38135341233740
C           42.00672927117329        2.37110002258110        0.71883478611670
C           42.95994092622406        3.29578064942262        1.00111733807609
C           44.23368841501335        2.65047876947574        0.84598400280416
N           44.03181132357398        1.35313474519182        0.45870643146530
C           45.47868102636240        3.26174687899461        1.03373180615544
C           45.47459967766863        4.67190139809175        1.49233726492320
C           46.03632428017839        5.67763416859766        0.69971986662799
C           46.03174577056928        6.99022057234398        1.13048550619193
C           45.47082598415249        7.32752336531157        2.36687035665978
C           45.48248341044132        8.73432590618978        2.80660067904026
O           45.94954029592716        9.63498667249054        2.15728704808225
C           44.91074315635062        6.32353609881947        3.16065379310630
C           44.91020204177158        5.01031579567303        2.72557041594134
C           46.72731675566745        2.66314559157873        0.83048581505989
C           47.99763156895774        3.28760136141708        1.07451294253605
C           48.95607037876051        2.37677227358970        0.76670496913691
N           46.93664654818025        1.38209368630015        0.39546163964029
C           48.28125584003927        1.18600325275942        0.34242707401833
C           48.92874337441676        0.00161190966495       -0.06457733473492
C           48.28789994791568       -1.19252930955136       -0.45331436091517
C           48.96786255010991       -2.37337448523560       -0.89629659042793
C           48.01485760855572       -3.30148188016221       -1.16798690967727
C           46.74330182050598       -2.69739205996764       -0.88310155388883
N           46.94571438107051       -1.41091466151119       -0.46123275986772
C           45.49881836954070       -3.31904150120120       -1.03791367280363
C           45.50265374237199       -4.73597818033127       -1.47487003214073
C           46.10920174670109       -5.71686594450313       -0.68502513100737
C           46.10904910439351       -7.04059315265301       -1.08708385355660
C           45.50648014811595       -7.40999829832525       -2.29214070117045
C           45.49445271182481       -8.81285743034010       -2.74412966646988
O           44.98843555243050       -9.18038349716635       -3.77367820110611
C           44.90263308232642       -6.42830704040633       -3.08504027932261
C           44.89838695295401       -5.10762417530566       -2.67993913164058
C           44.25051649289620       -2.72563173838631       -0.81759083533735
C           42.98252706259270       -3.39080510344435       -0.93102996640701
C           42.02395207098721       -2.47692792678073       -0.63268186432096
C           42.69677804759919       -1.25010083730683       -0.32383056739653
N           44.04029843596135       -1.42790562343278       -0.43547690628322
H           40.93563199030547        2.49515276101585        0.72980480759936
H           42.81438276819545        4.32776148369902        1.27680992976801
H           46.46121838031549        5.42107634935990       -0.26416704388396
H           46.46049325308132        7.77694330977307        0.51895959872283
H           45.01890220732735        8.90463380474267        3.80178394807414
H           44.47657978936870        6.57590855211919        4.12268174490911
H           44.48593830938022        4.23131619841583        3.34913264920801
H           48.13777462620115        4.28989628062789        1.44577596797082
H           50.02655433207956        2.49185117198558        0.82608253611746
H           50.03749739996834       -2.47014310319609       -0.99277007876736
H           48.15891351262624       -4.30248840473988       -1.54142376194860
H           46.56634551084663       -5.43514996188363        0.25690839755037
H           46.57648176463630       -7.79623352595850       -0.46405135082685
H           45.99562609811542       -9.51999589617559       -2.04920320601069
H           44.44089228032239       -6.72355742286214       -4.02111540080305
H           44.44043597812735       -4.34736841841999       -3.30262030080451
H           42.84413685908279       -4.42738761904789       -1.19262450481968
H           40.95488646037163       -2.61629386674741       -0.61372176873215
