183
 energy: -312.833693146587 gnorm: 1.412270291514 xtb: 6.5.1 (b24c23e)
Fe          22.59227300000000        0.05919200000000        0.01091400000000
C           19.25571000000000       -0.09687800000000        0.00050100000000
C           19.91981900000000       -1.24908200000000       -0.12732800000000
C           19.27014100000000       -2.54582300000000       -0.27771800000000
C           20.21197000000000       -3.46953600000000       -0.32511000000000
C           21.51679900000000       -2.80511500000000       -0.20564200000000
N           21.33851300000000       -1.39353600000000       -0.08520600000000
C           22.70700200000000       -3.43684200000000       -0.16046200000000
C           24.00063500000000       -2.72080400000000       -0.00999400000000
C           25.29117800000000       -3.39560200000000        0.17491800000000
C           26.22589400000000       -2.46912600000000        0.23271200000000
N           24.14125300000000       -1.43174900000000       -0.06996200000000
C           25.54075800000000       -1.19171300000000        0.07731000000000
C           26.13533200000000        0.01071500000000        0.00662200000000
C           25.37431800000000        1.26829900000000       -0.17228800000000
C           25.91128600000000        2.41337000000000       -0.57449300000000
C           24.86755100000000        3.41812000000000       -0.53243500000000
C           23.76153300000000        2.82167500000000       -0.10314200000000
C           22.47642500000000        3.52368900000000        0.14806200000000
C           22.49554500000000        4.99848900000000        0.30602200000000
C           21.83628200000000        5.82444200000000       -0.62022600000000
C           21.87498400000000        7.21455500000000       -0.47512800000000
C           22.57653900000000        7.78851400000000        0.58884700000000
C           23.24258200000000        6.97328000000000        1.50834500000000
C           23.20578800000000        5.58262700000000        1.36742200000000
C           21.31137700000000        2.85368600000000        0.23676400000000
C           19.99901800000000        3.43462200000000        0.51554800000000
C           19.13742500000000        2.43755000000000        0.46306400000000
C           19.89040700000000        1.22060200000000        0.16478000000000
N           21.15855800000000        1.45070900000000        0.03134800000000
N           23.99129200000000        1.43304900000000        0.14388200000000
C           22.74578300000000       -4.91175100000000       -0.25236900000000
C           22.64479500000000       -5.54390300000000       -1.50126500000000
C           22.68288700000000       -6.93915100000000       -1.58585700000000
C           22.82280300000000       -7.70768500000000       -0.42625800000000
C           22.92465100000000       -7.08210200000000        0.81999300000000
C           22.88627000000000       -5.68715200000000        0.90884500000000
H           18.17230899999999       -0.12547800000000       -0.00248800000000
H           18.20581500000000       -2.73554000000000       -0.33224100000000
H           20.02653700000000       -4.53140200000000       -0.42289400000000
H           25.46859800000000       -4.46045300000000        0.24702300000000
H           27.28456400000000       -2.65361000000000        0.35756300000000
H           26.94062600000000        2.58105200000000       -0.86165400000000
H           24.98040100000000        4.46476300000000       -0.78385300000000
H           21.29742200000000        5.39113000000000       -1.45390700000000
H           21.36371200000000        7.84699400000000       -1.18928200000000
H           22.60643900000000        8.86478300000000        0.69914100000000
H           23.78838400000000        7.41904100000000        2.32981700000000
H           23.72687700000000        4.96073400000000        2.08504100000000
H           19.75417300000000        4.46683100000000        0.72848500000000
H           18.07014900000000        2.51901900000000        0.62193900000000
H           22.53672000000000       -4.95635400000000       -2.40472500000000
H           22.60432300000000       -7.42461400000000       -2.54998000000000
H           22.85244100000000       -8.78750300000000       -0.49339600000000
H           23.03324900000000       -7.67811200000000        1.71685000000000
H           22.96590700000000       -5.21086700000000        1.87835500000000
Fe          62.04876100000000       -0.03790200000000        0.00880500000000
C           65.38532400000000        0.11847300000000        0.00517900000000
C           64.72121500000000        1.27514100000000       -0.07249900000000
C           65.37089400000001        2.57718900000000       -0.16644000000000
C           64.42906499999999        3.50208800000000       -0.17367800000000
C           63.12423600000000        2.83310700000000       -0.08317300000000
N           63.30252200000000        1.41762900000000       -0.02414400000000
C           61.93403200000000        3.46227500000000       -0.01060500000000
C           60.64039900000000        2.74038000000000        0.10862900000000
C           59.34985600000000        3.40651200000000        0.32266800000000
C           58.41514100000000        2.47840000000000        0.34017800000000
N           60.49978100000000        1.45514400000000       -0.00725500000000
C           59.10027600000000        1.20894000000000        0.12945500000000
C           58.50570199999999        0.01071500000000        0.00662200000000
C           59.26671700000000       -1.23791400000000       -0.22672600000000
C           58.72974900000000       -2.36444000000000       -0.67827200000000
C           59.77348400000000       -3.37006900000000       -0.67988200000000
C           60.87950100000000       -2.79282700000000       -0.22509500000000
C           62.16461000000000       -3.50508700000000       -0.00461200000000
C           62.14549000000000       -4.98535500000000        0.08916100000000
C           62.80475299999999       -5.77030900000000       -0.87207700000000
C           62.76605099999999       -7.16541200000000       -0.78747800000000
C           62.06449600000000       -7.78502900000000        0.25057100000000
C           61.39845200000000       -7.01049100000000        1.20460100000000
C           61.43524700000000       -5.61503000000000        1.12419600000000
C           63.32965700000000       -2.83956800000000        0.11310000000000
C           64.64201700000000       -3.43206100000000        0.36639500000000
C           65.50360999999999       -2.43365100000000        0.35725600000000
C           64.75062800000001       -1.20489800000000        0.11209600000000
N           63.48247700000000       -1.42899500000000       -0.03120300000000
N           60.64974200000000       -1.41623700000000        0.08199200000000
C           61.89525100000000        4.93978500000000       -0.03838200000000
C           61.99624000000000        5.62556900000000       -1.25865100000000
C           61.95814700000000        7.02317500000000       -1.28257900000000
C           61.81823200000000        7.74063100000000       -0.09070200000000
C           61.71638299999999        7.06152500000000        1.12720900000000
C           61.75476500000000        5.66403100000000        1.15540600000000
H           66.46872600000000        0.14717600000000        0.00343400000000
H           66.43522000000000        2.76909400000000       -0.21267400000000
H           64.61449800000000        4.56719900000000       -0.22526200000000
H           59.17243700000000        4.46722700000000        0.44094200000000
H           57.35647000000000        2.65728900000000        0.47292200000000
H           57.70040900000000       -2.51949500000000       -0.97244400000000
H           59.66063299999999       -4.40480800000000       -0.97651100000000
H           63.34361200000000       -5.30120600000000       -1.68615700000000
H           63.27732300000000       -7.76624400000000       -1.52842000000000
H           62.03459500000000       -8.86507300000000        0.31402800000000
H           60.85265100000000       -7.49150100000000        2.00594300000000
H           60.91415700000000       -5.02488400000000        1.86814200000000
H           64.88686100000000       -4.47254300000000        0.53431100000000
H           66.57088500000000       -2.52194100000000        0.51244300000000
H           62.10431499999999        5.07780400000000       -2.18677100000000
H           62.03671100000000        7.55004400000000       -2.22471300000000
H           61.78859400000000        8.82234700000000       -0.11088900000000
H           61.60778600000000        7.61802800000000        2.04910000000000
H           61.67512799999999        5.14609800000000        2.10332000000000
C           28.71915200000000        0.02437300000000        0.01617500000000
C           30.17737800000000        0.00253600000000       -0.00169800000000
C           31.31130600000000       -0.01821700000000       -0.00318900000000
C           32.67268800000000       -0.03080700000000       -0.00538000000000
C           33.94690700000000       -0.02050100000000       -0.01014500000000
C           35.13536900000000       -0.00170200000000       -0.01630100000000
C           36.48773000000000        0.02308200000000       -0.00043300000000
C           37.58799700000000        0.02437300000000        0.01617500000000
C           46.93771700000000        0.02437300000000        0.01617500000000
C           48.39594300000000        0.00253600000000       -0.00169800000000
C           49.52987100000000       -0.01821700000000       -0.00318900000000
C           50.89125300000000       -0.03080700000000       -0.00538000000000
C           52.16547200000000       -0.02050100000000       -0.01014500000000
C           53.35393400000000       -0.00170200000000       -0.01630100000000
C           54.70629500000000        0.02308200000000       -0.00043300000000
C           55.80656199999999        0.02437300000000        0.01617500000000
Fe          42.24501500000000        0.06804900000000        0.02336700000000
C           38.87080699999999       -0.02891000000000       -0.01819000000000
C           39.52962800000000       -1.20198200000000       -0.02299800000000
C           38.88417999999999       -2.51667100000000       -0.01107700000000
C           39.82392599999999       -3.43935400000000       -0.01935600000000
C           41.12759000000000       -2.76943600000000       -0.04074500000000
N           40.95165400000000       -1.35091500000000       -0.03982500000000
C           42.31412100000000       -3.40868400000000       -0.05918900000000
C           43.62324300000000       -2.71259300000000       -0.08486800000000
C           44.90820500000000       -3.41618400000000       -0.18289700000000
C           45.86285099999999       -2.51199000000000       -0.17719300000000
N           43.78416100000000       -1.42584500000000       -0.02090200000000
C           45.19671199999999       -1.21862100000000       -0.07340300000000
C           45.81877799999999       -0.02891000000000       -0.01819000000000
C           45.09445000000000        1.25944600000000        0.09594300000000
C           45.69519600000000        2.43186300000000        0.25035500000000
C           44.66462700000000        3.44469000000000        0.28995000000000
C           43.49522300000000        2.83110500000000        0.15017700000000
C           42.18841199999999        3.54050700000000        0.11411400000000
C           42.19757500000000        5.02267600000000        0.13676200000000
C           41.82994100000000        5.71517700000000        1.30181800000000
C           41.85399100000000        7.11298300000000        1.32527600000000
C           42.25070700000000        7.82508900000000        0.18917000000000
C           42.62110900000000        7.14072900000000       -0.97238900000000
C           42.59690800000000        5.74262000000000       -1.00037700000000
C           41.00631199999999        2.89545000000000        0.06151600000000
C           39.69765300000000        3.53915700000000       -0.00378300000000
C           38.81196600000000        2.56778900000000       -0.04501700000000
C           39.54026200000000        1.29492200000000       -0.00802900000000
N           40.82502700000000        1.47795800000000        0.05292000000000
N           43.67422100000000        1.41814500000000        0.02573900000000
C           42.33590200000000       -4.88732900000000       -0.06529700000000
C           42.19523800000000       -5.59085000000000       -1.27169100000000
C           42.23289800000000       -6.98854100000000       -1.27601800000000
C           42.41205500000000       -7.68820100000000       -0.07890200000000
C           42.55246200000000       -6.99097400000000        1.12509500000000
C           42.51702500000000       -5.59337200000000        1.13337600000000
H           37.82390300000000       -2.73070400000000        0.00527200000000
H           39.63761900000000       -4.50567500000000       -0.00857900000000
H           45.06471000000000       -4.48417300000000       -0.25323000000000
H           46.92199400000000       -2.72215500000000       -0.23998300000000
H           46.75795500000000        2.61577300000000        0.32799500000000
H           44.83038299999999        4.50672000000000        0.40414800000000
H           41.52961100000000        5.17239500000000        2.18909600000000
H           41.56837100000000        7.64476700000000        2.22448500000000
H           42.27119000000000        8.90674400000000        0.21069400000000
H           42.93054000000000        7.69308800000000       -1.85026500000000
H           42.89058699999999        5.22122100000000       -1.90322100000000
H           39.47040600000000        4.59771500000000       -0.02178400000000
H           37.74182800000000        2.71312500000000       -0.09971600000000
H           42.05997300000000       -5.05678400000000       -2.20388400000000
H           42.12570900000000       -7.52958200000000       -2.20722700000000
H           42.44284499999999       -8.76967300000000       -0.08377600000000
H           42.69120200000000       -7.53444600000000        2.05100500000000
H           42.63045300000000       -5.06078700000000        2.06932800000000
183
 energy: -313.234673281271 gnorm: 0.523045268077 xtb: 6.5.1 (b24c23e)
Fe          22.60396924736694        0.05168209064960        0.00982612385431
C           19.25667885791685       -0.08282135991317        0.00251935887291
C           19.92630820003875       -1.24936402122364       -0.12733683054445
C           19.27005265360473       -2.53959401226064       -0.27740489472030
C           20.22068635958967       -3.47061446549344       -0.32508409148371
C           21.51643353293674       -2.79710805184575       -0.20528290339423
N           21.32870371015244       -1.39898148382143       -0.08614825458115
C           22.71922520635400       -3.43265023151731       -0.15828204374618
C           23.99436668229778       -2.73191634702427       -0.01031268591608
C           25.28095624363357       -3.40307170957594        0.17272816970291
C           26.22583364779569       -2.46282722780409        0.23348468217997
N           24.14353354975881       -1.42580632297174       -0.06919250686273
C           25.54708897366060       -1.18728576080693        0.07711758690705
C           26.11968337217021        0.02334737459606        0.00538621709092
C           25.37153324112438        1.25349362132014       -0.16506343022202
C           25.91262236597502        2.43007268858623       -0.57816005635979
C           24.88457260034663        3.41929443916868       -0.53453816340055
C           23.75128208351295        2.81108756880380       -0.09502662861441
C           22.48684649984324        3.51727862960654        0.14720979163830
C           22.50059092449927        4.99815432274326        0.30355085688634
C           21.83752663275388        5.82534992511076       -0.61660792035303
C           21.87675425795627        7.21173749906635       -0.47222367586900
C           22.57644962381919        7.78510575134858        0.58850159410039
C           23.24019163507548        6.97132256852444        1.50541714054451
C           23.20521781798177        5.58480426012287        1.36444977662270
C           21.31107387334265        2.85101522703634        0.23672703283007
C           20.00585558725133        3.43435935872932        0.51451035818476
C           19.13060686788468        2.42781080988611        0.46156808106045
C           19.87645822274424        1.21206273261668        0.16398215282584
N           21.16330602062989        1.45405518892584        0.03602894541225
N           23.98630683699207        1.43230744182591        0.13841371263997
C           22.74885426359239       -4.91436093910117       -0.25232086247325
C           22.64484802889773       -5.54647166141877       -1.49813007073806
C           22.68298276566374       -6.93751462878202       -1.58215501364038
C           22.82272082878455       -7.70430828242325       -0.42606258678836
C           22.92412272467009       -7.08017585067538        0.81660118677352
C           22.88686136634683       -5.68963914933915        0.90567365800813
H           18.17284409165481       -0.12195156242508       -0.00167758509238
H           18.20628820586968       -2.72998605822472       -0.33185388484965
H           20.03351652727800       -4.53147811180303       -0.42282271319169
H           25.46300703737855       -4.46316785980717        0.24647060250952
H           27.28404826943808       -2.64677286233169        0.35723086483537
H           26.94096555372882        2.58408822909899       -0.86246140041499
H           24.98365853253232        4.46446372941924       -0.78500329444830
H           21.29850955790354        5.39075373630029       -1.45257242066690
H           21.36432535589490        7.84587593282214       -1.18855291898167
H           22.60645334321799        8.86381276061597        0.69899122931363
H           23.78768476032317        7.41820416104410        2.32893213600356
H           23.72600196314526        4.96081765800735        2.08371776729710
H           19.76057595320425        4.46626252156635        0.72753425733601
H           18.06793906775622        2.51425162571813        0.62133686246649
H           22.53703146483379       -4.95642909013706       -2.40294858202764
H           22.60441138581845       -7.42389280816140       -2.54894454690266
H           22.85244664445949       -8.78654190370712       -0.49334796663951
H           23.03304665058055       -7.67733542836484        1.71594220505197
H           22.96573553473763       -5.21084553800396        1.87668821598247
Fe          62.03771589739110       -0.03034148887128        0.00812868550485
C           65.38439068069512        0.10442204657897        0.00662463039839
C           64.71483918810176        1.27541874927459       -0.07228015050313
C           65.37099408404126        2.57091461722300       -0.16638394631503
C           64.42030505971935        3.50313694485698       -0.17357420198404
C           63.12453951614570        2.82513683949829       -0.08330269934918
N           63.31222112059579        1.42293539554875       -0.02500571010581
C           61.92182513969505        3.45801946942838       -0.00890723377873
C           60.64654853640763        2.75140248805504        0.10860538018161
C           59.36016338535578        3.41407936075202        0.32096385973700
C           58.41520105686615        2.47214725082591        0.34041446995545
N           60.49677493203924        1.44899639133695       -0.00581318587088
C           59.09342501510667        1.20443214518074        0.12941748118497
C           58.51598794739543       -0.00109517372986        0.00407178084710
C           59.26903205493961       -1.22349700922342       -0.21841669028237
C           58.72828748883253       -2.38071939214275       -0.68226006852956
C           59.75690039796830       -3.37127961859014       -0.68208626772182
C           60.88950417494382       -2.78281438512824       -0.21646528598996
C           62.15435565496168       -3.49871908760744       -0.00522574803226
C           62.14049878494577       -4.98492575466524        0.08681038910567
C           62.80350888946024       -5.77136112597251       -0.86848464235024
C           62.76426753979913       -7.16271891332901       -0.78445526890519
C           62.06458527459610       -7.78161130439226        0.25037365673697
C           61.40083044478682       -7.00841459217342        1.20175891707804
C           61.43581248284296       -5.61709437501312        1.12115149411453
C           63.32990491630716       -2.83698584497229        0.11307683644616
C           64.63521220585700       -3.43176916261345        0.36538021505921
C           65.51042218940655       -2.42391378702930        0.35617660436141
C           64.76451617978849       -1.19635727023217        0.11171057085876
N           63.47784894016271       -1.43245438651246       -0.02667964726748
N           60.65380934771976       -1.41476858898013        0.07571571425165
C           61.89223434078482        4.94239251827557       -0.03817840928655
C           61.99618958708099        5.62799364188846       -1.25539260203634
C           61.95804432006178        7.02137491415693       -1.27894633865840
C           61.81831353885251        7.73725165321571       -0.09065143801779
C           61.71690108074266        7.05975261244440        1.12373989265248
C           61.75418164417759        5.66666517749189        1.15235598661485
H           66.46820666544889        0.14361770302854        0.00404077171022
H           66.43474994903031        2.76352508253041       -0.21255259149883
H           64.60751585070319        4.56725788896633       -0.22517939391289
H           59.17807078363813        4.46997880757947        0.44053422258243
H           57.35706206204223        2.65054625241423        0.47230523319835
H           57.70009394852805       -2.52250949723996       -0.97336452700672
H           59.65748182717477       -4.40449269202002       -0.97772521162728
H           63.34252529826775       -5.30088410729070       -1.68480152990033
H           63.27670760986533       -7.76515411781754       -1.52764246557011
H           62.03458399491415       -8.86409796825683        0.31392144961564
H           60.85334882842572       -7.49063078837144        2.00509707139045
H           60.91503212049840       -5.02491372210484        1.86682064756984
H           64.88047094900612       -4.47194187140190        0.53337999581060
H           66.57309235333602       -2.51715740964147        0.51205828547825
H           62.10400642207970        5.07780102289859       -2.18498910507132
H           62.03662233197841        7.54927617026977       -2.22370894494986
H           61.78859125678807        8.82138715916374       -0.11088319321931
H           61.60798633065464        7.61729726821148        2.04816130748972
H           61.67530073583736        5.14615168674967        2.10165490191631
C           28.74286283228793        0.02385954155899        0.01558976633489
C           30.08999677424656        0.00356019918864       -0.00133477968585
C           31.35181093527080       -0.01882712328732       -0.00310375839245
C           32.64052730053563       -0.03103187080633       -0.00543842944671
C           33.91652942841716       -0.02073756120748       -0.01018422956578
C           35.13430840438138       -0.00099368796835       -0.01633262552436
C           36.42162255111383        0.02322759674566       -0.00173337971073
C           37.62021089333307        0.02701229676166        0.01815323656419
C           47.03809285469499        0.03615485110728        0.01680555244127
C           48.34215907372575        0.00375857839000       -0.00143954717391
C           49.58193393395823       -0.01847824386164       -0.00279751016081
C           50.86845822612457       -0.03099727851460       -0.00557830926346
C           52.14398363650663       -0.02084919266725       -0.01016293298653
C           53.36477174231440       -0.00132036471500       -0.01641143017950
C           54.68462437423052        0.02277941386490       -0.00124547926391
C           55.90224783496674        0.02419396524492        0.01681707712448
Fe          42.25242842972714        0.06106325706051        0.02211419426600
C           38.91981196076073       -0.01471734104935       -0.01820231637282
C           39.55402474266167       -1.21297162487662       -0.02318575178819
C           38.88452305379845       -2.50803727432891       -0.01108135829188
C           39.83364524849637       -3.44154031905291       -0.01939654509747
C           41.12700045502149       -2.76383734530895       -0.04056309756982
N           40.94564267163606       -1.35950680582876       -0.03861098688823
C           42.32673024223590       -3.40656518645082       -0.05981994188821
C           43.61467449711662       -2.73122381087348       -0.08495011593142
C           44.89251758192729       -3.42694959544347       -0.18253929940945
C           45.85850913872051       -2.50284187538610       -0.17669489120691
N           43.78448700835711       -1.42449455663836       -0.02256127229241
C           45.16703736548804       -1.23917537446158       -0.07545990408824
C           45.76767831500332       -0.01792272034722       -0.01687501370914
C           45.06395742813663        1.26122969452638        0.09451456054608
C           45.69367090665990        2.44866378204210        0.25173777593311
C           44.67892839753291        3.44830417274333        0.29035885208399
C           43.48175279438957        2.82279034550503        0.14759497889144
C           42.19902854480151        3.53396727920023        0.11445993190998
C           42.20244610027405        5.02302181124016        0.13761653950985
C           41.83048777812816        5.71682442690975        1.29832256821276
C           41.85503092662479        7.11080355537129        1.32160041605370
C           42.25049952680318        7.82158821761028        0.18909945869359
C           42.61973469627797        7.13853947673270       -0.96899294665513
C           42.59711198238055        5.74460304737139       -0.99703091409455
C           41.00768248851900        2.89475060306294        0.06189686448311
C           39.70557643224257        3.53951864344661       -0.00341140013595
C           38.80602273323815        2.55654321708577       -0.04506908406943
C           39.54183081801789        1.29492438369607       -0.00860675902456
N           40.83394365501088        1.48528125742206        0.05173008056073
N           43.66758841061036        1.42416465985414        0.02807016836735
C           42.33880721278624       -4.89050888225392       -0.06571580004860
C           42.19548539993674       -5.59341234080525       -1.26861106132965
C           42.23321711403361       -6.98678383561950       -1.27243046571366
C           42.41189771245173       -7.68476985861244       -0.07882082045110
C           42.55184628759574       -6.98929357353298        1.12157798933338
C           42.51713288555268       -5.59598200816925        1.13035585534186
H           37.82397967802143       -2.72261547043912        0.00519209899009
H           39.64441160770165       -4.50591289282025       -0.00880625682625
H           45.05888525520784       -4.48791077475451       -0.25306868489911
H           46.92001538771567       -2.71312303893347       -0.23937550121933
H           46.75759570004526        2.61696095818699        0.32826966340772
H           44.83356678224043        4.50792986378687        0.40461327425141
H           41.53012235081663        5.17217138036870        2.18752355902138
H           41.56881490976611        7.64363533154656        2.22325236350949
H           42.27121566758917        8.90579564661309        0.21058440762437
H           42.93003588766425        7.69217612289890       -1.84927822191225
H           42.88996917987131        5.22123397780333       -1.90166958174593
H           39.47687110747777        4.59682354013016       -0.02142756332589
H           37.73959894304920        2.70650501706811       -0.09978800109054
H           42.06021470012630       -5.05674761767302       -2.20221488208543
H           42.12579319280923       -7.52878283465279       -2.20624865799139
H           42.44279797432093       -8.76880075917755       -0.08378554782230
H           42.69100605327650       -7.53361373876605        2.04999285102367
H           42.63025631971439       -5.06080027967404        2.06772238373440
183
 energy: -313.355153286688 gnorm: 0.202712678763 xtb: 6.5.1 (b24c23e)
Fe          22.62475547174299        0.03860010263213        0.00750383212971
C           19.25959820602840       -0.06503925862480        0.00532477849495
C           19.93440350850467       -1.24687923836091       -0.12742992119803
C           19.27505801774871       -2.52970183775130       -0.27691378260195
C           20.23522206059489       -3.46726031481515       -0.32492112398216
C           21.51910966388351       -2.78586223784950       -0.20530444292515
N           21.31522200000598       -1.40682891369677       -0.08668281132323
C           22.73645779996465       -3.42446732283430       -0.15496886520469
C           23.98813288553263       -2.74252277136745       -0.01096043976332
C           25.26782964621677       -3.40825568923892        0.16837131482863
C           26.21986867310067       -2.45549774140979        0.23501345991219
N           24.14870126206319       -1.41734568593548       -0.06858581514558
C           25.55381007386282       -1.18212815193802        0.07843577794582
C           26.09897307046619        0.04653996400760        0.00250416200111
C           25.37064826143002        1.24286315563470       -0.15805186986302