      -----------------------------------------------------------      
     |                   =====================                   |     
     |                           x T B                           |     
     |                   =====================                   |     
     |                         S. Grimme                         |     
     |          Mulliken Center for Theoretical Chemistry        |     
     |                    University of Bonn                     |     
      -----------------------------------------------------------      

   * xtb version 6.5.1 (b24c23e) compiled by 'conda@728c89f4b128' on 2022-07-12

   xtb is free software: you can redistribute it and/or modify it under
   the terms of the GNU Lesser General Public License as published by
   the Free Software Foundation, either version 3 of the License, or
   (at your option) any later version.
   
   xtb is distributed in the hope that it will be useful,
   but WITHOUT ANY WARRANTY; without even the implied warranty of
   MERCHANTABILITY or FITNESS FOR A PARTICULAR PURPOSE.  See the
   GNU Lesser General Public License for more details.
   
   Cite this work as:
   * C. Bannwarth, E. Caldeweyher, S. Ehlert, A. Hansen, P. Pracht,
     J. Seibert, S. Spicher, S. Grimme, WIREs Comput. Mol. Sci., 2020, 11,
     e01493. DOI: 10.1002/wcms.1493
   
   for GFN2-xTB:
   * C. Bannwarth, S. Ehlert and S. Grimme., J. Chem. Theory Comput., 2019,
     15, 1652-1671. DOI: 10.1021/acs.jctc.8b01176
   for GFN1-xTB:
   * S. Grimme, C. Bannwarth, P. Shushkov, J. Chem. Theory Comput., 2017,
     13, 1989-2009. DOI: 10.1021/acs.jctc.7b00118
   for GFN0-xTB:
   * P. Pracht, E. Caldeweyher, S. Ehlert, S. Grimme, ChemRxiv, 2019, preprint.
     DOI: 10.26434/chemrxiv.8326202.v1
   for GFN-FF:
   * S. Spicher and S. Grimme, Angew. Chem. Int. Ed., 2020, 59, 15665-15673.
     DOI: 10.1002/anie.202004239
   
   for ALPB and GBSA implicit solvation:
   * S. Ehlert, M. Stahn, S. Spicher, S. Grimme, J. Chem. Theory Comput.,
     2021, 17, 4250-4261. DOI: 10.1021/acs.jctc.1c00471
   
   for DFT-D4:
   * E. Caldeweyher, C. Bannwarth and S. Grimme, J. Chem. Phys., 2017,
     147, 034112. DOI: 10.1063/1.4993215
   * E. Caldeweyher, S. Ehlert, A. Hansen, H. Neugebauer, S. Spicher,
     C. Bannwarth and S. Grimme, J. Chem. Phys., 2019, 150, 154122.
     DOI: 10.1063/1.5090222
   * E. Caldeweyher, J.-M. Mewes, S. Ehlert and S. Grimme, Phys. Chem. Chem. Phys.
     2020, 22, 8499-8512. DOI: 10.1039/D0CP00502A
   
   for sTDA-xTB:
   * S. Grimme and C. Bannwarth, J. Chem. Phys., 2016, 145, 054103.
     DOI: 10.1063/1.4959605
   
   in the mass-spec context:
   * V. Asgeirsson, C. Bauer and S. Grimme, Chem. Sci., 2017, 8, 4879.
     DOI: 10.1039/c7sc00601b
   * J. Koopman and S. Grimme, ACS Omega 2019, 4, 12, 15120-15133.
     DOI: 10.1021/acsomega.9b02011
   
   for metadynamics refer to:
   * S. Grimme, J. Chem. Theory Comput., 2019, 155, 2847-2862
     DOI: 10.1021/acs.jctc.9b00143
   
   for SPH calculations refer to:
   * S. Spicher and S. Grimme, J. Chem. Theory Comput., 2021, 17, 1701-1714
     DOI: 10.1021/acs.jctc.0c01306
   
   with help from (in alphabetical order)
   P. Atkinson, C. Bannwarth, F. Bohle, G. Brandenburg, E. Caldeweyher
   M. Checinski, S. Dohm, S. Ehlert, S. Ehrlich, I. Gerasimov, C. Hölzer
   A. Katbashev, J. Koopman, C. Lavigne, S. Lehtola, F. März, M. Müller,
   F. Musil, H. Neugebauer, J. Pisarek, C. Plett, P. Pracht, F. Pultar,
   J. Seibert, P. Shushkov, S. Spicher, M. Stahn, M. Steiner, T. Strunk,
   J. Stückrath, T. Rose, and J. Unsleber
   
 * started run on 2022/07/28 at 22:37:40.026     

           -------------------------------------------------
          |                Calculation Setup                |
           -------------------------------------------------

          program call               : xtb xtbopt.xyz --gfn 1 --vipea
          hostname                   : cx3-6-25.cx3.hpc.ic.ac.uk
          coordinate file            : xtbopt.xyz
          omp threads                :                     1

   ID    Z sym.   atoms
    1    6 C      1-5, 7-11, 13-19, 21-26, 28-32, 34-41, 74-78, 80-84, 86-92,
                  94-99, 101-105, 107-114, 147-199, 201-205, 207-213,
                  215-220, 222-226, 228-235, 267-271, 273-277, 279-285,
                  287-292, 294-298, 300-307, 339-343, 345-349, 351-357,
                  359-364, 366-370, 372-379, 411-415, 417-421, 423-429,
                  431-436, 438-442, 444-451, 483-487, 489-493, 495-501,
                  503-508, 510-514, 516-523, 555-559, 561-565, 567-573,
                  575-580, 582-586, 588-595, 627-631, 633-637, 639-645,
                  647-652, 654-658, 660-667
    2    7 N      6, 12, 20, 27, 33, 42, 79, 85, 93, 100, 106, 115, 200, 206,
                  214, 221, 227, 236, 272, 278, 286, 293, 299, 308, 344, 350,
                  358, 365, 371, 380, 416, 422, 430, 437, 443, 452, 488, 494,
                  502, 509, 515, 524, 560, 566, 574, 581, 587, 596, 632, 638,
                  646, 653, 659, 668
    3    1 H      43-73, 116-146, 237-266, 309-338, 381-410, 453-482,
                  525-554, 597-626, 669-698

           -------------------------------------------------
          |                 I P E A - x T B                 |
           -------------------------------------------------

        Reference                      10.1039/c7sc00601b
      * Hamiltonian:
        H0-scaling (s, p, d)           2.150000    2.300000    2.000000
        zeta-weighting                 0.000000
      * Dispersion:
        s8                             2.400000
        a1                             0.630000
        a2                             5.000000
        s9                             0.000000
      * Repulsion:
        kExp                           1.500000
        rExp                           1.000000
      * Coulomb:
        alpha                          1.000000
        third order                    atomic
        anisotropic                    false
      * Halogen bond correction:
        rad-scale                      1.300000
        damping                        0.440000


          ...................................................
          :                      SETUP                      :
          :.................................................:
          :  # basis functions                2674          :
          :  # atomic orbitals                2674          :
          :  # shells                         1822          :
          :  # electrons                      2030          :
          :  # halogen bonds                     0          :
          :  max. iterations                   250          :
          :  Hamiltonian                  GFN1-xTB          :
          :  restarted?                      false          :
          :  GBSA solvation                  false          :
          :  PC potential                    false          :
          :  electronic temp.          300.0000000     K    :
          :  accuracy                    1.0000000          :
          :  -> integral cutoff          0.2500000E+02      :
          :  -> integral neglect         0.1000000E-07      :
          :  -> SCF convergence          0.1000000E-05 Eh   :
          :  -> wf. convergence          0.2000000E-04 e    :
          :  Broyden damping             0.4000000          :
          ...................................................

 iter      E             dE          RMSdq      gap      omega  full diag
   1  -1275.0373176 -0.127504E+04  0.975E+00    0.50       0.0  T
   2  -1277.2966601 -0.225934E+01  0.611E+00    1.07       1.0  T
   3  -1257.6509404  0.196457E+02  0.440E+00    0.09       1.0  T
   4  -1279.7966264 -0.221457E+02  0.104E+00    0.95       1.0  T
   5  -1281.5284991 -0.173187E+01  0.248E-01    0.80       1.0  T
   6  -1281.6193771 -0.908779E-01  0.903E-02    0.85       1.0  T
   7  -1281.6278158 -0.843877E-02  0.471E-02    0.84       1.0  T
   8  -1281.6291828 -0.136693E-02  0.333E-02    0.84       1.0  T
   9  -1281.6299090 -0.726285E-03  0.213E-02    0.84       1.0  T
  10  -1281.6303229 -0.413897E-03  0.596E-03    0.84       1.0  T
  11  -1281.6303533 -0.303824E-04  0.251E-03    0.84       1.5  T
  12  -1281.6303614 -0.811498E-05  0.108E-03    0.84       3.5  T
  13  -1281.6303628 -0.137344E-05  0.456E-04    0.84       8.3  T
  14  -1281.6303630 -0.181432E-06  0.232E-04    0.84      16.3  T
  15  -1281.6303630 -0.462494E-07  0.107E-04    0.84      35.5  T
  16  -1281.6303631 -0.132384E-07  0.620E-05    0.84      61.1  T

   *** convergence criteria satisfied after 16 iterations ***

         #    Occupation            Energy/Eh            Energy/eV
      -------------------------------------------------------------
         1        2.0000           -1.0363340             -28.2001
       ...           ...                  ...                  ...
      1009        2.0000           -0.3663353              -9.9685
      1010        2.0000           -0.3639125              -9.9026
      1011        2.0000           -0.3609816              -9.8228
      1012        2.0000           -0.3578269              -9.7370
      1013        2.0000           -0.3547814              -9.6541
      1014        2.0000           -0.3522419              -9.5850
      1015        2.0000           -0.3507298              -9.5438 (HOMO)
      1016        0.0000           -0.3197898              -8.7019 (LUMO)
      1017                         -0.3174409              -8.6380
      1018                         -0.3142705              -8.5517
      1019                         -0.3105945              -8.4517
      1020                         -0.3066942              -8.3456
       ...                                ...                  ...
      2674                        578.8098361           15750.2173
      -------------------------------------------------------------
                  HL-Gap            0.0309400 Eh            0.8419 eV
             Fermi-level           -0.3352059 Eh           -9.1214 eV

 SCC (total)                   0 d,  0 h,  2 min,  3.247 sec
 SCC setup                      ...        0 min,  0.063 sec (  0.051%)
 Dispersion                     ...        0 min,  0.062 sec (  0.050%)
 classical contributions        ...        0 min,  0.014 sec (  0.012%)
 integral evaluation            ...        0 min,  3.386 sec (  2.747%)
 iterations                     ...        1 min, 52.529 sec ( 91.304%)
 molecular gradient             ...        0 min,  5.704 sec (  4.628%)
 printout                       ...        0 min,  1.490 sec (  1.209%)

         :::::::::::::::::::::::::::::::::::::::::::::::::::::
         ::                     SUMMARY                     ::
         :::::::::::::::::::::::::::::::::::::::::::::::::::::
         :: total energy           -1255.532107618212 Eh    ::
         :: gradient norm              0.128949075157 Eh/a0 ::
         :: HOMO-LUMO gap              0.841921077517 eV    ::
         ::.................................................::
         :: SCC energy             -1281.630363053433 Eh    ::
         :: -> electrostatic           0.724420724647 Eh    ::
         :: repulsion energy          26.664714686629 Eh    ::
         :: dispersion energy         -0.566459251408 Eh    ::
         :: halogen bond corr.         0.000000000000 Eh    ::
         :: add. restraining           0.000000000000 Eh    ::
         :: total charge               0.000000000024 e     ::
         :::::::::::::::::::::::::::::::::::::::::::::::::::::

           ------------------------------------------------- 
          |        vertical delta SCC IP calculation        |
           ------------------------------------------------- 
   1  -1281.2655120 -0.128127E+04  0.306E-02    0.84       0.0  T
   2  -1281.2648202  0.691749E-03  0.305E-02    0.81       1.0  T
   3  -1281.2668464 -0.202615E-02  0.195E-02    0.84       1.0  T
   4  -1281.2679167 -0.107027E-02  0.130E-02    0.83       1.0  T
   5  -1281.2682229 -0.306233E-03  0.573E-03    0.83       1.0  T
   6  -1281.2682081  0.147737E-04  0.436E-03    0.83       1.0  T
   7  -1281.2682380 -0.298894E-04  0.208E-03    0.83       1.8  T
   8  -1281.2682432 -0.517355E-05  0.807E-04    0.83       4.7  T
   9  -1281.2682410  0.221696E-05  0.776E-04    0.83       4.9  T
  10  -1281.2682422 -0.124668E-05  0.618E-04    0.83       6.1  T
  11  -1281.2682448 -0.254648E-05  0.109E-04    0.83      34.6  T
  12  -1281.2682448 -0.285891E-07  0.428E-05    0.83      88.5  T
  13  -1281.2682448 -0.249338E-08  0.187E-05    0.83     202.3  T
     SCC iter.                  ...        1 min, 31.530 sec
     gradient                   ...        0 min,  5.930 sec
------------------------------------------------------------------------
empirical IP shift (eV):    4.8455
delta SCC IP (eV):    5.0082
------------------------------------------------------------------------
           ------------------------------------------------- 
          |        vertical delta SCC EA calculation        |
           ------------------------------------------------- 
   1  -1281.9278476 -0.128193E+04  0.552E-02    0.07       0.0  T
   2  -1281.9304553 -0.260768E-02  0.495E-02    0.01       1.0  T
   3  -1281.9345604 -0.410516E-02  0.321E-02    0.06       1.0  T
   4  -1281.9364050 -0.184463E-02  0.232E-02    0.03       1.0  T
   5  -1281.9373650 -0.959938E-03  0.117E-02    0.04       1.0  T
   6  -1281.9372876  0.773641E-04  0.866E-03    0.04       1.0  T
   7  -1281.9372084  0.791891E-04  0.643E-03    0.04       1.0  T
   8  -1281.9373689 -0.160421E-03  0.389E-03    0.04       1.0  T
   9  -1281.9374692 -0.100365E-03  0.166E-03    0.04       2.3  T
  10  -1281.9374786 -0.935281E-05  0.531E-04    0.04       7.1  T
  11  -1281.9374791 -0.569640E-06  0.187E-04    0.04      20.3  T
  12  -1281.9374792 -0.341233E-07  0.906E-05    0.04      41.8  T
     SCC iter.                  ...        1 min, 24.199 sec
     gradient                   ...        0 min,  5.714 sec
------------------------------------------------------------------------
empirical EA shift (eV):    4.8455
delta SCC EA (eV):    3.5116
------------------------------------------------------------------------
           -------------------------------------------------
          |                Property Printout                |
           -------------------------------------------------

    * Orbital Energies and Occupations

         #    Occupation            Energy/Eh            Energy/eV
      -------------------------------------------------------------
         1        2.0000           -1.0153010             -27.6277
       ...           ...                  ...                  ...
      1004        2.0000           -0.3567021              -9.7064
      1005        2.0000           -0.3565007              -9.7009
      1006        2.0000           -0.3564421              -9.6993
      1007        2.0000           -0.3461741              -9.4199
      1008        2.0000           -0.3460077              -9.4153
      1009        2.0000           -0.3431642              -9.3380
      1010        2.0000           -0.3403894              -9.2625
      1011        2.0000           -0.3372304              -9.1765
      1012        2.0000           -0.3338563              -9.0847
      1013        2.0000           -0.3304829              -8.9929
      1014        2.0000           -0.3272937              -8.9061
      1015        2.0000           -0.3249185              -8.8415
      1016        0.6557           -0.2936793              -7.9914 (HOMO)
      1017        0.3159           -0.2923330              -7.9548 (LUMO)
      1018        0.0278           -0.2896886              -7.8828
      1019        0.0007           -0.2861423              -7.7863
      1020        0.0000           -0.2824213              -7.6851
      1021        0.0000           -0.2789668              -7.5911
      1022                         -0.2771617              -7.5420
      1023                         -0.2767002              -7.5294
      1024                         -0.2751812              -7.4881
      1025                         -0.2731878              -7.4338
      1026                         -0.2724020              -7.4124
      1027                         -0.2717234              -7.3940
       ...                                ...                  ...
      2674                        578.8347652           15750.8957
      -------------------------------------------------------------
                  HL-Gap            0.0013463 Eh            0.0366 eV
             Fermi-level           -0.3012182 Eh           -8.1966 eV

  Mulliken/CM5 charges         n(s)   n(p)   n(d)
     1C    -0.02218 -0.06301   1.089  2.934  0.000
     2C     0.06144  0.12180   1.104  2.834  0.000
     3C    -0.03561 -0.08091   1.081  2.955  0.000
     4C    -0.03245 -0.07743   1.076  2.956  0.000
     5C     0.06298  0.12685   1.102  2.835  0.000
     6N    -0.15942 -0.51225   1.312  3.847  0.000
     7C     0.00989  0.01563   1.093  2.897  0.000
     8C    -0.00572 -0.01429   1.073  2.932  0.000
     9C    -0.02454 -0.07792   1.080  2.944  0.000
    10C    -0.03494 -0.08414   1.061  2.974  0.000
    11C     0.06774  0.12303   1.080  2.852  0.000
    12N    -0.18989 -0.45592   1.283  3.907  0.000
    13C     0.00722 -0.08382   1.089  2.904  0.000
    14C     0.00718 -0.08388   1.089  2.903  0.000
    15C    -0.03566 -0.08481   1.062  2.974  0.000
    16C    -0.02633 -0.07960   1.078  2.948  0.000
    17C     0.05911  0.12703   1.118  2.823  0.000
    18C    -0.03722 -0.08329   1.085  2.952  0.000
    19C    -0.03890 -0.08433   1.090  2.949  0.000
    20N    -0.28547 -0.47206   1.293  3.992  0.000
    21C     0.06395  0.13481   1.129  2.807  0.000
    22C     0.01692  0.02409   1.084  2.899  0.000
    23C     0.06628  0.13121   1.109  2.825  0.000
    24C    -0.03367 -0.07809   1.079  2.955  0.000
    25C    -0.03203 -0.07703   1.075  2.957  0.000
    26C     0.06217  0.12540   1.100  2.838  0.000
    27N    -0.15717 -0.50929   1.314  3.843  0.000
    28C     0.00957  0.01536   1.093  2.897  0.000
    29C    -0.00571 -0.01428   1.073  2.932  0.000
    30C    -0.02509 -0.07845   1.080  2.945  0.000
    31C    -0.03525 -0.08444   1.061  2.974  0.000
    32C     0.06774  0.12303   1.080  2.852  0.000
    33N    -0.19010 -0.45608   1.283  3.907  0.000
    34C     0.00725 -0.08383   1.089  2.903  0.000
    35C     0.00719 -0.08387   1.089  2.903  0.000
    36C    -0.03522 -0.08440   1.061  2.974  0.000
    37C    -0.02582 -0.07911   1.078  2.947  0.000
    38C     0.06065  0.13002   1.121  2.818  0.000
    39C    -0.03740 -0.08342   1.087  2.951  0.000
    40C    -0.04052 -0.08688   1.091  2.949  0.000
    41C     0.05837  0.12398   1.125  2.817  0.000
    42N    -0.28772 -0.47465   1.293  3.994  0.000
    43H     0.02763  0.08665   0.972  0.000  0.000
    44H     0.03794  0.09460   0.962  0.000  0.000
    45H     0.02736  0.08612   0.973  0.000  0.000
    46H     0.16330  0.37160   0.837  0.000  0.000
    47H     0.02029  0.07833   0.980  0.000  0.000
    48H     0.02587  0.08634   0.974  0.000  0.000
    49H     0.02955  0.09021   0.970  0.000  0.000
    50H     0.03525  0.09746   0.965  0.000  0.000
    51H     0.02702  0.08904   0.973  0.000  0.000
    52H     0.02968  0.09038   0.970  0.000  0.000
    53H     0.02604  0.08799   0.974  0.000  0.000
    54H     0.03555  0.09776   0.964  0.000  0.000
    55H     0.02486  0.08532   0.975  0.000  0.000
    56H     0.01982  0.07780   0.980  0.000  0.000
    57H     0.01794  0.07676   0.982  0.000  0.000
    58H     0.02361  0.08167   0.976  0.000  0.000
    59H     0.03416  0.09228   0.966  0.000  0.000
    60H     0.02801  0.08686   0.972  0.000  0.000
    61H     0.16204  0.37031   0.838  0.000  0.000
    62H     0.01959  0.07760   0.980  0.000  0.000
    63H     0.02523  0.08569   0.975  0.000  0.000
    64H     0.03547  0.09768   0.965  0.000  0.000
    65H     0.03094  0.09163   0.969  0.000  0.000
    66H     0.02597  0.08795   0.974  0.000  0.000
    67H     0.02599  0.08799   0.974  0.000  0.000
    68H     0.03522  0.09743   0.965  0.000  0.000
    69H     0.03021  0.09089   0.970  0.000  0.000
    70H     0.02549  0.08596   0.975  0.000  0.000
    71H     0.02060  0.07860   0.979  0.000  0.000
    72H     0.01773  0.07642   0.982  0.000  0.000
    73H     0.02798  0.08439   0.972  0.000  0.000
    74C    -0.02218 -0.06302   1.089  2.934  0.000
    75C     0.06144  0.12180   1.104  2.834  0.000
    76C    -0.03562 -0.08091   1.081  2.955  0.000
    77C    -0.03245 -0.07743   1.076  2.956  0.000
    78C     0.06297  0.12685   1.102  2.835  0.000
    79N    -0.15942 -0.51226   1.312  3.847  0.000
    80C     0.00990  0.01563   1.093  2.897  0.000
    81C    -0.00572 -0.01429   1.073  2.932  0.000
    82C    -0.02452 -0.07790   1.080  2.944  0.000
    83C    -0.03492 -0.08413   1.061  2.974  0.000
    84C     0.06774  0.12303   1.080  2.852  0.000
    85N    -0.18990 -0.45592   1.283  3.907  0.000
    86C     0.00722 -0.08382   1.089  2.904  0.000
    87C     0.00717 -0.08389   1.089  2.903  0.000
    88C    -0.03566 -0.08482   1.062  2.974  0.000
    89C    -0.02634 -0.07961   1.078  2.948  0.000
    90C     0.05911  0.12703   1.118  2.823  0.000
    91C    -0.03722 -0.08329   1.085  2.952  0.000
    92C    -0.03891 -0.08434   1.090  2.949  0.000
    93N    -0.28545 -0.47205   1.293  3.992  0.000
    94C     0.06397  0.13482   1.129  2.807  0.000
    95C     0.01692  0.02409   1.084  2.899  0.000
    96C     0.06627  0.13121   1.109  2.825  0.000
    97C    -0.03368 -0.07810   1.079  2.955  0.000
    98C    -0.03203 -0.07703   1.075  2.957  0.000
    99C     0.06216  0.12539   1.100  2.838  0.000
   100N    -0.15717 -0.50930   1.314  3.843  0.000
   101C     0.00956  0.01535   1.093  2.897  0.000
   102C    -0.00572 -0.01428   1.073  2.932  0.000
   103C    -0.02509 -0.07845   1.080  2.945  0.000
   104C    -0.03526 -0.08445   1.061  2.974  0.000
   105C     0.06774  0.12304   1.080  2.852  0.000
   106N    -0.19009 -0.45608   1.283  3.907  0.000
   107C     0.00725 -0.08383   1.089  2.903  0.000
   108C     0.00720 -0.08387   1.089  2.903  0.000
   109C    -0.03524 -0.08441   1.061  2.974  0.000
   110C    -0.02581 -0.07910   1.078  2.947  0.000
   111C     0.06065  0.13002   1.121  2.818  0.000
   112C    -0.03740 -0.08343   1.087  2.951  0.000
   113C    -0.04052 -0.08688   1.091  2.949  0.000
   114C     0.05837  0.12398   1.125  2.817  0.000
   115N    -0.28773 -0.47465   1.293  3.994  0.000
   116H     0.02764  0.08665   0.972  0.000  0.000
   117H     0.03794  0.09461   0.962  0.000  0.000
   118H     0.02737  0.08612   0.973  0.000  0.000
   119H     0.16330  0.37160   0.837  0.000  0.000
   120H     0.02033  0.07837   0.980  0.000  0.000
   121H     0.02591  0.08638   0.974  0.000  0.000
   122H     0.02957  0.09024   0.970  0.000  0.000
   123H     0.03526  0.09747   0.965  0.000  0.000
   124H     0.02704  0.08907   0.973  0.000  0.000
   125H     0.02968  0.09038   0.970  0.000  0.000
   126H     0.02600  0.08796   0.974  0.000  0.000
   127H     0.03554  0.09775   0.964  0.000  0.000
   128H     0.02484  0.08531   0.975  0.000  0.000
   129H     0.01981  0.07779   0.980  0.000  0.000
   130H     0.01792  0.07674   0.982  0.000  0.000
   131H     0.02360  0.08167   0.976  0.000  0.000
   132H     0.03416  0.09227   0.966  0.000  0.000
   133H     0.02799  0.08684   0.972  0.000  0.000
   134H     0.16204  0.37031   0.838  0.000  0.000
   135H     0.01959  0.07760   0.980  0.000  0.000
   136H     0.02523  0.08569   0.975  0.000  0.000
   137H     0.03547  0.09768   0.965  0.000  0.000
   138H     0.03093  0.09162   0.969  0.000  0.000
   139H     0.02600  0.08797   0.974  0.000  0.000
   140H     0.02600  0.08799   0.974  0.000  0.000
   141H     0.03523  0.09744   0.965  0.000  0.000
   142H     0.03020  0.09088   0.970  0.000  0.000
   143H     0.02549  0.08596   0.975  0.000  0.000
   144H     0.02060  0.07861   0.979  0.000  0.000
   145H     0.01773  0.07641   0.982  0.000  0.000
   146H     0.02798  0.08439   0.972  0.000  0.000
   147C    -0.01603 -0.01613   1.077  2.939  0.000
   148C    -0.01813 -0.01824   1.075  2.943  0.000
   149C    -0.02050 -0.02127   1.061  2.959  0.000
   150C    -0.01790 -0.01954   1.092  2.926  0.000
   151C    -0.02227 -0.02302   1.060  2.962  0.000
   152C    -0.01571 -0.01731   1.094  2.921  0.000
   153C    -0.01687 -0.01698   1.076  2.941  0.000
   154C    -0.01747 -0.01757   1.076  2.942  0.000
   155C    -0.02115 -0.02190   1.061  2.960  0.000
   156C    -0.01716 -0.01876   1.093  2.925  0.000
   157C    -0.02166 -0.02240   1.061  2.961  0.000
   158C    -0.01650 -0.01810   1.093  2.923  0.000
   159C    -0.01702 -0.01712   1.076  2.941  0.000
   160C    -0.01692 -0.01703   1.076  2.941  0.000
   161C    -0.02134 -0.02208   1.061  2.961  0.000
   162C    -0.01663 -0.01822   1.093  2.924  0.000
   163C    -0.02117 -0.02191   1.061  2.960  0.000
   164C    -0.01665 -0.01825   1.093  2.924  0.000
   165C    -0.01683 -0.01694   1.076  2.941  0.000
   166C    -0.01674 -0.01684   1.076  2.941  0.000
   167C    -0.02114 -0.02189   1.061  2.960  0.000
   168C    -0.01645 -0.01805   1.093  2.923  0.000
   169C    -0.02102 -0.02177   1.061  2.960  0.000
   170C    -0.01652 -0.01812   1.093  2.923  0.000
   171C    -0.01674 -0.01684   1.076  2.941  0.000
   172C    -0.01683 -0.01693   1.076  2.941  0.000
   173C    -0.02102 -0.02177   1.061  2.960  0.000
   174C    -0.01651 -0.01811   1.093  2.923  0.000
   175C    -0.02114 -0.02188   1.061  2.960  0.000
   176C    -0.01646 -0.01806   1.093  2.923  0.000
   177C    -0.01692 -0.01702   1.076  2.941  0.000
   178C    -0.01702 -0.01712   1.076  2.941  0.000
   179C    -0.02116 -0.02191   1.061  2.960  0.000
   180C    -0.01665 -0.01825   1.093  2.924  0.000
   181C    -0.02134 -0.02208   1.061  2.961  0.000
   182C    -0.01662 -0.01822   1.093  2.924  0.000
   183C    -0.01746 -0.01756   1.076  2.942  0.000
   184C    -0.01689 -0.01699   1.076  2.941  0.000
   185C    -0.02164 -0.02239   1.061  2.961  0.000
   186C    -0.01651 -0.01811   1.093  2.923  0.000
   187C    -0.02116 -0.02191   1.061  2.960  0.000
   188C    -0.01715 -0.01875   1.093  2.925  0.000
   189C    -0.01814 -0.01824   1.075  2.943  0.000
   190C    -0.01604 -0.01614   1.077  2.939  0.000
   191C    -0.02227 -0.02302   1.060  2.962  0.000
   192C    -0.01571 -0.01731   1.094  2.921  0.000
   193C    -0.02050 -0.02127   1.061  2.959  0.000
   194C    -0.01791 -0.01955   1.092  2.926  0.000
   195C     0.01473  0.02194   1.083  2.903  0.000
   196C     0.06577  0.13068   1.109  2.825  0.000
   197C    -0.03562 -0.08004   1.078  2.958  0.000
   198C    -0.03276 -0.07774   1.075  2.958  0.000
   199C     0.06084  0.12415   1.098  2.842  0.000
   200N    -0.15647 -0.50882   1.314  3.843  0.000
   201C     0.01249  0.01814   1.095  2.893  0.000
   202C    -0.00509 -0.01372   1.074  2.932  0.000
   203C    -0.02554 -0.07883   1.078  2.947  0.000
   204C    -0.03534 -0.08448   1.062  2.974  0.000
   205C     0.06788  0.12324   1.080  2.852  0.000
   206N    -0.18989 -0.45600   1.283  3.907  0.000
   207C     0.00731 -0.08377   1.089  2.903  0.000
   208C     0.00732 -0.08368   1.089  2.904  0.000
   209C    -0.03495 -0.08418   1.061  2.974  0.000
   210C    -0.02422 -0.07763   1.080  2.944  0.000
   211C     0.05828  0.12619   1.117  2.825  0.000
   212C    -0.03744 -0.08351   1.085  2.952  0.000
   213C    -0.03973 -0.08517   1.089  2.950  0.000
   214N    -0.28490 -0.47105   1.293  3.992  0.000
   215C     0.06375  0.13461   1.129  2.807  0.000
   216C     0.01609  0.02331   1.084  2.900  0.000
   217C     0.06586  0.13081   1.109  2.825  0.000
   218C    -0.03503 -0.07946   1.078  2.957  0.000
   219C    -0.03266 -0.07765   1.075  2.958  0.000
   220C     0.06109  0.12439   1.098  2.841  0.000
   221N    -0.15618 -0.50854   1.314  3.842  0.000
   222C     0.01226  0.01792   1.094  2.893  0.000
   223C    -0.00511 -0.01374   1.074  2.932  0.000
   224C    -0.02548 -0.07879   1.078  2.947  0.000
   225C    -0.03521 -0.08437   1.061  2.974  0.000
   226C     0.06784  0.12317   1.080  2.852  0.000
   227N    -0.19005 -0.45610   1.283  3.907  0.000
   228C     0.00728 -0.08375   1.089  2.903  0.000
   229C     0.00732 -0.08376   1.089  2.903  0.000
   230C    -0.03505 -0.08426   1.061  2.974  0.000
   231C    -0.02435 -0.07774   1.080  2.944  0.000
   232C     0.05829  0.12624   1.117  2.825  0.000
   233C    -0.03750 -0.08357   1.086  2.952  0.000
   234C    -0.04011 -0.08555   1.089  2.951  0.000
   235C     0.06359  0.13439   1.129  2.807  0.000
   236N    -0.28537 -0.47151   1.293  3.993  0.000
   237H     0.03231  0.09040   0.968  0.000  0.000
   238H     0.02653  0.08541   0.973  0.000  0.000
   239H     0.16220  0.37015   0.838  0.000  0.000
   240H     0.02044  0.07845   0.980  0.000  0.000
   241H     0.02497  0.08545   0.975  0.000  0.000
   242H     0.03535  0.09757   0.965  0.000  0.000
   243H     0.02580  0.08771   0.974  0.000  0.000
   244H     0.03012  0.09085   0.970  0.000  0.000
   245H     0.02678  0.08883   0.973  0.000  0.000
   246H     0.02974  0.09037   0.970  0.000  0.000
   247H     0.03477  0.09697   0.965  0.000  0.000
   248H     0.02554  0.08600   0.974  0.000  0.000
   249H     0.02024  0.07827   0.980  0.000  0.000
   250H     0.01714  0.07599   0.983  0.000  0.000
   251H     0.02273  0.08075   0.977  0.000  0.000
   252H     0.03307  0.09116   0.967  0.000  0.000
   253H     0.02686  0.08577   0.973  0.000  0.000
   254H     0.16217  0.37012   0.838  0.000  0.000
   255H     0.02064  0.07866   0.979  0.000  0.000
   256H     0.02522  0.08570   0.975  0.000  0.000
   257H     0.02994  0.09060   0.970  0.000  0.000
   258H     0.02623  0.08826   0.974  0.000  0.000
   259H     0.03478  0.09699   0.965  0.000  0.000
   260H     0.03061  0.09133   0.969  0.000  0.000
   261H     0.03528  0.09749   0.965  0.000  0.000
   262H     0.02583  0.08777   0.974  0.000  0.000
   263H     0.02528  0.08574   0.975  0.000  0.000
   264H     0.02001  0.07804   0.980  0.000  0.000
   265H     0.01687  0.07568   0.983  0.000  0.000
   266H     0.02199  0.07999   0.978  0.000  0.000
   267C     0.01556  0.02277   1.083  2.901  0.000
   268C     0.06581  0.13075   1.109  2.825  0.000
   269C    -0.03529 -0.07971   1.078  2.957  0.000
   270C    -0.03266 -0.07765   1.075  2.958  0.000
   271C     0.06097  0.12428   1.098  2.841  0.000
   272N    -0.15627 -0.50862   1.314  3.842  0.000
   273C     0.01246  0.01812   1.095  2.893  0.000
   274C    -0.00511 -0.01374   1.074  2.932  0.000
   275C    -0.02548 -0.07877   1.078  2.947  0.000
   276C    -0.03529 -0.08443   1.062  2.974  0.000
   277C     0.06789  0.12326   1.080  2.852  0.000
   278N    -0.18991 -0.45603   1.283  3.907  0.000
   279C     0.00734 -0.08375   1.089  2.903  0.000
   280C     0.00733 -0.08368   1.089  2.904  0.000
   281C    -0.03500 -0.08422   1.061  2.974  0.000
   282C    -0.02428 -0.07768   1.080  2.944  0.000
   283C     0.05834  0.12626   1.117  2.825  0.000
   284C    -0.03735 -0.08342   1.085  2.952  0.000
   285C    -0.03979 -0.08523   1.089  2.950  0.000
   286N    -0.28500 -0.47115   1.293  3.992  0.000
   287C     0.06375  0.13460   1.129  2.807  0.000
   288C     0.01577  0.02299   1.084  2.901  0.000
   289C     0.06590  0.13085   1.109  2.825  0.000
   290C    -0.03514 -0.07956   1.078  2.957  0.000
   291C    -0.03256 -0.07755   1.075  2.958  0.000
   292C     0.06103  0.12434   1.098  2.841  0.000
   293N    -0.15622 -0.50859   1.314  3.842  0.000
   294C     0.01247  0.01813   1.095  2.893  0.000
   295C    -0.00509 -0.01372   1.074  2.932  0.000
   296C    -0.02544 -0.07876   1.078  2.947  0.000
   297C    -0.03522 -0.08438   1.061  2.974  0.000
   298C     0.06788  0.12323   1.080  2.852  0.000
   299N    -0.18998 -0.45606   1.283  3.907  0.000
   300C     0.00731 -0.08372   1.089  2.903  0.000
   301C     0.00734 -0.08375   1.089  2.903  0.000
   302C    -0.03501 -0.08423   1.061  2.974  0.000
   303C    -0.02430 -0.07769   1.080  2.944  0.000
   304C     0.05827  0.12620   1.117  2.825  0.000
   305C    -0.03743 -0.08350   1.085  2.952  0.000
   306C    -0.03992 -0.08535   1.089  2.951  0.000
   307C     0.06367  0.13451   1.129  2.807  0.000
   308N    -0.28504 -0.47118   1.293  3.992  0.000
   309H     0.03266  0.09075   0.967  0.000  0.000
   310H     0.02670  0.08558   0.973  0.000  0.000
   311H     0.16223  0.37017   0.838  0.000  0.000
   312H     0.02057  0.07858   0.979  0.000  0.000
   313H     0.02509  0.08558   0.975  0.000  0.000
   314H     0.03533  0.09754   0.965  0.000  0.000
   315H     0.02584  0.08776   0.974  0.000  0.000
   316H     0.03028  0.09101   0.970  0.000  0.000
   317H     0.02664  0.08869   0.973  0.000  0.000
   318H     0.02976  0.09040   0.970  0.000  0.000
   319H     0.03473  0.09693   0.965  0.000  0.000
   320H     0.02543  0.08589   0.975  0.000  0.000
   321H     0.02014  0.07816   0.980  0.000  0.000
   322H     0.01711  0.07596   0.983  0.000  0.000
   323H     0.02258  0.08060   0.977  0.000  0.000
   324H     0.03291  0.09101   0.967  0.000  0.000
   325H     0.02681  0.08572   0.973  0.000  0.000
   326H     0.16222  0.37017   0.838  0.000  0.000
   327H     0.02063  0.07865   0.979  0.000  0.000
   328H     0.02519  0.08567   0.975  0.000  0.000
   329H     0.02986  0.09051   0.970  0.000  0.000
   330H     0.02639  0.08842   0.974  0.000  0.000
   331H     0.03475  0.09696   0.965  0.000  0.000
   332H     0.03048  0.09120   0.970  0.000  0.000
   333H     0.03529  0.09750   0.965  0.000  0.000
   334H     0.02585  0.08778   0.974  0.000  0.000
   335H     0.02535  0.08581   0.975  0.000  0.000
   336H     0.02009  0.07812   0.980  0.000  0.000
   337H     0.01701  0.07583   0.983  0.000  0.000
   338H     0.02237  0.08039   0.978  0.000  0.000
   339C     0.01607  0.02328   1.084  2.900  0.000
   340C     0.06592  0.13086   1.109  2.825  0.000
   341C    -0.03498 -0.07940   1.078  2.957  0.000
   342C    -0.03249 -0.07748   1.075  2.957  0.000
   343C     0.06122  0.12453   1.098  2.841  0.000
   344N    -0.15617 -0.50853   1.314  3.842  0.000
   345C     0.01250  0.01816   1.095  2.893  0.000
   346C    -0.00514 -0.01377   1.073  2.932  0.000
   347C    -0.02548 -0.07878   1.078  2.947  0.000
   348C    -0.03524 -0.08438   1.062  2.974  0.000
   349C     0.06793  0.12330   1.080  2.852  0.000
   350N    -0.18987 -0.45599   1.283  3.907  0.000
   351C     0.00734 -0.08375   1.089  2.903  0.000
   352C     0.00732 -0.08369   1.089  2.904  0.000
   353C    -0.03498 -0.08420   1.061  2.974  0.000
   354C    -0.02430 -0.07770   1.080  2.944  0.000
   355C     0.05852  0.12644   1.117  2.825  0.000
   356C    -0.03727 -0.08334   1.085  2.952  0.000
   357C    -0.03967 -0.08511   1.089  2.950  0.000
   358N    -0.28490 -0.47106   1.293  3.992  0.000
   359C     0.06381  0.13466   1.129  2.807  0.000
   360C     0.01598  0.02319   1.084  2.900  0.000
   361C     0.06597  0.13091   1.109  2.825  0.000
   362C    -0.03498 -0.07941   1.078  2.957  0.000
   363C    -0.03244 -0.07743   1.075  2.957  0.000
   364C     0.06121  0.12451   1.098  2.841  0.000
   365N    -0.15617 -0.50854   1.314  3.842  0.000
   366C     0.01256  0.01822   1.095  2.893  0.000
   367C    -0.00513 -0.01376   1.073  2.932  0.000
   368C    -0.02546 -0.07877   1.078  2.947  0.000
   369C    -0.03521 -0.08436   1.061  2.974  0.000
   370C     0.06793  0.12330   1.080  2.852  0.000
   371N    -0.18989 -0.45599   1.283  3.907  0.000
   372C     0.00731 -0.08371   1.089  2.903  0.000
   373C     0.00734 -0.08375   1.089  2.903  0.000
   374C    -0.03498 -0.08420   1.061  2.974  0.000
   375C    -0.02429 -0.07768   1.080  2.944  0.000
   376C     0.05847  0.12639   1.117  2.825  0.000
   377C    -0.03730 -0.08337   1.085  2.952  0.000
   378C    -0.03970 -0.08513   1.089  2.950  0.000
   379C     0.06377  0.13462   1.129  2.807  0.000
   380N    -0.28485 -0.47100   1.293  3.992  0.000
   381H     0.03302  0.09111   0.967  0.000  0.000
   382H     0.02695  0.08584   0.973  0.000  0.000
   383H     0.16232  0.37027   0.838  0.000  0.000
   384H     0.02066  0.07867   0.979  0.000  0.000
   385H     0.02521  0.08569   0.975  0.000  0.000
   386H     0.03539  0.09761   0.965  0.000  0.000
   387H     0.02589  0.08781   0.974  0.000  0.000
   388H     0.03039  0.09112   0.970  0.000  0.000
   389H     0.02661  0.08867   0.973  0.000  0.000
   390H     0.02984  0.09047   0.970  0.000  0.000
   391H     0.03478  0.09698   0.965  0.000  0.000
   392H     0.02548  0.08594   0.975  0.000  0.000
   393H     0.02018  0.07820   0.980  0.000  0.000
   394H     0.01726  0.07610   0.983  0.000  0.000
   395H     0.02270  0.08072   0.977  0.000  0.000
   396H     0.03304  0.09113   0.967  0.000  0.000
   397H     0.02697  0.08587   0.973  0.000  0.000
   398H     0.16232  0.37028   0.838  0.000  0.000
   399H     0.02067  0.07868   0.979  0.000  0.000
   400H     0.02524  0.08572   0.975  0.000  0.000
   401H     0.02987  0.09051   0.970  0.000  0.000
   402H     0.02652  0.08856   0.973  0.000  0.000
   403H     0.03481  0.09701   0.965  0.000  0.000
   404H     0.03045  0.09118   0.970  0.000  0.000
   405H     0.03537  0.09759   0.965  0.000  0.000
   406H     0.02590  0.08782   0.974  0.000  0.000
   407H     0.02547  0.08593   0.975  0.000  0.000
   408H     0.02018  0.07821   0.980  0.000  0.000
   409H     0.01723  0.07606   0.983  0.000  0.000
   410H     0.02267  0.08069   0.977  0.000  0.000
   411C     0.01617  0.02338   1.084  2.900  0.000
   412C     0.06598  0.13092   1.109  2.825  0.000
   413C    -0.03489 -0.07932   1.078  2.957  0.000
   414C    -0.03242 -0.07741   1.075  2.957  0.000
   415C     0.06130  0.12461   1.098  2.841  0.000
   416N    -0.15614 -0.50850   1.314  3.842  0.000
   417C     0.01255  0.01821   1.095  2.893  0.000
   418C    -0.00514 -0.01377   1.073  2.932  0.000
   419C    -0.02547 -0.07877   1.078  2.947  0.000
   420C    -0.03520 -0.08435   1.062  2.974  0.000
   421C     0.06794  0.12330   1.080  2.852  0.000
   422N    -0.18987 -0.45596   1.283  3.907  0.000
   423C     0.00733 -0.08377   1.089  2.903  0.000
   424C     0.00731 -0.08371   1.089  2.904  0.000
   425C    -0.03496 -0.08418   1.061  2.974  0.000
   426C    -0.02430 -0.07769   1.080  2.944  0.000
   427C     0.05858  0.12651   1.117  2.825  0.000
   428C    -0.03725 -0.08332   1.085  2.952  0.000
   429C    -0.03962 -0.08505   1.089  2.950  0.000
   430N    -0.28483 -0.47099   1.293  3.992  0.000
   431C     0.06382  0.13467   1.129  2.807  0.000
   432C     0.01617  0.02338   1.084  2.900  0.000
   433C     0.06598  0.13092   1.109  2.825  0.000
   434C    -0.03490 -0.07932   1.078  2.957  0.000
   435C    -0.03242 -0.07741   1.075  2.957  0.000
   436C     0.06130  0.12461   1.098  2.841  0.000
   437N    -0.15613 -0.50849   1.314  3.842  0.000
   438C     0.01256  0.01822   1.095  2.893  0.000
   439C    -0.00516 -0.01379   1.073  2.932  0.000
   440C    -0.02547 -0.07877   1.078  2.947  0.000
   441C    -0.03522 -0.08437   1.061  2.974  0.000
   442C     0.06796  0.12333   1.080  2.852  0.000
   443N    -0.18984 -0.45596   1.283  3.907  0.000
   444C     0.00732 -0.08369   1.089  2.904  0.000
   445C     0.00734 -0.08374   1.089  2.903  0.000
   446C    -0.03498 -0.08420   1.061  2.974  0.000
   447C    -0.02430 -0.07770   1.080  2.944  0.000
   448C     0.05858  0.12649   1.117  2.825  0.000
   449C    -0.03725 -0.08332   1.085  2.952  0.000
   450C    -0.03962 -0.08505   1.089  2.950  0.000
   451C     0.06382  0.13468   1.129  2.807  0.000
   452N    -0.28483 -0.47098   1.293  3.992  0.000
   453H     0.03312  0.09122   0.967  0.000  0.000
   454H     0.02705  0.08594   0.973  0.000  0.000
   455H     0.16236  0.37031   0.838  0.000  0.000
   456H     0.02070  0.07871   0.979  0.000  0.000
   457H     0.02527  0.08575   0.975  0.000  0.000
   458H     0.03540  0.09762   0.965  0.000  0.000
   459H     0.02591  0.08783   0.974  0.000  0.000
   460H     0.03044  0.09117   0.970  0.000  0.000
   461H     0.02659  0.08865   0.973  0.000  0.000
   462H     0.02986  0.09050   0.970  0.000  0.000
   463H     0.03480  0.09700   0.965  0.000  0.000
   464H     0.02551  0.08598   0.974  0.000  0.000
   465H     0.02021  0.07823   0.980  0.000  0.000
   466H     0.01733  0.07616   0.983  0.000  0.000
   467H     0.02277  0.08079   0.977  0.000  0.000
   468H     0.03312  0.09121   0.967  0.000  0.000
   469H     0.02704  0.08593   0.973  0.000  0.000
   470H     0.16236  0.37031   0.838  0.000  0.000
   471H     0.02069  0.07870   0.979  0.000  0.000
   472H     0.02526  0.08575   0.975  0.000  0.000
   473H     0.02987  0.09052   0.970  0.000  0.000
   474H     0.02658  0.08863   0.973  0.000  0.000
   475H     0.03485  0.09705   0.965  0.000  0.000
   476H     0.03045  0.09117   0.970  0.000  0.000
   477H     0.03542  0.09764   0.965  0.000  0.000
   478H     0.02593  0.08785   0.974  0.000  0.000
   479H     0.02551  0.08597   0.974  0.000  0.000
   480H     0.02020  0.07822   0.980  0.000  0.000
   481H     0.01733  0.07616   0.983  0.000  0.000
   482H     0.02277  0.08079   0.977  0.000  0.000
   483C     0.01598  0.02320   1.084  2.900  0.000
   484C     0.06597  0.13091   1.109  2.825  0.000
   485C    -0.03498 -0.07940   1.078  2.957  0.000
   486C    -0.03244 -0.07742   1.075  2.957  0.000
   487C     0.06121  0.12452   1.098  2.841  0.000
   488N    -0.15618 -0.50855   1.314  3.842  0.000
   489C     0.01255  0.01821   1.095  2.893  0.000
   490C    -0.00512 -0.01375   1.073  2.932  0.000
   491C    -0.02546 -0.07877   1.078  2.947  0.000
   492C    -0.03520 -0.08435   1.062  2.974  0.000
   493C     0.06792  0.12326   1.080  2.852  0.000
   494N    -0.18992 -0.45598   1.283  3.907  0.000
   495C     0.00732 -0.08378   1.089  2.903  0.000
   496C     0.00730 -0.08373   1.089  2.903  0.000
   497C    -0.03496 -0.08418   1.061  2.974  0.000
   498C    -0.02429 -0.07768   1.080  2.944  0.000
   499C     0.05848  0.12640   1.117  2.825  0.000
   500C    -0.03730 -0.08337   1.085  2.952  0.000
   501C    -0.03970 -0.08513   1.089  2.950  0.000
   502N    -0.28486 -0.47100   1.293  3.992  0.000
   503C     0.06377  0.13461   1.129  2.807  0.000
   504C     0.01608  0.02329   1.084  2.900  0.000
   505C     0.06592  0.13086   1.109  2.825  0.000
   506C    -0.03498 -0.07941   1.078  2.957  0.000
   507C    -0.03249 -0.07748   1.075  2.957  0.000
   508C     0.06122  0.12453   1.098  2.841  0.000
   509N    -0.15615 -0.50851   1.314  3.842  0.000
   510C     0.01251  0.01817   1.095  2.893  0.000
   511C    -0.00515 -0.01378   1.073  2.932  0.000
   512C    -0.02547 -0.07877   1.078  2.947  0.000
   513C    -0.03525 -0.08439   1.061  2.974  0.000
   514C     0.06794  0.12332   1.080  2.852  0.000
   515N    -0.18986 -0.45598   1.283  3.907  0.000
   516C     0.00733 -0.08369   1.089  2.904  0.000
   517C     0.00735 -0.08373   1.089  2.903  0.000
   518C    -0.03499 -0.08421   1.061  2.974  0.000
   519C    -0.02429 -0.07769   1.080  2.944  0.000
   520C     0.05851  0.12643   1.117  2.825  0.000
   521C    -0.03727 -0.08334   1.085  2.952  0.000
   522C    -0.03967 -0.08510   1.089  2.950  0.000
   523C     0.06382  0.13467   1.129  2.807  0.000
   524N    -0.28490 -0.47106   1.293  3.992  0.000
   525H     0.03305  0.09114   0.967  0.000  0.000
   526H     0.02698  0.08588   0.973  0.000  0.000
   527H     0.16232  0.37027   0.838  0.000  0.000
   528H     0.02068  0.07869   0.979  0.000  0.000
   529H     0.02524  0.08573   0.975  0.000  0.000
   530H     0.03534  0.09756   0.965  0.000  0.000
   531H     0.02588  0.08781   0.974  0.000  0.000
   532H     0.03044  0.09117   0.970  0.000  0.000
   533H     0.02652  0.08857   0.973  0.000  0.000
   534H     0.02986  0.09050   0.970  0.000  0.000
   535H     0.03476  0.09697   0.965  0.000  0.000
   536H     0.02547  0.08594   0.975  0.000  0.000
   537H     0.02018  0.07821   0.980  0.000  0.000
   538H     0.01723  0.07606   0.983  0.000  0.000
   539H     0.02267  0.08069   0.977  0.000  0.000
   540H     0.03301  0.09111   0.967  0.000  0.000
   541H     0.02694  0.08583   0.973  0.000  0.000
   542H     0.16232  0.37027   0.838  0.000  0.000
   543H     0.02066  0.07867   0.979  0.000  0.000
   544H     0.02521  0.08570   0.975  0.000  0.000
   545H     0.02984  0.09048   0.970  0.000  0.000
   546H     0.02660  0.08864   0.973  0.000  0.000
   547H     0.03482  0.09702   0.965  0.000  0.000
   548H     0.03040  0.09113   0.970  0.000  0.000
   549H     0.03539  0.09761   0.965  0.000  0.000
   550H     0.02591  0.08783   0.974  0.000  0.000
   551H     0.02548  0.08594   0.975  0.000  0.000
   552H     0.02018  0.07820   0.980  0.000  0.000
   553H     0.01726  0.07610   0.983  0.000  0.000
   554H     0.02270  0.08072   0.977  0.000  0.000
   555C     0.01577  0.02298   1.084  2.901  0.000
   556C     0.06591  0.13085   1.109  2.825  0.000
   557C    -0.03513 -0.07955   1.078  2.957  0.000
   558C    -0.03256 -0.07755   1.075  2.958  0.000
   559C     0.06104  0.12434   1.098  2.841  0.000
   560N    -0.15624 -0.50860   1.314  3.842  0.000
   561C     0.01247  0.01813   1.095  2.893  0.000
   562C    -0.00507 -0.01370   1.074  2.932  0.000
   563C    -0.02545 -0.07876   1.078  2.947  0.000
   564C    -0.03520 -0.08435   1.062  2.974  0.000
   565C     0.06786  0.12320   1.080  2.852  0.000
   566N    -0.19001 -0.45605   1.283  3.907  0.000
   567C     0.00732 -0.08378   1.089  2.903  0.000
   568C     0.00729 -0.08374   1.089  2.903  0.000
   569C    -0.03499 -0.08421   1.061  2.974  0.000
   570C    -0.02430 -0.07769   1.080  2.944  0.000
   571C     0.05828  0.12621   1.117  2.825  0.000
   572C    -0.03743 -0.08350   1.085  2.952  0.000
   573C    -0.03991 -0.08535   1.089  2.951  0.000
   574N    -0.28503 -0.47117   1.293  3.992  0.000
   575C     0.06368  0.13452   1.129  2.807  0.000
   576C     0.01557  0.02278   1.083  2.901  0.000
   577C     0.06580  0.13073   1.109  2.825  0.000
   578C    -0.03529 -0.07971   1.078  2.957  0.000
   579C    -0.03266 -0.07765   1.075  2.958  0.000
   580C     0.06098  0.12428   1.098  2.841  0.000
   581N    -0.15626 -0.50862   1.314  3.842  0.000
   582C     0.01246  0.01812   1.095  2.893  0.000
   583C    -0.00511 -0.01374   1.073  2.932  0.000
   584C    -0.02548 -0.07878   1.078  2.947  0.000
   585C    -0.03530 -0.08444   1.061  2.974  0.000
   586C     0.06790  0.12328   1.080  2.852  0.000
   587N    -0.18989 -0.45602   1.283  3.907  0.000
   588C     0.00733 -0.08368   1.089  2.904  0.000
   589C     0.00734 -0.08374   1.089  2.903  0.000
   590C    -0.03500 -0.08422   1.061  2.974  0.000
   591C    -0.02428 -0.07768   1.080  2.944  0.000
   592C     0.05833  0.12625   1.117  2.825  0.000
   593C    -0.03735 -0.08342   1.085  2.952  0.000
   594C    -0.03979 -0.08523   1.089  2.950  0.000
   595C     0.06376  0.13461   1.129  2.807  0.000
   596N    -0.28500 -0.47115   1.293  3.992  0.000
   597H     0.03292  0.09101   0.967  0.000  0.000
   598H     0.02683  0.08573   0.973  0.000  0.000
   599H     0.16223  0.37017   0.838  0.000  0.000
   600H     0.02064  0.07865   0.979  0.000  0.000
   601H     0.02519  0.08567   0.975  0.000  0.000
   602H     0.03526  0.09747   0.965  0.000  0.000
   603H     0.02583  0.08776   0.974  0.000  0.000
   604H     0.03047  0.09120   0.970  0.000  0.000
   605H     0.02639  0.08843   0.974  0.000  0.000
   606H     0.02985  0.09050   0.970  0.000  0.000
   607H     0.03470  0.09691   0.965  0.000  0.000
   608H     0.02535  0.08582   0.975  0.000  0.000
   609H     0.02010  0.07812   0.980  0.000  0.000
   610H     0.01700  0.07583   0.983  0.000  0.000
   611H     0.02237  0.08039   0.978  0.000  0.000
   612H     0.03267  0.09075   0.967  0.000  0.000
   613H     0.02670  0.08558   0.973  0.000  0.000
   614H     0.16223  0.37017   0.838  0.000  0.000
   615H     0.02057  0.07858   0.979  0.000  0.000
   616H     0.02509  0.08558   0.975  0.000  0.000
   617H     0.02977  0.09041   0.970  0.000  0.000
   618H     0.02663  0.08867   0.973  0.000  0.000
   619H     0.03475  0.09695   0.965  0.000  0.000
   620H     0.03029  0.09102   0.970  0.000  0.000
   621H     0.03533  0.09754   0.965  0.000  0.000
   622H     0.02586  0.08778   0.974  0.000  0.000
   623H     0.02543  0.08589   0.975  0.000  0.000
   624H     0.02014  0.07816   0.980  0.000  0.000
   625H     0.01711  0.07596   0.983  0.000  0.000
   626H     0.02259  0.08061   0.977  0.000  0.000
   627C     0.01607  0.02329   1.084  2.900  0.000
   628C     0.06587  0.13081   1.109  2.825  0.000
   629C    -0.03503 -0.07945   1.078  2.957  0.000
   630C    -0.03266 -0.07765   1.075  2.958  0.000
   631C     0.06109  0.12439   1.098  2.841  0.000
   632N    -0.15619 -0.50855   1.314  3.842  0.000
   633C     0.01226  0.01791   1.094  2.893  0.000
   634C    -0.00509 -0.01372   1.074  2.932  0.000
   635C    -0.02547 -0.07878   1.078  2.947  0.000
   636C    -0.03519 -0.08435   1.061  2.974  0.000
   637C     0.06782  0.12315   1.080  2.852  0.000
   638N    -0.19006 -0.45610   1.283  3.907  0.000
   639C     0.00731 -0.08378   1.089  2.903  0.000
   640C     0.00727 -0.08377   1.089  2.903  0.000
   641C    -0.03504 -0.08426   1.061  2.974  0.000
   642C    -0.02437 -0.07776   1.080  2.944  0.000
   643C     0.05829  0.12624   1.117  2.825  0.000
   644C    -0.03751 -0.08357   1.086  2.952  0.000
   645C    -0.04011 -0.08554   1.089  2.951  0.000
   646N    -0.28538 -0.47151   1.293  3.993  0.000
   647C     0.06358  0.13438   1.129  2.807  0.000
   648C     0.01472  0.02193   1.083  2.903  0.000
   649C     0.06577  0.13068   1.109  2.825  0.000
   650C    -0.03562 -0.08004   1.078  2.958  0.000
   651C    -0.03276 -0.07774   1.075  2.958  0.000
   652C     0.06084  0.12415   1.098  2.842  0.000
   653N    -0.15647 -0.50881   1.314  3.843  0.000
   654C     0.01250  0.01815   1.095  2.893  0.000
   655C    -0.00508 -0.01371   1.074  2.932  0.000
   656C    -0.02554 -0.07883   1.078  2.947  0.000
   657C    -0.03533 -0.08447   1.062  2.974  0.000
   658C     0.06788  0.12323   1.080  2.852  0.000
   659N    -0.18991 -0.45600   1.283  3.907  0.000
   660C     0.00732 -0.08369   1.089  2.904  0.000
   661C     0.00731 -0.08378   1.089  2.903  0.000
   662C    -0.03494 -0.08416   1.061  2.974  0.000
   663C    -0.02423 -0.07764   1.080  2.944  0.000
   664C     0.05827  0.12618   1.117  2.825  0.000
   665C    -0.03745 -0.08351   1.085  2.952  0.000
   666C    -0.03973 -0.08517   1.089  2.950  0.000
   667C     0.06376  0.13462   1.129  2.807  0.000
   668N    -0.28490 -0.47105   1.293  3.992  0.000
   669H     0.03308  0.09117   0.967  0.000  0.000
   670H     0.02686  0.08577   0.973  0.000  0.000
   671H     0.16217  0.37012   0.838  0.000  0.000
   672H     0.02066  0.07867   0.979  0.000  0.000
   673H     0.02523  0.08571   0.975  0.000  0.000
   674H     0.03526  0.09747   0.965  0.000  0.000
   675H     0.02584  0.08778   0.974  0.000  0.000
   676H     0.03060  0.09132   0.969  0.000  0.000
   677H     0.02621  0.08824   0.974  0.000  0.000
   678H     0.02992  0.09058   0.970  0.000  0.000
   679H     0.03474  0.09695   0.965  0.000  0.000
   680H     0.02525  0.08571   0.975  0.000  0.000
   681H     0.01998  0.07801   0.980  0.000  0.000
   682H     0.01688  0.07570   0.983  0.000  0.000
   683H     0.02198  0.07999   0.978  0.000  0.000
   684H     0.03231  0.09041   0.968  0.000  0.000
   685H     0.02654  0.08543   0.973  0.000  0.000
   686H     0.16221  0.37015   0.838  0.000  0.000
   687H     0.02044  0.07844   0.980  0.000  0.000
   688H     0.02496  0.08544   0.975  0.000  0.000
   689H     0.02975  0.09038   0.970  0.000  0.000
   690H     0.02676  0.08881   0.973  0.000  0.000
   691H     0.03476  0.09696   0.965  0.000  0.000
   692H     0.03013  0.09086   0.970  0.000  0.000
   693H     0.03534  0.09755   0.965  0.000  0.000
   694H     0.02578  0.08769   0.974  0.000  0.000
   695H     0.02554  0.08600   0.974  0.000  0.000
   696H     0.02024  0.07827   0.980  0.000  0.000
   697H     0.01715  0.07599   0.983  0.000  0.000
   698H     0.02272  0.08074   0.977  0.000  0.000

Wiberg/Mayer (AO) data.
largest (>0.10) Wiberg bond orders for each atom

 ---------------------------------------------------------------------------
     #   Z sym  total        # sym  WBO       # sym  WBO       # sym  WBO
 ---------------------------------------------------------------------------
     1   6 C    3.814 --    41 C    1.385     2 C    1.372    43 H    0.996
     2   6 C    3.925 --     1 C    1.372     3 C    1.242     6 N    1.229
     3   6 C    3.838 --     4 C    1.597     2 C    1.242    44 H    0.993
     4   6 C    3.825 --     3 C    1.597     5 C    1.254    45 H    0.999
     5   6 C    3.898 --     7 C    1.338     4 C    1.254     6 N    1.231
     6   7 N    3.248 --     5 C    1.231     2 C    1.229    46 H    0.961
     7   6 C    3.843 --    17 C    1.366     5 C    1.338     8 C    1.058
     8   6 C    3.879 --    16 C    1.409     9 C    1.408     7 C    1.058
     9   6 C    3.869 --    10 C    1.473     8 C    1.408    47 H    0.989
    10   6 C    3.847 --     9 C    1.473    11 C    1.375    48 H    0.992
    11   6 C    3.907 --    10 C    1.375    15 C    1.374    12 N    1.142
    12   7 N    3.010 --    11 C    1.142    13 C    0.966    14 C    0.965
    13   6 C    3.908 --    51 H    1.003    50 H    1.002    49 H    0.999
                            12 N    0.966
    14   6 C    3.908 --    53 H    1.003    54 H    1.002    52 H    0.999
                            12 N    0.965
    15   6 C    3.848 --    16 C    1.472    11 C    1.374    55 H    0.992
    16   6 C    3.866 --    15 C    1.472     8 C    1.409    56 H    0.989
    17   6 C    3.924 --     7 C    1.366    20 N    1.355    18 C    1.164
    18   6 C    3.839 --    19 C    1.691    17 C    1.164    57 H    0.999
    19   6 C    3.852 --    18 C    1.691    21 C    1.167    58 H    0.999
    20   7 N    2.568 --    21 C    1.414    17 C    1.355
    21   6 C    3.943 --    20 N    1.414    22 C    1.286    19 C    1.167
    22   6 C    3.850 --    23 C    1.286    21 C    1.286   150 C    1.222
    23   6 C    3.904 --    22 C    1.286    24 C    1.267    27 N    1.250
    24   6 C    3.834 --    25 C    1.584    23 C    1.267    59 H    0.998
    25   6 C    3.818 --    24 C    1.584    26 C    1.260    60 H    0.998
    26   6 C    3.894 --    28 C    1.344    25 C    1.260    27 N    1.222
    27   7 N    3.258 --    23 C    1.250    26 C    1.222    61 H    0.960
    28   6 C    3.830 --    38 C    1.352    26 C    1.344    29 C    1.059
    29   6 C    3.879 --    30 C    1.408    37 C    1.408    28 C    1.059
    30   6 C    3.867 --    31 C    1.473    29 C    1.408    62 H    0.989
    31   6 C    3.847 --    30 C    1.473    32 C    1.375    63 H    0.992
    32   6 C    3.907 --    31 C    1.375    36 C    1.374    33 N    1.142
    33   7 N    3.010 --    32 C    1.142    35 C    0.966    34 C    0.965
    34   6 C    3.908 --    66 H    1.003    64 H    1.002    65 H    0.999
                            33 N    0.965
    35   6 C    3.908 --    67 H    1.003    68 H    1.002    69 H    0.999
                            33 N    0.966
    36   6 C    3.848 --    37 C    1.473    32 C    1.374    70 H    0.992
    37   6 C    3.866 --    36 C    1.473    29 C    1.408    71 H    0.989
    38   6 C    3.944 --    42 N    1.384    28 C    1.352    39 C    1.156
    39   6 C    3.843 --    40 C    1.705    38 C    1.156    72 H    0.999
    40   6 C    3.862 --    39 C    1.705    41 C    1.148    73 H    0.993
    41   6 C    3.968 --     1 C    1.385    42 N    1.374    40 C    1.148
    42   7 N    2.555 --    38 C    1.384    41 C    1.374
    43   1 H    1.033 --     1 C    0.996
    44   1 H    1.016 --     3 C    0.993
    45   1 H    1.034 --     4 C    0.999
    46   1 H    1.083 --     6 N    0.961
    47   1 H    1.054 --     9 C    0.989
    48   1 H    1.038 --    10 C    0.992
    49   1 H    1.026 --    13 C    0.999
    50   1 H    1.035 --    13 C    1.002
    51   1 H    1.055 --    13 C    1.003
    52   1 H    1.027 --    14 C    0.999
    53   1 H    1.056 --    14 C    1.003
    54   1 H    1.035 --    14 C    1.002
    55   1 H    1.039 --    15 C    0.992
    56   1 H    1.050 --    16 C    0.989
    57   1 H    1.040 --    18 C    0.999
    58   1 H    1.033 --    19 C    0.999
    59   1 H    1.028 --    24 C    0.998
    60   1 H    1.034 --    25 C    0.998
    61   1 H    1.087 --    27 N    0.960
    62   1 H    1.053 --    30 C    0.989
    63   1 H    1.038 --    31 C    0.992
    64   1 H    1.035 --    34 C    1.002
    65   1 H    1.026 --    34 C    0.999
    66   1 H    1.056 --    34 C    1.003
    67   1 H    1.056 --    35 C    1.003
    68   1 H    1.035 --    35 C    1.002
    69   1 H    1.026 --    35 C    0.999
    70   1 H    1.039 --    36 C    0.992
    71   1 H    1.050 --    37 C    0.989
    72   1 H    1.040 --    39 C    0.999
    73   1 H    1.019 --    40 C    0.993
    74   6 C    3.814 --   114 C    1.385    75 C    1.372   116 H    0.996
    75   6 C    3.925 --    74 C    1.372    76 C    1.242    79 N    1.229
    76   6 C    3.838 --    77 C    1.596    75 C    1.242   117 H    0.993
    77   6 C    3.825 --    76 C    1.596    78 C    1.254   118 H    0.999
    78   6 C    3.898 --    80 C    1.338    77 C    1.254    79 N    1.231
    79   7 N    3.248 --    78 C    1.231    75 C    1.229   119 H    0.961
    80   6 C    3.843 --    90 C    1.366    78 C    1.338    81 C    1.058
    81   6 C    3.879 --    89 C    1.409    82 C    1.408    80 C    1.058
    82   6 C    3.869 --    83 C    1.473    81 C    1.408   120 H    0.989
    83   6 C    3.847 --    82 C    1.473    84 C    1.375   121 H    0.992
    84   6 C    3.907 --    83 C    1.375    88 C    1.374    85 N    1.142
    85   7 N    3.010 --    84 C    1.142    86 C    0.966    87 C    0.965
    86   6 C    3.908 --   124 H    1.003   123 H    1.002   122 H    0.999
                            85 N    0.966
    87   6 C    3.908 --   126 H    1.003   127 H    1.002   125 H    0.999
                            85 N    0.965
    88   6 C    3.848 --    89 C    1.472    84 C    1.374   128 H    0.992
    89   6 C    3.866 --    88 C    1.472    81 C    1.409   129 H    0.989
    90   6 C    3.924 --    80 C    1.366    93 N    1.355    91 C    1.164
    91   6 C    3.839 --    92 C    1.691    90 C    1.164   130 H    0.999
    92   6 C    3.852 --    91 C    1.691    94 C    1.167   131 H    0.999
    93   7 N    2.568 --    94 C    1.414    90 C    1.355
    94   6 C    3.942 --    93 N    1.414    95 C    1.285    92 C    1.167
    95   6 C    3.850 --    96 C    1.286    94 C    1.285   194 C    1.222
    96   6 C    3.904 --    95 C    1.286    97 C    1.267   100 N    1.250
    97   6 C    3.834 --    98 C    1.584    96 C    1.267   132 H    0.998
    98   6 C    3.818 --    97 C    1.584    99 C    1.260   133 H    0.998
    99   6 C    3.894 --   101 C    1.344    98 C    1.260   100 N    1.222
   100   7 N    3.258 --    96 C    1.250    99 C    1.222   134 H    0.960
   101   6 C    3.830 --   111 C    1.352    99 C    1.344   102 C    1.060
   102   6 C    3.879 --   103 C    1.408   110 C    1.408   101 C    1.060
   103   6 C    3.867 --   104 C    1.473   102 C    1.408   135 H    0.989
   104   6 C    3.847 --   103 C    1.473   105 C    1.375   136 H    0.992
   105   6 C    3.907 --   104 C    1.375   109 C    1.374   106 N    1.142
   106   7 N    3.010 --   105 C    1.142   108 C    0.966   107 C    0.965
   107   6 C    3.908 --   139 H    1.003   137 H    1.002   138 H    0.999
                           106 N    0.965
   108   6 C    3.908 --   140 H    1.003   141 H    1.002   142 H    0.999
                           106 N    0.966
   109   6 C    3.848 --   110 C    1.473   105 C    1.374   143 H    0.992
   110   6 C    3.866 --   109 C    1.473   102 C    1.408   144 H    0.989
   111   6 C    3.944 --   115 N    1.384   101 C    1.352   112 C    1.156
   112   6 C    3.843 --   113 C    1.705   111 C    1.156   145 H    0.999
   113   6 C    3.862 --   112 C    1.705   114 C    1.149   146 H    0.993
   114   6 C    3.968 --    74 C    1.385   115 N    1.373   113 C    1.149
   115   7 N    2.555 --   111 C    1.384   114 C    1.373
   116   1 H    1.033 --    74 C    0.996
   117   1 H    1.016 --    76 C    0.993
   118   1 H    1.034 --    77 C    0.999
   119   1 H    1.083 --    79 N    0.961
   120   1 H    1.053 --    82 C    0.989
   121   1 H    1.038 --    83 C    0.992
   122   1 H    1.026 --    86 C    0.999
   123   1 H    1.035 --    86 C    1.002
   124   1 H    1.055 --    86 C    1.003
   125   1 H    1.027 --    87 C    0.999
   126   1 H    1.056 --    87 C    1.003
   127   1 H    1.035 --    87 C    1.002
   128   1 H    1.039 --    88 C    0.992
   129   1 H    1.050 --    89 C    0.989
   130   1 H    1.040 --    91 C    0.999
   131   1 H    1.033 --    92 C    0.999
   132   1 H    1.028 --    97 C    0.998
   133   1 H    1.034 --    98 C    0.998
   134   1 H    1.087 --   100 N    0.960
   135   1 H    1.053 --   103 C    0.989
   136   1 H    1.038 --   104 C    0.992
   137   1 H    1.035 --   107 C    1.002
   138   1 H    1.026 --   107 C    0.999
   139   1 H    1.056 --   107 C    1.003
   140   1 H    1.056 --   108 C    1.003
   141   1 H    1.035 --   108 C    1.002
   142   1 H    1.026 --   108 C    0.999
   143   1 H    1.039 --   109 C    0.992
   144   1 H    1.050 --   110 C    0.989
   145   1 H    1.040 --   112 C    0.999
   146   1 H    1.019 --   113 C    0.993
   147   6 C    3.837 --   148 C    2.373   151 C    1.359   150 C    0.172
   148   6 C    3.834 --   147 C    2.373   149 C    1.357   152 C    0.171
   149   6 C    3.809 --   150 C    2.472   148 C    1.357
   150   6 C    3.768 --   149 C    2.472    22 C    1.222   147 C    0.172
   151   6 C    3.804 --   152 C    2.467   147 C    1.359
   152   6 C    3.770 --   151 C    2.467   195 C    1.227   148 C    0.171
   153   6 C    3.834 --   154 C    2.368   157 C    1.362   156 C    0.170
   154   6 C    3.834 --   153 C    2.368   155 C    1.362   158 C    0.170
   155   6 C    3.804 --   156 C    2.463   154 C    1.362
   156   6 C    3.768 --   155 C    2.463   216 C    1.230   153 C    0.170
   157   6 C    3.804 --   158 C    2.463   153 C    1.362
   158   6 C    3.768 --   157 C    2.463   267 C    1.229   154 C    0.170
   159   6 C    3.834 --   160 C    2.368   163 C    1.362   162 C    0.171
   160   6 C    3.834 --   159 C    2.368   161 C    1.362   164 C    0.171
   161   6 C    3.804 --   162 C    2.464   160 C    1.362
   162   6 C    3.768 --   161 C    2.464   288 C    1.229   159 C    0.171
   163   6 C    3.805 --   164 C    2.464   159 C    1.362
   164   6 C    3.768 --   163 C    2.464   339 C    1.229   160 C    0.171
   165   6 C    3.835 --   166 C    2.369   169 C    1.361   168 C    0.171
   166   6 C    3.835 --   165 C    2.369   167 C    1.361   170 C    0.171
   167   6 C    3.805 --   168 C    2.465   166 C    1.361
   168   6 C    3.768 --   167 C    2.465   360 C    1.228   165 C    0.171
   169   6 C    3.805 --   170 C    2.465   165 C    1.361
   170   6 C    3.768 --   169 C    2.465   411 C    1.228   166 C    0.171
   171   6 C    3.835 --   172 C    2.369   175 C    1.361   174 C    0.171
   172   6 C    3.835 --   171 C    2.369   173 C    1.361   176 C    0.171
   173   6 C    3.805 --   174 C    2.465   172 C    1.361
   174   6 C    3.768 --   173 C    2.465   432 C    1.228   171 C    0.171
   175   6 C    3.805 --   176 C    2.465   171 C    1.361
   176   6 C    3.768 --   175 C    2.465   483 C    1.228   172 C    0.171
   177   6 C    3.834 --   178 C    2.368   181 C    1.362   180 C    0.171
   178   6 C    3.834 --   177 C    2.368   179 C    1.362   182 C    0.171
   179   6 C    3.805 --   180 C    2.464   178 C    1.362
   180   6 C    3.768 --   179 C    2.464   504 C    1.229   177 C    0.171
   181   6 C    3.804 --   182 C    2.464   177 C    1.362
   182   6 C    3.768 --   181 C    2.464   555 C    1.229   178 C    0.171
   183   6 C    3.834 --   184 C    2.368   187 C    1.362   186 C    0.170
   184   6 C    3.834 --   183 C    2.368   185 C    1.362   188 C    0.170
   185   6 C    3.804 --   186 C    2.463   184 C    1.362
   186   6 C    3.768 --   185 C    2.463   576 C    1.229   183 C    0.170
   187   6 C    3.804 --   188 C    2.463   183 C    1.362
   188   6 C    3.768 --   187 C    2.463   627 C    1.229   184 C    0.170
   189   6 C    3.834 --   190 C    2.373   193 C    1.358   192 C    0.171
   190   6 C    3.837 --   189 C    2.373   191 C    1.359   194 C    0.172
   191   6 C    3.804 --   192 C    2.467   190 C    1.359
   192   6 C    3.770 --   191 C    2.467   648 C    1.227   189 C    0.171
   193   6 C    3.809 --   194 C    2.472   189 C    1.358
   194   6 C    3.768 --   193 C    2.472    95 C    1.222   190 C    0.172
   195   6 C    3.830 --   235 C    1.283   196 C    1.279   152 C    1.227
   196   6 C    3.905 --   195 C    1.279   197 C    1.272   200 N    1.252
   197   6 C    3.829 --   198 C    1.576   196 C    1.272   237 H    0.999
   198   6 C    3.819 --   197 C    1.576   199 C    1.267   238 H    0.999
   199   6 C    3.886 --   201 C    1.334   198 C    1.267   200 N    1.222
   200   7 N    3.250 --   196 C    1.252   199 C    1.222   239 H    0.961
   201   6 C    3.834 --   211 C    1.369   199 C    1.334   202 C    1.059
   202   6 C    3.879 --   210 C    1.409   203 C    1.408   201 C    1.059
   203   6 C    3.866 --   204 C    1.473   202 C    1.408   240 H    0.989
   204   6 C    3.848 --   203 C    1.473   205 C    1.374   241 H    0.992
   205   6 C    3.906 --   209 C    1.375   204 C    1.374   206 N    1.142
   206   7 N    3.010 --   205 C    1.142   208 C    0.966   207 C    0.965
   207   6 C    3.908 --   243 H    1.003   242 H    1.002   244 H    0.999
                           206 N    0.965
   208   6 C    3.908 --   245 H    1.003   247 H    1.002   246 H    0.999
                           206 N    0.966
   209   6 C    3.846 --   210 C    1.473   205 C    1.375   248 H    0.992
   210   6 C    3.870 --   209 C    1.473   202 C    1.409   249 H    0.989
   211   6 C    3.923 --   201 C    1.369   214 N    1.353   212 C    1.164
   212   6 C    3.839 --   213 C    1.689   211 C    1.164   250 H    0.999
   213   6 C    3.849 --   212 C    1.689   215 C    1.169   251 H    1.000
   214   7 N    2.552 --   215 C    1.416   211 C    1.353
   215   6 C    3.943 --   214 N    1.416   216 C    1.282   213 C    1.169
   216   6 C    3.831 --   215 C    1.282   217 C    1.279   156 C    1.230
   217   6 C    3.905 --   216 C    1.279   218 C    1.273   221 N    1.252
   218   6 C    3.829 --   219 C    1.575   217 C    1.273   252 H    0.998
   219   6 C    3.818 --   218 C    1.575   220 C    1.267   253 H    0.998
   220   6 C    3.886 --   222 C    1.333   219 C    1.267   221 N    1.223
   221   7 N    3.251 --   217 C    1.252   220 C    1.223   254 H    0.961
   222   6 C    3.833 --   232 C    1.371   220 C    1.333   223 C    1.059
   223   6 C    3.879 --   231 C    1.409   224 C    1.408   222 C    1.059
   224   6 C    3.866 --   225 C    1.473   223 C    1.408   255 H    0.989
   225   6 C    3.848 --   224 C    1.473   226 C    1.374   256 H    0.992
   226   6 C    3.906 --   230 C    1.375   225 C    1.374   227 N    1.142
   227   7 N    3.010 --   226 C    1.142   228 C    0.966   229 C    0.965
   228   6 C    3.908 --   258 H    1.003   259 H    1.002   257 H    0.999
                           227 N    0.966
   229   6 C    3.908 --   262 H    1.003   261 H    1.002   260 H    0.999
                           227 N    0.965
   230   6 C    3.847 --   231 C    1.473   226 C    1.375   263 H    0.992
   231   6 C    3.869 --   230 C    1.473   223 C    1.409   264 H    0.989
   232   6 C    3.923 --   222 C    1.371   236 N    1.352   233 C    1.164
   233   6 C    3.840 --   234 C    1.690   232 C    1.164   265 H    0.999
   234   6 C    3.849 --   233 C    1.690   235 C    1.169   266 H    1.000
   235   6 C    3.944 --   236 N    1.416   195 C    1.283   234 C    1.169
   236   7 N    2.551 --   235 C    1.416   232 C    1.352
   237   1 H    1.028 --   197 C    0.999
   238   1 H    1.035 --   198 C    0.999
   239   1 H    1.084 --   200 N    0.961
   240   1 H    1.050 --   203 C    0.989
   241   1 H    1.039 --   204 C    0.992
   242   1 H    1.035 --   207 C    1.002
   243   1 H    1.056 --   207 C    1.003
   244   1 H    1.027 --   207 C    0.999
   245   1 H    1.055 --   208 C    1.003
   246   1 H    1.026 --   208 C    0.999
   247   1 H    1.036 --   208 C    1.002
   248   1 H    1.038 --   209 C    0.992
   249   1 H    1.053 --   210 C    0.989
   250   1 H    1.040 --   212 C    0.999
   251   1 H    1.033 --   213 C    1.000
   252   1 H    1.028 --   218 C    0.998
   253   1 H    1.035 --   219 C    0.998
   254   1 H    1.084 --   221 N    0.961
   255   1 H    1.050 --   224 C    0.989
   256   1 H    1.039 --   225 C    0.992
   257   1 H    1.026 --   228 C    0.999
   258   1 H    1.056 --   228 C    1.003
   259   1 H    1.036 --   228 C    1.002
   260   1 H    1.027 --   229 C    0.999
   261   1 H    1.035 --   229 C    1.002
   262   1 H    1.056 --   229 C    1.003
   263   1 H    1.038 --   230 C    0.992
   264   1 H    1.053 --   231 C    0.989
   265   1 H    1.040 --   233 C    0.999
   266   1 H    1.033 --   234 C    1.000
   267   6 C    3.831 --   307 C    1.282   268 C    1.279   158 C    1.229
   268   6 C    3.905 --   267 C    1.279   269 C    1.273   272 N    1.252
   269   6 C    3.828 --   270 C    1.575   268 C    1.273   309 H    0.999
   270   6 C    3.818 --   269 C    1.575   271 C    1.267   310 H    0.999
   271   6 C    3.886 --   273 C    1.334   270 C    1.267   272 N    1.222
   272   7 N    3.251 --   268 C    1.252   271 C    1.222   311 H    0.961
   273   6 C    3.833 --   283 C    1.370   271 C    1.334   274 C    1.059
   274   6 C    3.878 --   282 C    1.409   275 C    1.408   273 C    1.059
   275   6 C    3.866 --   276 C    1.473   274 C    1.408   312 H    0.989
   276   6 C    3.848 --   275 C    1.473   277 C    1.374   313 H    0.992
   277   6 C    3.906 --   281 C    1.375   276 C    1.374   278 N    1.142
   278   7 N    3.011 --   277 C    1.142   280 C    0.966   279 C    0.965
   279   6 C    3.908 --   315 H    1.003   314 H    1.002   316 H    0.999
                           278 N    0.965
   280   6 C    3.908 --   317 H    1.003   319 H    1.002   318 H    0.999
                           278 N    0.966
   281   6 C    3.846 --   282 C    1.473   277 C    1.375   320 H    0.992
   282   6 C    3.868 --   281 C    1.473   274 C    1.409   321 H    0.989
   283   6 C    3.923 --   273 C    1.370   286 N    1.353   284 C    1.164
   284   6 C    3.839 --   285 C    1.690   283 C    1.164   322 H    0.999
   285   6 C    3.850 --   284 C    1.690   287 C    1.169   323 H    1.000
   286   7 N    2.552 --   287 C    1.416   283 C    1.353
   287   6 C    3.943 --   286 N    1.416   288 C    1.282   285 C    1.169
   288   6 C    3.832 --   287 C    1.282   289 C    1.279   162 C    1.229
   289   6 C    3.905 --   288 C    1.279   290 C    1.273   293 N    1.252
   290   6 C    3.830 --   291 C    1.576   289 C    1.273   324 H    0.999
   291   6 C    3.818 --   290 C    1.576   292 C    1.267   325 H    0.999
   292   6 C    3.886 --   294 C    1.334   291 C    1.267   293 N    1.222
   293   7 N    3.251 --   289 C    1.252   292 C    1.222   326 H    0.961
   294   6 C    3.833 --   304 C    1.370   292 C    1.334   295 C    1.059
   295   6 C    3.878 --   303 C    1.409   296 C    1.408   294 C    1.059
   296   6 C    3.866 --   297 C    1.473   295 C    1.408   327 H    0.989
   297   6 C    3.848 --   296 C    1.473   298 C    1.374   328 H    0.992
   298   6 C    3.906 --   302 C    1.375   297 C    1.374   299 N    1.142
   299   7 N    3.010 --   298 C    1.142   300 C    0.966   301 C    0.965
   300   6 C    3.908 --   330 H    1.003   331 H    1.002   329 H    0.999
                           299 N    0.966
   301   6 C    3.908 --   334 H    1.003   333 H    1.002   332 H    0.999
                           299 N    0.965
   302   6 C    3.846 --   303 C    1.473   298 C    1.375   335 H    0.992
   303   6 C    3.870 --   302 C    1.473   295 C    1.409   336 H    0.989
   304   6 C    3.923 --   294 C    1.370   308 N    1.352   305 C    1.164
   305   6 C    3.839 --   306 C    1.689   304 C    1.164   337 H    0.999
   306   6 C    3.849 --   305 C    1.689   307 C    1.169   338 H    1.000
   307   6 C    3.943 --   308 N    1.416   267 C    1.282   306 C    1.169
   308   7 N    2.552 --   307 C    1.416   304 C    1.352
   309   1 H    1.028 --   269 C    0.999
   310   1 H    1.035 --   270 C    0.999
   311   1 H    1.084 --   272 N    0.961
   312   1 H    1.050 --   275 C    0.989
   313   1 H    1.039 --   276 C    0.992
   314   1 H    1.035 --   279 C    1.002
   315   1 H    1.056 --   279 C    1.003
   316   1 H    1.027 --   279 C    0.999
   317   1 H    1.055 --   280 C    1.003
   318   1 H    1.026 --   280 C    0.999
   319   1 H    1.036 --   280 C    1.002
   320   1 H    1.038 --   281 C    0.992
   321   1 H    1.053 --   282 C    0.989
   322   1 H    1.040 --   284 C    0.999
   323   1 H    1.033 --   285 C    1.000
   324   1 H    1.028 --   290 C    0.999
   325   1 H    1.035 --   291 C    0.999
   326   1 H    1.084 --   293 N    0.961
   327   1 H    1.050 --   296 C    0.989
   328   1 H    1.039 --   297 C    0.992
   329   1 H    1.026 --   300 C    0.999
   330   1 H    1.055 --   300 C    1.003
   331   1 H    1.036 --   300 C    1.002
   332   1 H    1.027 --   301 C    0.999
   333   1 H    1.035 --   301 C    1.002
   334   1 H    1.056 --   301 C    1.003
   335   1 H    1.038 --   302 C    0.992
   336   1 H    1.053 --   303 C    0.989
   337   1 H    1.040 --   305 C    0.999
   338   1 H    1.033 --   306 C    1.000
   339   6 C    3.833 --   379 C    1.282   340 C    1.279   164 C    1.229
   340   6 C    3.905 --   339 C    1.279   341 C    1.273   344 N    1.252
   341   6 C    3.830 --   342 C    1.576   340 C    1.273   381 H    0.999
   342   6 C    3.819 --   341 C    1.576   343 C    1.267   382 H    0.998
   343   6 C    3.887 --   345 C    1.334   342 C    1.267   344 N    1.222
   344   7 N    3.251 --   340 C    1.252   343 C    1.222   383 H    0.961
   345   6 C    3.833 --   355 C    1.370   343 C    1.334   346 C    1.059
   346   6 C    3.878 --   354 C    1.409   347 C    1.408   345 C    1.059
   347   6 C    3.866 --   348 C    1.473   346 C    1.408   384 H    0.989
   348   6 C    3.848 --   347 C    1.473   349 C    1.374   385 H    0.992
   349   6 C    3.906 --   353 C    1.375   348 C    1.374   350 N    1.142
   350   7 N    3.011 --   349 C    1.142   352 C    0.966   351 C    0.965
   351   6 C    3.908 --   387 H    1.003   386 H    1.002   388 H    0.999
                           350 N    0.965
   352   6 C    3.908 --   389 H    1.003   391 H    1.002   390 H    0.999
                           350 N    0.966
   353   6 C    3.846 --   354 C    1.473   349 C    1.375   392 H    0.992
   354   6 C    3.869 --   353 C    1.473   346 C    1.409   393 H    0.989
   355   6 C    3.924 --   345 C    1.370   358 N    1.353   356 C    1.164
   356   6 C    3.840 --   357 C    1.690   355 C    1.164   394 H    0.999
   357   6 C    3.850 --   356 C    1.690   359 C    1.169   395 H    1.000
   358   7 N    2.552 --   359 C    1.416   355 C    1.353
   359   6 C    3.944 --   358 N    1.416   360 C    1.283   357 C    1.169
   360   6 C    3.833 --   359 C    1.283   361 C    1.279   168 C    1.228
   361   6 C    3.905 --   360 C    1.279   362 C    1.273   365 N    1.252
   362   6 C    3.830 --   363 C    1.576   361 C    1.273   396 H    0.998
   363   6 C    3.819 --   362 C    1.576   364 C    1.267   397 H    0.998
   364   6 C    3.887 --   366 C    1.334   363 C    1.267   365 N    1.222
   365   7 N    3.251 --   361 C    1.252   364 C    1.222   398 H    0.961
   366   6 C    3.833 --   376 C    1.369   364 C    1.334   367 C    1.059
   367   6 C    3.878 --   375 C    1.409   368 C    1.408   366 C    1.059
   368   6 C    3.866 --   369 C    1.473   367 C    1.408   399 H    0.989
   369   6 C    3.848 --   368 C    1.473   370 C    1.374   400 H    0.992
   370   6 C    3.906 --   374 C    1.375   369 C    1.374   371 N    1.142
   371   7 N    3.011 --   370 C    1.142   372 C    0.966   373 C    0.965
   372   6 C    3.908 --   402 H    1.003   403 H    1.002   401 H    0.999
                           371 N    0.966
   373   6 C    3.908 --   406 H    1.003   405 H    1.002   404 H    0.999
                           371 N    0.965
   374   6 C    3.846 --   375 C    1.473   370 C    1.375   407 H    0.992
   375   6 C    3.869 --   374 C    1.473   367 C    1.409   408 H    0.989
   376   6 C    3.924 --   366 C    1.369   380 N    1.353   377 C    1.164
   377   6 C    3.840 --   378 C    1.689   376 C    1.164   409 H    0.999
   378   6 C    3.850 --   377 C    1.689   379 C    1.169   410 H    1.000
   379   6 C    3.944 --   380 N    1.416   339 C    1.282   378 C    1.169
   380   7 N    2.553 --   379 C    1.416   376 C    1.353
   381   1 H    1.028 --   341 C    0.999
   382   1 H    1.035 --   342 C    0.998
   383   1 H    1.084 --   344 N    0.961
   384   1 H    1.050 --   347 C    0.989
   385   1 H    1.039 --   348 C    0.992
   386   1 H    1.035 --   351 C    1.002
   387   1 H    1.056 --   351 C    1.003
   388   1 H    1.027 --   351 C    0.999
   389   1 H    1.055 --   352 C    1.003
   390   1 H    1.026 --   352 C    0.999
   391   1 H    1.036 --   352 C    1.002
   392   1 H    1.038 --   353 C    0.992
   393   1 H    1.053 --   354 C    0.989
   394   1 H    1.040 --   356 C    0.999
   395   1 H    1.033 --   357 C    1.000
   396   1 H    1.028 --   362 C    0.998
   397   1 H    1.035 --   363 C    0.998
   398   1 H    1.084 --   365 N    0.961
   399   1 H    1.050 --   368 C    0.989
   400   1 H    1.039 --   369 C    0.992
   401   1 H    1.026 --   372 C    0.999
   402   1 H    1.055 --   372 C    1.003
   403   1 H    1.036 --   372 C    1.002
   404   1 H    1.027 --   373 C    0.999
   405   1 H    1.035 --   373 C    1.002
   406   1 H    1.056 --   373 C    1.003
   407   1 H    1.038 --   374 C    0.992
   408   1 H    1.053 --   375 C    0.989
   409   1 H    1.040 --   377 C    0.999
   410   1 H    1.033 --   378 C    1.000
   411   6 C    3.834 --   451 C    1.283   412 C    1.280   170 C    1.228
   412   6 C    3.905 --   411 C    1.280   413 C    1.272   416 N    1.252
   413   6 C    3.831 --   414 C    1.576   412 C    1.272   453 H    0.998
   414   6 C    3.819 --   413 C    1.576   415 C    1.266   454 H    0.998
   415   6 C    3.887 --   417 C    1.334   414 C    1.266   416 N    1.223
   416   7 N    3.251 --   412 C    1.252   415 C    1.223   455 H    0.961
   417   6 C    3.833 --   427 C    1.369   415 C    1.334   418 C    1.059
   418   6 C    3.878 --   426 C    1.409   419 C    1.408   417 C    1.059
   419   6 C    3.866 --   420 C    1.473   418 C    1.408   456 H    0.989
   420   6 C    3.848 --   419 C    1.473   421 C    1.374   457 H    0.992
   421   6 C    3.907 --   425 C    1.375   420 C    1.374   422 N    1.142
   422   7 N    3.011 --   421 C    1.142   424 C    0.966   423 C    0.965
   423   6 C    3.908 --   459 H    1.003   458 H    1.002   460 H    0.999
                           422 N    0.965
   424   6 C    3.908 --   461 H    1.003   463 H    1.002   462 H    0.999
                           422 N    0.966
   425   6 C    3.846 --   426 C    1.473   421 C    1.375   464 H    0.992
   426   6 C    3.869 --   425 C    1.473   418 C    1.409   465 H    0.989
   427   6 C    3.924 --   417 C    1.369   430 N    1.353   428 C    1.164
   428   6 C    3.840 --   429 C    1.690   427 C    1.164   466 H    0.999
   429   6 C    3.850 --   428 C    1.690   431 C    1.169   467 H    1.000
   430   7 N    2.553 --   431 C    1.416   427 C    1.353
   431   6 C    3.944 --   430 N    1.416   432 C    1.283   429 C    1.169
   432   6 C    3.834 --   431 C    1.283   433 C    1.280   174 C    1.228
   433   6 C    3.905 --   432 C    1.280   434 C    1.273   437 N    1.252
   434   6 C    3.831 --   435 C    1.576   433 C    1.273   468 H    0.998
   435   6 C    3.819 --   434 C    1.576   436 C    1.267   469 H    0.998
   436   6 C    3.887 --   438 C    1.334   435 C    1.267   437 N    1.223
   437   7 N    3.251 --   433 C    1.252   436 C    1.223   470 H    0.961
   438   6 C    3.833 --   448 C    1.370   436 C    1.334   439 C    1.059
   439   6 C    3.878 --   447 C    1.409   440 C    1.408   438 C    1.059
   440   6 C    3.866 --   441 C    1.473   439 C    1.408   471 H    0.989
   441   6 C    3.848 --   440 C    1.473   442 C    1.374   472 H    0.992
   442   6 C    3.906 --   446 C    1.375   441 C    1.374   443 N    1.143
   443   7 N    3.011 --   442 C    1.143   444 C    0.966   445 C    0.965
   444   6 C    3.908 --   474 H    1.003   475 H    1.002   473 H    0.999
                           443 N    0.966
   445   6 C    3.908 --   478 H    1.003   477 H    1.002   476 H    0.999
                           443 N    0.965
   446   6 C    3.846 --   447 C    1.473   442 C    1.375   479 H    0.992
   447   6 C    3.869 --   446 C    1.473   439 C    1.409   480 H    0.989
   448   6 C    3.924 --   438 C    1.370   452 N    1.353   449 C    1.164
   449   6 C    3.840 --   450 C    1.690   448 C    1.164   481 H    0.999
   450   6 C    3.850 --   449 C    1.690   451 C    1.169   482 H    1.000
   451   6 C    3.944 --   452 N    1.416   411 C    1.283   450 C    1.169
   452   7 N    2.553 --   451 C    1.416   448 C    1.353
   453   1 H    1.028 --   413 C    0.998
   454   1 H    1.035 --   414 C    0.998
   455   1 H    1.084 --   416 N    0.961
   456   1 H    1.050 --   419 C    0.989
   457   1 H    1.039 --   420 C    0.992
   458   1 H    1.035 --   423 C    1.002
   459   1 H    1.056 --   423 C    1.003
   460   1 H    1.027 --   423 C    0.999
   461   1 H    1.055 --   424 C    1.003
   462   1 H    1.026 --   424 C    0.999
   463   1 H    1.036 --   424 C    1.002
   464   1 H    1.038 --   425 C    0.992
   465   1 H    1.053 --   426 C    0.989
   466   1 H    1.040 --   428 C    0.999
   467   1 H    1.033 --   429 C    1.000
   468   1 H    1.028 --   434 C    0.998
   469   1 H    1.035 --   435 C    0.998
   470   1 H    1.084 --   437 N    0.961
   471   1 H    1.050 --   440 C    0.989
   472   1 H    1.039 --   441 C    0.992
   473   1 H    1.026 --   444 C    0.999
   474   1 H    1.055 --   444 C    1.003
   475   1 H    1.036 --   444 C    1.002
   476   1 H    1.027 --   445 C    0.999
   477   1 H    1.035 --   445 C    1.002
   478   1 H    1.056 --   445 C    1.003
   479   1 H    1.038 --   446 C    0.992
   480   1 H    1.053 --   447 C    0.989
   481   1 H    1.040 --   449 C    0.999
   482   1 H    1.033 --   450 C    1.000
   483   6 C    3.833 --   523 C    1.283   484 C    1.280   176 C    1.228
   484   6 C    3.905 --   483 C    1.280   485 C    1.272   488 N    1.252
   485   6 C    3.830 --   486 C    1.576   484 C    1.272   525 H    0.998
   486   6 C    3.819 --   485 C    1.576   487 C    1.266   526 H    0.998
   487   6 C    3.887 --   489 C    1.334   486 C    1.266   488 N    1.222
   488   7 N    3.251 --   484 C    1.252   487 C    1.222   527 H    0.961
   489   6 C    3.833 --   499 C    1.369   487 C    1.334   490 C    1.059
   490   6 C    3.878 --   498 C    1.409   491 C    1.408   489 C    1.059
   491   6 C    3.866 --   492 C    1.473   490 C    1.408   528 H    0.989
   492   6 C    3.848 --   491 C    1.473   493 C    1.374   529 H    0.992
   493   6 C    3.907 --   497 C    1.375   492 C    1.374   494 N    1.142
   494   7 N    3.010 --   493 C    1.142   496 C    0.966   495 C    0.965
   495   6 C    3.908 --   531 H    1.003   530 H    1.002   532 H    0.999
                           494 N    0.965
   496   6 C    3.908 --   533 H    1.003   535 H    1.002   534 H    0.999
                           494 N    0.966
   497   6 C    3.846 --   498 C    1.473   493 C    1.375   536 H    0.992
   498   6 C    3.869 --   497 C    1.473   490 C    1.409   537 H    0.989
   499   6 C    3.924 --   489 C    1.369   502 N    1.353   500 C    1.164
   500   6 C    3.840 --   501 C    1.690   499 C    1.164   538 H    0.999
   501   6 C    3.850 --   500 C    1.690   503 C    1.169   539 H    1.000
   502   7 N    2.553 --   503 C    1.416   499 C    1.353
   503   6 C    3.944 --   502 N    1.416   504 C    1.283   501 C    1.169
   504   6 C    3.833 --   503 C    1.283   505 C    1.279   180 C    1.229
   505   6 C    3.905 --   504 C    1.279   506 C    1.273   509 N    1.252
   506   6 C    3.830 --   507 C    1.576   505 C    1.273   540 H    0.999
   507   6 C    3.819 --   506 C    1.576   508 C    1.267   541 H    0.998
   508   6 C    3.887 --   510 C    1.334   507 C    1.267   509 N    1.223
   509   7 N    3.251 --   505 C    1.252   508 C    1.223   542 H    0.961
   510   6 C    3.833 --   520 C    1.370   508 C    1.334   511 C    1.059
   511   6 C    3.878 --   519 C    1.409   512 C    1.408   510 C    1.059
   512   6 C    3.866 --   513 C    1.473   511 C    1.408   543 H    0.989
   513   6 C    3.848 --   512 C    1.473   514 C    1.374   544 H    0.992
   514   6 C    3.906 --   518 C    1.375   513 C    1.374   515 N    1.142
   515   7 N    3.011 --   514 C    1.142   516 C    0.966   517 C    0.965
   516   6 C    3.908 --   546 H    1.003   547 H    1.002   545 H    0.999
                           515 N    0.966
   517   6 C    3.908 --   550 H    1.003   549 H    1.002   548 H    0.999
                           515 N    0.965
   518   6 C    3.846 --   519 C    1.473   514 C    1.375   551 H    0.992
   519   6 C    3.869 --   518 C    1.473   511 C    1.409   552 H    0.989
   520   6 C    3.924 --   510 C    1.370   524 N    1.353   521 C    1.164
   521   6 C    3.840 --   522 C    1.690   520 C    1.164   553 H    0.999
   522   6 C    3.850 --   521 C    1.690   523 C    1.169   554 H    1.000
   523   6 C    3.944 --   524 N    1.416   483 C    1.283   522 C    1.169
   524   7 N    2.552 --   523 C    1.416   520 C    1.353
   525   1 H    1.028 --   485 C    0.998
   526   1 H    1.035 --   486 C    0.998
   527   1 H    1.084 --   488 N    0.961
   528   1 H    1.050 --   491 C    0.989
   529   1 H    1.039 --   492 C    0.992
   530   1 H    1.035 --   495 C    1.002
   531   1 H    1.056 --   495 C    1.003
   532   1 H    1.027 --   495 C    0.999
   533   1 H    1.055 --   496 C    1.003
   534   1 H    1.026 --   496 C    0.999
   535   1 H    1.036 --   496 C    1.002
   536   1 H    1.038 --   497 C    0.992
   537   1 H    1.053 --   498 C    0.989
   538   1 H    1.040 --   500 C    0.999
   539   1 H    1.033 --   501 C    1.000
   540   1 H    1.028 --   506 C    0.999
   541   1 H    1.035 --   507 C    0.998
   542   1 H    1.084 --   509 N    0.961
   543   1 H    1.050 --   512 C    0.989
   544   1 H    1.039 --   513 C    0.992
   545   1 H    1.026 --   516 C    0.999
   546   1 H    1.055 --   516 C    1.003
   547   1 H    1.036 --   516 C    1.002
   548   1 H    1.027 --   517 C    0.999
   549   1 H    1.035 --   517 C    1.002
   550   1 H    1.056 --   517 C    1.003
   551   1 H    1.038 --   518 C    0.992
   552   1 H    1.053 --   519 C    0.989
   553   1 H    1.040 --   521 C    0.999
   554   1 H    1.033 --   522 C    1.000
   555   6 C    3.832 --   595 C    1.282   556 C    1.279   182 C    1.229
   556   6 C    3.905 --   555 C    1.279   557 C    1.273   560 N    1.252
   557   6 C    3.830 --   558 C    1.576   556 C    1.273   597 H    0.999
   558   6 C    3.818 --   557 C    1.576   559 C    1.267   598 H    0.999
   559   6 C    3.886 --   561 C    1.334   558 C    1.267   560 N    1.222
   560   7 N    3.251 --   556 C    1.252   559 C    1.222   599 H    0.961
   561   6 C    3.833 --   571 C    1.370   559 C    1.334   562 C    1.059
   562   6 C    3.879 --   570 C    1.409   563 C    1.408   561 C    1.059
   563   6 C    3.866 --   564 C    1.473   562 C    1.408   600 H    0.989
   564   6 C    3.848 --   563 C    1.473   565 C    1.374   601 H    0.992
   565   6 C    3.907 --   569 C    1.375   564 C    1.374   566 N    1.142
   566   7 N    3.010 --   565 C    1.142   568 C    0.966   567 C    0.965
   567   6 C    3.908 --   603 H    1.003   602 H    1.002   604 H    0.999
                           566 N    0.965
   568   6 C    3.908 --   605 H    1.003   607 H    1.002   606 H    0.999
                           566 N    0.966
   569   6 C    3.846 --   570 C    1.472   565 C    1.375   608 H    0.992
   570   6 C    3.870 --   569 C    1.472   562 C    1.409   609 H    0.989
   571   6 C    3.923 --   561 C    1.370   574 N    1.352   572 C    1.164
   572   6 C    3.839 --   573 C    1.689   571 C    1.164   610 H    0.999
   573   6 C    3.849 --   572 C    1.689   575 C    1.169   611 H    1.000
   574   7 N    2.552 --   575 C    1.416   571 C    1.352
   575   6 C    3.943 --   574 N    1.416   576 C    1.282   573 C    1.169
   576   6 C    3.831 --   575 C    1.282   577 C    1.279   186 C    1.229
   577   6 C    3.905 --   576 C    1.279   578 C    1.273   581 N    1.252
   578   6 C    3.828 --   579 C    1.575   577 C    1.273   612 H    0.999
   579   6 C    3.818 --   578 C    1.575   580 C    1.267   613 H    0.999
   580   6 C    3.886 --   582 C    1.334   579 C    1.267   581 N    1.222
   581   7 N    3.251 --   577 C    1.252   580 C    1.222   614 H    0.961
   582   6 C    3.833 --   592 C    1.370   580 C    1.334   583 C    1.059
   583   6 C    3.878 --   591 C    1.409   584 C    1.408   582 C    1.059
   584   6 C    3.866 --   585 C    1.473   583 C    1.408   615 H    0.989
   585   6 C    3.848 --   584 C    1.473   586 C    1.374   616 H    0.992
   586   6 C    3.906 --   590 C    1.375   585 C    1.374   587 N    1.142
   587   7 N    3.011 --   586 C    1.142   588 C    0.966   589 C    0.965
   588   6 C    3.908 --   618 H    1.003   619 H    1.002   617 H    0.999
                           587 N    0.966
   589   6 C    3.908 --   622 H    1.003   621 H    1.002   620 H    0.999
                           587 N    0.965
   590   6 C    3.846 --   591 C    1.473   586 C    1.375   623 H    0.992
   591   6 C    3.868 --   590 C    1.473   583 C    1.409   624 H    0.989
   592   6 C    3.923 --   582 C    1.370   596 N    1.352   593 C    1.164
   593   6 C    3.839 --   594 C    1.689   592 C    1.164   625 H    0.999
   594   6 C    3.850 --   593 C    1.689   595 C    1.169   626 H    1.000
   595   6 C    3.944 --   596 N    1.416   555 C    1.282   594 C    1.169
   596   7 N    2.552 --   595 C    1.416   592 C    1.352
   597   1 H    1.028 --   557 C    0.999
   598   1 H    1.035 --   558 C    0.999
   599   1 H    1.084 --   560 N    0.961
   600   1 H    1.050 --   563 C    0.989
   601   1 H    1.039 --   564 C    0.992
   602   1 H    1.035 --   567 C    1.002
   603   1 H    1.056 --   567 C    1.003
   604   1 H    1.027 --   567 C    0.999
   605   1 H    1.055 --   568 C    1.003
   606   1 H    1.026 --   568 C    0.999
   607   1 H    1.036 --   568 C    1.002
   608   1 H    1.038 --   569 C    0.992
   609   1 H    1.053 --   570 C    0.989
   610   1 H    1.040 --   572 C    0.999
   611   1 H    1.033 --   573 C    1.000
   612   1 H    1.028 --   578 C    0.999
   613   1 H    1.035 --   579 C    0.999
   614   1 H    1.084 --   581 N    0.961
   615   1 H    1.050 --   584 C    0.989
   616   1 H    1.039 --   585 C    0.992
   617   1 H    1.026 --   588 C    0.999
   618   1 H    1.055 --   588 C    1.003
   619   1 H    1.036 --   588 C    1.002
   620   1 H    1.027 --   589 C    0.999
   621   1 H    1.035 --   589 C    1.002
   622   1 H    1.056 --   589 C    1.003
   623   1 H    1.038 --   590 C    0.992
   624   1 H    1.053 --   591 C    0.989
   625   1 H    1.040 --   593 C    0.999
   626   1 H    1.033 --   594 C    1.000
   627   6 C    3.831 --   667 C    1.282   628 C    1.279   188 C    1.229
   628   6 C    3.904 --   627 C    1.279   629 C    1.273   632 N    1.252
   629   6 C    3.829 --   630 C    1.575   628 C    1.273   669 H    0.998
   630   6 C    3.818 --   629 C    1.575   631 C    1.267   670 H    0.998
   631   6 C    3.886 --   633 C    1.333   630 C    1.267   632 N    1.223
   632   7 N    3.251 --   628 C    1.252   631 C    1.223   671 H    0.961
   633   6 C    3.833 --   643 C    1.371   631 C    1.333   634 C    1.058
   634   6 C    3.879 --   642 C    1.409   635 C    1.408   633 C    1.058
   635   6 C    3.866 --   636 C    1.473   634 C    1.408   672 H    0.989
   636   6 C    3.848 --   635 C    1.473   637 C    1.374   673 H    0.992
   637   6 C    3.907 --   641 C    1.375   636 C    1.374   638 N    1.142
   638   7 N    3.010 --   637 C    1.142   640 C    0.966   639 C    0.965
   639   6 C    3.908 --   675 H    1.003   674 H    1.002   676 H    0.999
                           638 N    0.965
   640   6 C    3.908 --   677 H    1.003   679 H    1.002   678 H    0.999
                           638 N    0.966
   641   6 C    3.847 --   642 C    1.472   637 C    1.375   680 H    0.992
   642   6 C    3.869 --   641 C    1.472   634 C    1.409   681 H    0.989
   643   6 C    3.924 --   633 C    1.371   646 N    1.352   644 C    1.164
   644   6 C    3.840 --   645 C    1.690   643 C    1.164   682 H    0.999
   645   6 C    3.849 --   644 C    1.690   647 C    1.168   683 H    1.000
   646   7 N    2.551 --   647 C    1.416   643 C    1.352
   647   6 C    3.944 --   646 N    1.416   648 C    1.283   645 C    1.168
   648   6 C    3.830 --   647 C    1.283   649 C    1.279   192 C    1.227
   649   6 C    3.905 --   648 C    1.279   650 C    1.273   653 N    1.252
   650   6 C    3.829 --   651 C    1.576   649 C    1.273   684 H    0.999
   651   6 C    3.819 --   650 C    1.576   652 C    1.267   685 H    0.999
   652   6 C    3.886 --   654 C    1.334   651 C    1.267   653 N    1.222
   653   7 N    3.250 --   649 C    1.252   652 C    1.222   686 H    0.961
   654   6 C    3.834 --   664 C    1.369   652 C    1.334   655 C    1.059
   655   6 C    3.879 --   663 C    1.409   656 C    1.408   654 C    1.059
   656   6 C    3.866 --   657 C    1.473   655 C    1.408   687 H    0.989
   657   6 C    3.848 --   656 C    1.473   658 C    1.374   688 H    0.992
   658   6 C    3.906 --   662 C    1.375   657 C    1.374   659 N    1.142
   659   7 N    3.010 --   658 C    1.142   660 C    0.966   661 C    0.965
   660   6 C    3.908 --   690 H    1.003   691 H    1.002   689 H    0.999
                           659 N    0.966
   661   6 C    3.908 --   694 H    1.003   693 H    1.002   692 H    0.999
                           659 N    0.965
   662   6 C    3.846 --   663 C    1.473   658 C    1.375   695 H    0.992
   663   6 C    3.870 --   662 C    1.473   655 C    1.409   696 H    0.989
   664   6 C    3.923 --   654 C    1.369   668 N    1.353   665 C    1.164
   665   6 C    3.839 --   666 C    1.689   664 C    1.164   697 H    0.999
   666   6 C    3.849 --   665 C    1.689   667 C    1.169   698 H    1.000
   667   6 C    3.943 --   668 N    1.416   627 C    1.282   666 C    1.169
   668   7 N    2.552 --   667 C    1.416   664 C    1.353
   669   1 H    1.028 --   629 C    0.998
   670   1 H    1.035 --   630 C    0.998
   671   1 H    1.084 --   632 N    0.961
   672   1 H    1.050 --   635 C    0.989
   673   1 H    1.039 --   636 C    0.992
   674   1 H    1.035 --   639 C    1.002
   675   1 H    1.056 --   639 C    1.003
   676   1 H    1.027 --   639 C    0.999
   677   1 H    1.056 --   640 C    1.003
   678   1 H    1.026 --   640 C    0.999
   679   1 H    1.036 --   640 C    1.002
   680   1 H    1.039 --   641 C    0.992
   681   1 H    1.053 --   642 C    0.989
   682   1 H    1.040 --   644 C    0.999
   683   1 H    1.033 --   645 C    1.000
   684   1 H    1.028 --   650 C    0.999
   685   1 H    1.035 --   651 C    0.999
   686   1 H    1.084 --   653 N    0.961
   687   1 H    1.050 --   656 C    0.989
   688   1 H    1.039 --   657 C    0.992
   689   1 H    1.026 --   660 C    0.999
   690   1 H    1.055 --   660 C    1.003
   691   1 H    1.036 --   660 C    1.002
   692   1 H    1.027 --   661 C    0.999
   693   1 H    1.035 --   661 C    1.002
   694   1 H    1.056 --   661 C    1.003
   695   1 H    1.038 --   662 C    0.992
   696   1 H    1.053 --   663 C    0.989
   697   1 H    1.040 --   665 C    0.999
   698   1 H    1.033 --   666 C    1.000
 ---------------------------------------------------------------------------

Topologies differ in total number of bonds
Writing topology from bond orders to xtbtopo.mol

 dipole moment from electron density (au)
     X       Y       Z   
-380.0044  -1.7778   0.0375  total (Debye):  965.886


           -------------------------------------------------
          | TOTAL ENERGY            -1255.839223740066 Eh   |
          | GRADIENT NORM               0.130862010148 Eh/α |
          | HOMO-LUMO GAP               0.036634278354 eV   |
           -------------------------------------------------
########################################################################
[WARNING] Runtime exception occurred
-1- restart_readRestart: Dimension missmatch in restart file.
########################################################################

------------------------------------------------------------------------
 * finished run on 2022/07/28 at 22:43:02.224     
------------------------------------------------------------------------
 total:
 * wall-time:     0 d,  0 h,  5 min, 22.198 sec
 *  cpu-time:     0 d,  0 h,  5 min, 20.085 sec
 * ratio c/w:     0.993 speedup
 SCF:
 * wall-time:     0 d,  0 h,  5 min, 19.884 sec
 *  cpu-time:     0 d,  0 h,  5 min, 17.813 sec
 * ratio c/w:     0.994 speedup

