      -----------------------------------------------------------      
     |                   =====================                   |     
     |                           x T B                           |     
     |                   =====================                   |     
     |                         S. Grimme                         |     
     |          Mulliken Center for Theoretical Chemistry        |     
     |                    University of Bonn                     |     
      -----------------------------------------------------------      

   * xtb version 6.5.1 (b24c23e) compiled by 'conda@728c89f4b128' on 2022-07-12

   xtb is free software: you can redistribute it and/or modify it under
   the terms of the GNU Lesser General Public License as published by
   the Free Software Foundation, either version 3 of the License, or
   (at your option) any later version.
   
   xtb is distributed in the hope that it will be useful,
   but WITHOUT ANY WARRANTY; without even the implied warranty of
   MERCHANTABILITY or FITNESS FOR A PARTICULAR PURPOSE.  See the
   GNU Lesser General Public License for more details.
   
   Cite this work as:
   * C. Bannwarth, E. Caldeweyher, S. Ehlert, A. Hansen, P. Pracht,
     J. Seibert, S. Spicher, S. Grimme, WIREs Comput. Mol. Sci., 2020, 11,
     e01493. DOI: 10.1002/wcms.1493
   
   for GFN2-xTB:
   * C. Bannwarth, S. Ehlert and S. Grimme., J. Chem. Theory Comput., 2019,
     15, 1652-1671. DOI: 10.1021/acs.jctc.8b01176
   for GFN1-xTB:
   * S. Grimme, C. Bannwarth, P. Shushkov, J. Chem. Theory Comput., 2017,
     13, 1989-2009. DOI: 10.1021/acs.jctc.7b00118
   for GFN0-xTB:
   * P. Pracht, E. Caldeweyher, S. Ehlert, S. Grimme, ChemRxiv, 2019, preprint.
     DOI: 10.26434/chemrxiv.8326202.v1
   for GFN-FF:
   * S. Spicher and S. Grimme, Angew. Chem. Int. Ed., 2020, 59, 15665-15673.
     DOI: 10.1002/anie.202004239
   
   for ALPB and GBSA implicit solvation:
   * S. Ehlert, M. Stahn, S. Spicher, S. Grimme, J. Chem. Theory Comput.,
     2021, 17, 4250-4261. DOI: 10.1021/acs.jctc.1c00471
   
   for DFT-D4:
   * E. Caldeweyher, C. Bannwarth and S. Grimme, J. Chem. Phys., 2017,
     147, 034112. DOI: 10.1063/1.4993215
   * E. Caldeweyher, S. Ehlert, A. Hansen, H. Neugebauer, S. Spicher,
     C. Bannwarth and S. Grimme, J. Chem. Phys., 2019, 150, 154122.
     DOI: 10.1063/1.5090222
   * E. Caldeweyher, J.-M. Mewes, S. Ehlert and S. Grimme, Phys. Chem. Chem. Phys.
     2020, 22, 8499-8512. DOI: 10.1039/D0CP00502A
   
   for sTDA-xTB:
   * S. Grimme and C. Bannwarth, J. Chem. Phys., 2016, 145, 054103.
     DOI: 10.1063/1.4959605
   
   in the mass-spec context:
   * V. Asgeirsson, C. Bauer and S. Grimme, Chem. Sci., 2017, 8, 4879.
     DOI: 10.1039/c7sc00601b
   * J. Koopman and S. Grimme, ACS Omega 2019, 4, 12, 15120-15133.
     DOI: 10.1021/acsomega.9b02011
   
   for metadynamics refer to:
   * S. Grimme, J. Chem. Theory Comput., 2019, 155, 2847-2862
     DOI: 10.1021/acs.jctc.9b00143
   
   for SPH calculations refer to:
   * S. Spicher and S. Grimme, J. Chem. Theory Comput., 2021, 17, 1701-1714
     DOI: 10.1021/acs.jctc.0c01306
   
   with help from (in alphabetical order)
   P. Atkinson, C. Bannwarth, F. Bohle, G. Brandenburg, E. Caldeweyher
   M. Checinski, S. Dohm, S. Ehlert, S. Ehrlich, I. Gerasimov, C. Hölzer
   A. Katbashev, J. Koopman, C. Lavigne, S. Lehtola, F. März, M. Müller,
   F. Musil, H. Neugebauer, J. Pisarek, C. Plett, P. Pracht, F. Pultar,
   J. Seibert, P. Shushkov, S. Spicher, M. Stahn, M. Steiner, T. Strunk,
   J. Stückrath, T. Rose, and J. Unsleber
   
 * started run on 2022/07/30 at 10:27:21.050     

           -------------------------------------------------
          |                Calculation Setup                |
           -------------------------------------------------

          program call               : xtb xtbopt.xyz --gfn 1 --vipea
          hostname                   : cx3-15-15.cx3.hpc.ic.ac.uk
          coordinate file            : xtbopt.xyz
          omp threads                :                     1

   ID    Z sym.   atoms
    1   30 Zn     1, 63, 137, 198
    2    6 C      2-6, 8-12, 15-20, 22-27, 29-35, 38-42, 64-68, 70-74, 77-82,
                  84-89, 91-97, 100-104, 125-136, 138-142, 144-148, 151-156,
                  158-163, 165-171, 174-178, 199-203, 205-209, 212-217,
                  219-224, 226-232, 235-239
    3    7 N      7, 21, 28, 43, 69, 83, 90, 105, 143, 157, 164, 179, 204,
                  218, 225, 240
    4    8 O      13, 14, 36, 37, 75, 76, 98, 99, 149, 150, 172, 173, 210,
                  211, 233, 234
    5    1 H      44-62, 106-124, 180-197, 241-258

           -------------------------------------------------
          |                 I P E A - x T B                 |
           -------------------------------------------------

        Reference                      10.1039/c7sc00601b
      * Hamiltonian:
        H0-scaling (s, p, d)           2.150000    2.300000    2.000000
        zeta-weighting                 0.000000
      * Dispersion:
        s8                             2.400000
        a1                             0.630000
        a2                             5.000000
        s9                             0.000000
      * Repulsion:
        kExp                           1.500000
        rExp                           1.000000
      * Coulomb:
        alpha                          1.000000
        third order                    atomic
        anisotropic                    false
      * Halogen bond correction:
        rad-scale                      1.300000
        damping                        0.440000


          ...................................................
          :                      SETUP                      :
          :.................................................:
          :  # basis functions                1064          :
          :  # atomic orbitals                1064          :
          :  # shells                          696          :
          :  # electrons                       850          :
          :  # halogen bonds                     0          :
          :  max. iterations                   250          :
          :  Hamiltonian                  GFN1-xTB          :
          :  restarted?                      false          :
          :  GBSA solvation                  false          :
          :  PC potential                    false          :
          :  electronic temp.          300.0000000     K    :
          :  accuracy                    1.0000000          :
          :  -> integral cutoff          0.2500000E+02      :
          :  -> integral neglect         0.1000000E-07      :
          :  -> SCF convergence          0.1000000E-05 Eh   :
          :  -> wf. convergence          0.2000000E-04 e    :
          :  Broyden damping             0.4000000          :
          ...................................................

 iter      E             dE          RMSdq      gap      omega  full diag
   1   -543.9379524 -0.543938E+03  0.102E+01    1.24       0.0  T
   2   -544.6516400 -0.713688E+00  0.652E+00    1.38       1.0  T
   3   -540.8133139  0.383833E+01  0.465E+00    0.83       1.0  T
   4   -546.7213860 -0.590807E+01  0.151E+00    1.44       1.0  T
   5   -548.0609019 -0.133952E+01  0.331E-01    1.14       1.0  T
   6   -548.1198001 -0.588982E-01  0.108E-01    1.17       1.0  T
   7   -548.1236435 -0.384342E-02  0.547E-02    1.16       1.0  T
   8   -548.1249754 -0.133185E-02  0.243E-02    1.16       1.0  T
   9   -548.1249944 -0.190038E-04  0.170E-02    1.16       1.0  T
  10   -548.1250822 -0.878736E-04  0.855E-03    1.16       1.0  T
  11   -548.1251149 -0.326645E-04  0.328E-03    1.16       1.9  T
  12   -548.1251211 -0.624271E-05  0.983E-04    1.16       6.3  T
  13   -548.1251215 -0.394951E-06  0.456E-04    1.16      13.6  T
  14   -548.1251216 -0.851902E-07  0.203E-04    1.16      30.6  T
  15   -548.1251216 -0.201933E-07  0.676E-05    1.16      92.2  T
  16   -548.1251216 -0.239322E-08  0.215E-05    1.16     289.9  T

   *** convergence criteria satisfied after 16 iterations ***

         #    Occupation            Energy/Eh            Energy/eV
      -------------------------------------------------------------
         1        2.0000           -1.0649839             -28.9797
       ...           ...                  ...                  ...
       419        2.0000           -0.3998403             -10.8802
       420        2.0000           -0.3994445             -10.8694
       421        2.0000           -0.3976914             -10.8217
       422        2.0000           -0.3971033             -10.8057
       423        2.0000           -0.3924136             -10.6781
       424        2.0000           -0.3834165             -10.4333
       425        2.0000           -0.3762243             -10.2376 (HOMO)
       426                         -0.3334344              -9.0732 (LUMO)
       427                         -0.3241585              -8.8208
       428                         -0.3154159              -8.5829
       429                         -0.3149334              -8.5698
       430                         -0.3138209              -8.5395
       ...                                ...                  ...
      1064                        523.8667456           14255.1397
      -------------------------------------------------------------
                  HL-Gap            0.0427899 Eh            1.1644 eV
             Fermi-level           -0.3548290 Eh           -9.6554 eV

 SCC (total)                   0 d,  0 h,  0 min,  9.013 sec
 SCC setup                      ...        0 min,  0.008 sec (  0.088%)
 Dispersion                     ...        0 min,  0.011 sec (  0.127%)
 classical contributions        ...        0 min,  0.004 sec (  0.040%)
 integral evaluation            ...        0 min,  0.750 sec (  8.319%)
 iterations                     ...        0 min,  6.585 sec ( 73.058%)
 molecular gradient             ...        0 min,  1.570 sec ( 17.421%)
 printout                       ...        0 min,  0.085 sec (  0.947%)

         :::::::::::::::::::::::::::::::::::::::::::::::::::::
         ::                     SUMMARY                     ::
         :::::::::::::::::::::::::::::::::::::::::::::::::::::
         :: total energy            -538.178325834650 Eh    ::
         :: gradient norm              0.103172621265 Eh/a0 ::
         :: HOMO-LUMO gap              1.164371610120 eV    ::
         ::.................................................::
         :: SCC energy              -548.125121646040 Eh    ::
         :: -> electrostatic           0.604912917703 Eh    ::
         :: repulsion energy          10.180489684594 Eh    ::
         :: dispersion energy         -0.233693873205 Eh    ::
         :: halogen bond corr.         0.000000000000 Eh    ::
         :: add. restraining           0.000000000000 Eh    ::
         :: total charge               0.000000000000 e     ::
         :::::::::::::::::::::::::::::::::::::::::::::::::::::

           ------------------------------------------------- 
          |        vertical delta SCC IP calculation        |
           ------------------------------------------------- 
   1   -547.7175952 -0.547718E+03  0.827E-02    1.16       0.0  T
   2   -547.7193438 -0.174861E-02  0.764E-02    1.12       1.0  T
   3   -547.7232570 -0.391326E-02  0.455E-02    1.15       1.0  T
   4   -547.7218880  0.136898E-02  0.463E-02    1.14       1.0  T
   5   -547.7239454 -0.205740E-02  0.282E-02    1.14       1.0  T
   6   -547.7247280 -0.782573E-03  0.139E-02    1.14       1.0  T
   7   -547.7248880 -0.159956E-03  0.574E-03    1.14       1.1  T
   8   -547.7249081 -0.201013E-04  0.195E-03    1.14       3.2  T
   9   -547.7249098 -0.167445E-05  0.961E-04    1.14       6.5  T
  10   -547.7249099 -0.172734E-06  0.721E-04    1.14       8.6  T
  11   -547.7249102 -0.257280E-06  0.200E-04    1.14      31.2  T
  12   -547.7249102 -0.196571E-07  0.109E-04    1.14      57.3  T
     SCC iter.                  ...        0 min,  4.951 sec
     gradient                   ...        0 min,  1.577 sec
------------------------------------------------------------------------
empirical IP shift (eV):    4.8455
delta SCC IP (eV):    6.0448
------------------------------------------------------------------------
           ------------------------------------------------- 
          |        vertical delta SCC EA calculation        |
           ------------------------------------------------- 
   1   -548.4074691 -0.548407E+03  0.150E-01    0.30       0.0  T
   2   -548.4211749 -0.137058E-01  0.130E-01    0.12       1.0  T
   3   -548.4313588 -0.101839E-01  0.725E-02    0.20       1.0  T
   4   -548.4328717 -0.151281E-02  0.486E-02    0.16       1.0  T
   5   -548.4330885 -0.216869E-03  0.284E-02    0.17       1.0  T
   6   -548.4323093  0.779247E-03  0.277E-02    0.17       1.0  T
   7   -548.4329920 -0.682714E-03  0.163E-02    0.17       1.0  T
   8   -548.4334263 -0.434353E-03  0.498E-03    0.17       1.3  T
   9   -548.4334462 -0.198614E-04  0.276E-03    0.17       2.3  T
  10   -548.4334500 -0.375297E-05  0.878E-04    0.17       7.1  T
  11   -548.4334503 -0.386350E-06  0.362E-04    0.17      17.2  T
  12   -548.4334504 -0.404031E-07  0.171E-04    0.17      36.5  T
  13   -548.4334504 -0.936791E-08  0.774E-05    0.17      80.5  T
     SCC iter.                  ...        0 min,  5.354 sec
     gradient                   ...        0 min,  1.581 sec
------------------------------------------------------------------------
empirical EA shift (eV):    4.8455
delta SCC EA (eV):    3.5445
------------------------------------------------------------------------
           -------------------------------------------------
          |                Property Printout                |
           -------------------------------------------------

    * Orbital Energies and Occupations

         #    Occupation            Energy/Eh            Energy/eV
      -------------------------------------------------------------
         1        2.0000           -1.0328149             -28.1043
       ...           ...                  ...                  ...
       414        2.0000           -0.3785424             -10.3007
       415        2.0000           -0.3782661             -10.2931
       416        2.0000           -0.3743520             -10.1866
       417        2.0000           -0.3738879             -10.1740
       418        2.0000           -0.3552984              -9.6682
       419        2.0000           -0.3552840              -9.6678
       420        2.0000           -0.3531385              -9.6094
       421        2.0000           -0.3485596              -9.4848
       422        2.0000           -0.3485082              -9.4834
       423        2.0000           -0.3474376              -9.4543
       424        2.0000           -0.3368213              -9.1654
       425        2.0000           -0.3268437              -8.8939
       426        0.9623           -0.2839387              -7.7264 (HOMO)
       427        0.0375           -0.2777773              -7.5587 (LUMO)
       428        0.0001           -0.2722483              -7.4083
       429        0.0001           -0.2722041              -7.4071
       430        0.0000           -0.2678942              -7.2898
       431        0.0000           -0.2655786              -7.2268
       432                         -0.2654035              -7.2220
       433                         -0.2583781              -7.0308
       434                         -0.2404321              -6.5425
       435                         -0.2401122              -6.5338
       436                         -0.2389830              -6.5031
       437                         -0.2389292              -6.5016
       ...                                ...                  ...
      1064                        523.9159323           14256.4782
      -------------------------------------------------------------
                  HL-Gap            0.0061614 Eh            0.1677 eV
             Fermi-level           -0.2931264 Eh           -7.9764 eV

  Mulliken/CM5 charges         n(s)   n(p)   n(d)
     1Zn    0.36835  0.69370   0.762  0.870  0.000
     2C    -0.02421 -0.06534   1.089  2.936  0.000
     3C     0.05816  0.11987   1.119  2.823  0.000
     4C    -0.03669 -0.08276   1.090  2.947  0.000
     5C    -0.03423 -0.07990   1.084  2.950  0.000
     6C     0.05865  0.12414   1.111  2.830  0.000
     7N    -0.23671 -0.48078   1.350  3.887  0.000
     8C     0.00884  0.01426   1.092  2.899  0.000
     9C     0.01161  0.00307   1.089  2.900  0.000
    10C    -0.00823 -0.05741   1.082  2.926  0.000
    11C     0.00734  0.00382   1.088  2.905  0.000
    12C     0.23403  0.28896   1.195  2.571  0.000
    13O    -0.28048 -0.47706   1.681  4.600  0.000
    14O    -0.32881 -0.37866   1.629  4.700  0.000
    15C    -0.01662 -0.06829   1.087  2.930  0.000
    16C    -0.02270 -0.07833   1.087  2.936  0.000
    17C    -0.01384 -0.06721   1.086  2.928  0.000
    18C     0.05713  0.12177   1.109  2.834  0.000
    19C    -0.03572 -0.08137   1.082  2.954  0.000
    20C    -0.03552 -0.08067   1.088  2.948  0.000
    21N    -0.23424 -0.47728   1.351  3.883  0.000
    22C     0.06249  0.12902   1.124  2.814  0.000
    23C     0.01655  0.02345   1.087  2.897  0.000
    24C     0.06256  0.12910   1.124  2.814  0.000
    25C    -0.03534 -0.08050   1.088  2.947  0.000
    26C    -0.03557 -0.08124   1.082  2.953  0.000
    27C     0.05692  0.12152   1.109  2.834  0.000
    28N    -0.23437 -0.47726   1.351  3.884  0.000
    29C     0.00834  0.01372   1.092  2.899  0.000
    30C     0.01075  0.00215   1.088  2.901  0.000
    31C    -0.01335 -0.06674   1.085  2.928  0.000
    32C    -0.02146 -0.07706   1.087  2.934  0.000
    33C    -0.01440 -0.06603   1.090  2.924  0.000
    34C     0.00701  0.00350   1.088  2.905  0.000
    35C     0.23379  0.28871   1.195  2.571  0.000
    36O    -0.27884 -0.47558   1.680  4.598  0.000
    37O    -0.33119 -0.38091   1.628  4.703  0.000
    38C    -0.01068 -0.05988   1.079  2.931  0.000
    39C     0.05796  0.12344   1.111  2.831  0.000
    40C    -0.03516 -0.08083   1.084  2.951  0.000
    41C    -0.03729 -0.08335   1.090  2.948  0.000
    42C     0.05786  0.11957   1.119  2.823  0.000
    43N    -0.23693 -0.48100   1.350  3.887  0.000
    44H     0.02717  0.08602   0.973  0.000  0.000
    45H     0.03354  0.09005   0.966  0.000  0.000
    46H     0.02692  0.08576   0.973  0.000  0.000
    47H     0.03770  0.10021   0.962  0.000  0.000
    48H     0.24244  0.41825   0.758  0.000  0.000
    49H     0.04595  0.10718   0.954  0.000  0.000
    50H     0.03685  0.09278   0.963  0.000  0.000
    51H     0.02841  0.08625   0.972  0.000  0.000
    52H     0.02580  0.08457   0.974  0.000  0.000
    53H     0.02976  0.08773   0.970  0.000  0.000
    54H     0.03026  0.08821   0.970  0.000  0.000
    55H     0.02637  0.08515   0.974  0.000  0.000
    56H     0.02933  0.08720   0.971  0.000  0.000
    57H     0.03817  0.09410   0.962  0.000  0.000
    58H     0.04502  0.10548   0.955  0.000  0.000
    59H     0.24145  0.41730   0.759  0.000  0.000
    60H     0.03814  0.10149   0.962  0.000  0.000
    61H     0.02717  0.08601   0.973  0.000  0.000
    62H     0.03350  0.09000   0.967  0.000  0.000
    63Zn    0.36820  0.69348   0.762  0.870  0.000
    64C    -0.02439 -0.06553   1.088  2.936  0.000
    65C     0.05811  0.11981   1.119  2.823  0.000
    66C    -0.03680 -0.08286   1.090  2.947  0.000
    67C    -0.03432 -0.07998   1.084  2.950  0.000
    68C     0.05851  0.12401   1.111  2.830  0.000
    69N    -0.23672 -0.48090   1.350  3.887  0.000
    70C     0.00875  0.01416   1.092  2.899  0.000
    71C     0.01164  0.00310   1.089  2.900  0.000
    72C    -0.00826 -0.05741   1.082  2.926  0.000
    73C     0.00726  0.00375   1.088  2.905  0.000
    74C     0.23397  0.28890   1.195  2.571  0.000
    75O    -0.28057 -0.47713   1.681  4.600  0.000
    76O    -0.32890 -0.37876   1.629  4.700  0.000
    77C    -0.01669 -0.06836   1.087  2.930  0.000
    78C    -0.02271 -0.07834   1.087  2.936  0.000
    79C    -0.01377 -0.06718   1.085  2.928  0.000
    80C     0.05698  0.12161   1.109  2.834  0.000
    81C    -0.03591 -0.08157   1.082  2.954  0.000
    82C    -0.03571 -0.08086   1.088  2.948  0.000
    83N    -0.23440 -0.47731   1.351  3.884  0.000
    84C     0.06240  0.12895   1.124  2.814  0.000
    85C     0.01624  0.02314   1.087  2.897  0.000
    86C     0.06235  0.12888   1.124  2.814  0.000
    87C    -0.03566 -0.08081   1.088  2.948  0.000
    88C    -0.03580 -0.08146   1.082  2.953  0.000
    89C     0.05677  0.12139   1.109  2.834  0.000
    90N    -0.23442 -0.47735   1.351  3.884  0.000
    91C     0.00827  0.01365   1.092  2.899  0.000
    92C     0.01074  0.00214   1.088  2.901  0.000
    93C    -0.01354 -0.06691   1.086  2.928  0.000
    94C    -0.02158 -0.07717   1.087  2.934  0.000
    95C    -0.01438 -0.06601   1.090  2.924  0.000
    96C     0.00708  0.00356   1.088  2.905  0.000
    97C     0.23384  0.28876   1.195  2.571  0.000
    98O    -0.27879 -0.47552   1.680  4.598  0.000
    99O    -0.33103 -0.38077   1.628  4.703  0.000
   100C    -0.01062 -0.05984   1.079  2.932  0.000
   101C     0.05785  0.12332   1.111  2.831  0.000
   102C    -0.03521 -0.08088   1.084  2.951  0.000
   103C    -0.03736 -0.08341   1.090  2.948  0.000
   104C     0.05784  0.11957   1.119  2.823  0.000
   105N    -0.23708 -0.48105   1.350  3.887  0.000
   106H     0.02704  0.08590   0.973  0.000  0.000
   107H     0.03341  0.08992   0.967  0.000  0.000
   108H     0.02673  0.08555   0.973  0.000  0.000
   109H     0.03762  0.10016   0.962  0.000  0.000
   110H     0.24233  0.41815   0.758  0.000  0.000
   111H     0.04584  0.10705   0.954  0.000  0.000
   112H     0.03681  0.09274   0.963  0.000  0.000
   113H     0.02844  0.08627   0.972  0.000  0.000
   114H     0.02551  0.08431   0.974  0.000  0.000
   115H     0.02954  0.08752   0.970  0.000  0.000
   116H     0.02978  0.08773   0.970  0.000  0.000
   117H     0.02617  0.08495   0.974  0.000  0.000
   118H     0.02896  0.08683   0.971  0.000  0.000
   119H     0.03794  0.09386   0.962  0.000  0.000
   120H     0.04512  0.10559   0.955  0.000  0.000
   121H     0.24154  0.41738   0.758  0.000  0.000
   122H     0.03822  0.10156   0.962  0.000  0.000
   123H     0.02716  0.08601   0.973  0.000  0.000
   124H     0.03345  0.08995   0.967  0.000  0.000
   125C    -0.02110 -0.02191   1.062  2.959  0.000
   126C    -0.02331 -0.02488   1.089  2.934  0.000
   127C    -0.02476 -0.02558   1.059  2.966  0.000
   128C    -0.01928 -0.02085   1.094  2.925  0.000
   129C    -0.02335 -0.02417   1.061  2.963  0.000
   130C    -0.02169 -0.02326   1.091  2.930  0.000
   131C    -0.02337 -0.02419   1.061  2.963  0.000
   132C    -0.02152 -0.02308   1.091  2.930  0.000
   133C    -0.02523 -0.02604   1.059  2.966  0.000
   134C    -0.01980 -0.02137   1.094  2.926  0.000
   135C    -0.02160 -0.02242   1.062  2.959  0.000
   136C    -0.02359 -0.02516   1.089  2.935  0.000
   137Zn    0.36873  0.69230   0.764  0.868  0.000
   138C     0.01208  0.01899   1.083  2.905  0.000
   139C     0.06247  0.12900   1.124  2.814  0.000
   140C    -0.03716 -0.08232   1.087  2.951  0.000
   141C    -0.03500 -0.08066   1.083  2.952  0.000
   142C     0.05558  0.12018   1.107  2.838  0.000
   143N    -0.23499 -0.47803   1.350  3.885  0.000
   144C     0.01092  0.01625   1.094  2.896  0.000
   145C     0.01225  0.00368   1.089  2.899  0.000
   146C    -0.00753 -0.05670   1.082  2.926  0.000
   147C     0.00745  0.00394   1.088  2.905  0.000
   148C     0.23415  0.28910   1.195  2.571  0.000
   149O    -0.28085 -0.47743   1.681  4.600  0.000
   150O    -0.32836 -0.37822   1.629  4.700  0.000
   151C    -0.01676 -0.06843   1.087  2.930  0.000
   152C    -0.02289 -0.07853   1.087  2.936  0.000
   153C    -0.01368 -0.06708   1.086  2.928  0.000
   154C     0.05534  0.11992   1.107  2.838  0.000
   155C    -0.03598 -0.08164   1.083  2.953  0.000
   156C    -0.03701 -0.08217   1.087  2.950  0.000
   157N    -0.23480 -0.47771   1.350  3.884  0.000
   158C     0.06232  0.12891   1.124  2.814  0.000
   159C     0.01360  0.02052   1.084  2.902  0.000
   160C     0.06231  0.12893   1.124  2.814  0.000
   161C    -0.03700 -0.08215   1.087  2.950  0.000
   162C    -0.03599 -0.08162   1.082  2.954  0.000
   163C     0.05494  0.11951   1.107  2.838  0.000
   164N    -0.23488 -0.47767   1.350  3.885  0.000
   165C     0.01029  0.01559   1.094  2.896  0.000
   166C     0.01141  0.00276   1.089  2.900  0.000
   167C    -0.01395 -0.06731   1.085  2.929  0.000
   168C    -0.02227 -0.07786   1.087  2.935  0.000
   169C    -0.01474 -0.06636   1.090  2.925  0.000
   170C     0.00740  0.00389   1.088  2.904  0.000
   171C     0.23413  0.28909   1.195  2.571  0.000
   172O    -0.27749 -0.47422   1.680  4.598  0.000
   173O    -0.33156 -0.38128   1.628  4.704  0.000
   174C    -0.00966 -0.05883   1.079  2.931  0.000
   175C     0.05482  0.11943   1.107  2.839  0.000
   176C    -0.03631 -0.08194   1.083  2.953  0.000
   177C    -0.03794 -0.08309   1.087  2.951  0.000
   178C     0.06223  0.12879   1.124  2.814  0.000
   179N    -0.23534 -0.47827   1.350  3.885  0.000
   180H     0.02751  0.08546   0.972  0.000  0.000
   181H     0.02577  0.08466   0.974  0.000  0.000
   182H     0.03798  0.10048   0.962  0.000  0.000
   183H     0.24188  0.41769   0.758  0.000  0.000
   184H     0.04511  0.10633   0.955  0.000  0.000
   185H     0.03589  0.09182   0.964  0.000  0.000
   186H     0.02782  0.08565   0.972  0.000  0.000
   187H     0.02445  0.08326   0.976  0.000  0.000
   188H     0.02817  0.08614   0.972  0.000  0.000
   189H     0.02839  0.08636   0.972  0.000  0.000
   190H     0.02618  0.08503   0.974  0.000  0.000
   191H     0.02745  0.08524   0.973  0.000  0.000
   192H     0.03602  0.09194   0.964  0.000  0.000
   193H     0.04408  0.10456   0.956  0.000  0.000
   194H     0.24226  0.41805   0.758  0.000  0.000
   195H     0.03946  0.10276   0.961  0.000  0.000
   196H     0.02423  0.08300   0.976  0.000  0.000
   197H     0.02686  0.08485   0.973  0.000  0.000
   198Zn    0.36873  0.69236   0.764  0.867  0.000
   199C     0.01360  0.02051   1.084  2.902  0.000
   200C     0.06263  0.12922   1.124  2.813  0.000
   201C    -0.03645 -0.08162   1.087  2.950  0.000
   202C    -0.03507 -0.08074   1.082  2.953  0.000
   203C     0.05558  0.12014   1.107  2.838  0.000
   204N    -0.23468 -0.47765   1.350  3.884  0.000
   205C     0.01073  0.01607   1.093  2.896  0.000
   206C     0.01222  0.00365   1.089  2.899  0.000
   207C    -0.00749 -0.05668   1.082  2.925  0.000
   208C     0.00739  0.00387   1.088  2.905  0.000
   209C     0.23414  0.28907   1.195  2.571  0.000
   210O    -0.28106 -0.47763   1.681  4.600  0.000
   211O    -0.32785 -0.37772   1.629  4.699  0.000
   212C    -0.01700 -0.06866   1.087  2.930  0.000
   213C    -0.02320 -0.07883   1.086  2.937  0.000
   214C    -0.01382 -0.06720   1.086  2.928  0.000
   215C     0.05493  0.11955   1.106  2.839  0.000
   216C    -0.03643 -0.08209   1.083  2.954  0.000
   217C    -0.03818 -0.08333   1.086  2.952  0.000
   218N    -0.23531 -0.47825   1.350  3.885  0.000
   219C     0.06203  0.12859   1.124  2.814  0.000
   220C     0.01171  0.01862   1.083  2.906  0.000
   221C     0.06205  0.12862   1.124  2.814  0.000
   222C    -0.03787 -0.08303   1.087  2.951  0.000
   223C    -0.03602 -0.08168   1.082  2.954  0.000
   224C     0.05478  0.11937   1.107  2.839  0.000
   225N    -0.23541 -0.47820   1.350  3.885  0.000
   226C     0.01032  0.01562   1.094  2.896  0.000
   227C     0.01133  0.00270   1.088  2.900  0.000
   228C    -0.01363 -0.06700   1.086  2.928  0.000
   229C    -0.02195 -0.07755   1.087  2.935  0.000
   230C    -0.01455 -0.06617   1.090  2.924  0.000
   231C     0.00727  0.00376   1.088  2.905  0.000
   232C     0.23402  0.28898   1.195  2.571  0.000
   233O    -0.27798 -0.47472   1.680  4.598  0.000
   234O    -0.33155 -0.38128   1.628  4.703  0.000
   235C    -0.00980 -0.05901   1.079  2.931  0.000
   236C     0.05496  0.11952   1.107  2.838  0.000
   237C    -0.03611 -0.08177   1.083  2.953  0.000
   238C    -0.03716 -0.08231   1.087  2.950  0.000
   239C     0.06231  0.12889   1.124  2.814  0.000
   240N    -0.23491 -0.47794   1.350  3.885  0.000
   241H     0.02847  0.08644   0.972  0.000  0.000
   242H     0.02592  0.08483   0.974  0.000  0.000
   243H     0.03819  0.10070   0.962  0.000  0.000
   244H     0.24200  0.41781   0.758  0.000  0.000
   245H     0.04482  0.10604   0.955  0.000  0.000
   246H     0.03546  0.09139   0.965  0.000  0.000
   247H     0.02757  0.08544   0.972  0.000  0.000
   248H     0.02346  0.08226   0.977  0.000  0.000
   249H     0.02651  0.08450   0.973  0.000  0.000
   250H     0.02741  0.08536   0.973  0.000  0.000
   251H     0.02595  0.08485   0.974  0.000  0.000
   252H     0.02789  0.08573   0.972  0.000  0.000
   253H     0.03668  0.09260   0.963  0.000  0.000
   254H     0.04432  0.10478   0.956  0.000  0.000
   255H     0.24166  0.41747   0.758  0.000  0.000
   256H     0.03894  0.10228   0.961  0.000  0.000
   257H     0.02477  0.08355   0.975  0.000  0.000
   258H     0.02806  0.08602   0.972  0.000  0.000

Wiberg/Mayer (AO) data.
largest (>0.10) Wiberg bond orders for each atom

 ---------------------------------------------------------------------------
     #   Z sym  total        # sym  WBO       # sym  WBO       # sym  WBO
 ---------------------------------------------------------------------------
     1  30 Zn   2.421 --     7 N    0.567    43 N    0.566    21 N    0.560
                            28 N    0.559
     2   6 C    3.807 --     3 C    1.389    42 C    1.388    44 H    0.998
     3   6 C    3.947 --     2 C    1.389     7 N    1.283     4 C    1.197
     4   6 C    3.851 --     5 C    1.648     3 C    1.197    45 H    0.993
     5   6 C    3.834 --     4 C    1.648     6 C    1.204    46 H    0.998
     6   6 C    3.917 --     8 C    1.367     7 N    1.280     5 C    1.204
     7   7 N    3.005 --     3 C    1.283     6 C    1.280     1 Zn   0.567
     8   6 C    3.833 --     6 C    1.367    18 C    1.364     9 C    1.048
     9   6 C    3.899 --    10 C    1.440    17 C    1.419     8 C    1.048
    10   6 C    3.850 --     9 C    1.440    11 C    1.407    47 H    0.995
    11   6 C    3.908 --    10 C    1.407    15 C    1.401    12 C    1.036
    12   6 C    4.097 --    14 O    1.820    13 O    1.210    11 C    1.036
    13   8 O    2.366 --    12 C    1.210    48 H    0.943    14 O    0.184
    14   8 O    2.033 --    12 C    1.820    13 O    0.184
    15   6 C    3.887 --    16 C    1.454    11 C    1.401    49 H    0.987
    16   6 C    3.908 --    15 C    1.454    17 C    1.445    50 H    0.981
    17   6 C    3.869 --    16 C    1.445     9 C    1.419    51 H    0.989
    18   6 C    3.905 --     8 C    1.364    21 N    1.271    19 C    1.215
    19   6 C    3.826 --    20 C    1.626    18 C    1.215    52 H    0.998
    20   6 C    3.840 --    19 C    1.626    22 C    1.225    53 H    0.999
    21   7 N    3.014 --    22 C    1.310    18 C    1.271     1 Zn   0.560
    22   6 C    3.920 --    21 N    1.310    23 C    1.294    20 C    1.225
    23   6 C    3.829 --    22 C    1.294    24 C    1.294   126 C    1.226
    24   6 C    3.920 --    28 N    1.310    23 C    1.294    25 C    1.225
    25   6 C    3.841 --    26 C    1.627    24 C    1.225    54 H    0.999
    26   6 C    3.826 --    25 C    1.627    27 C    1.215    55 H    0.998
    27   6 C    3.906 --    29 C    1.364    28 N    1.270    26 C    1.215
    28   7 N    3.014 --    24 C    1.310    27 C    1.270     1 Zn   0.559
    29   6 C    3.833 --    39 C    1.366    27 C    1.364    30 C    1.049
    30   6 C    3.898 --    38 C    1.438    31 C    1.420    29 C    1.049
    31   6 C    3.868 --    32 C    1.444    30 C    1.420    56 H    0.989
    32   6 C    3.907 --    33 C    1.456    31 C    1.444    57 H    0.981
    33   6 C    3.891 --    32 C    1.456    34 C    1.401    58 H    0.987
    34   6 C    3.908 --    38 C    1.407    33 C    1.401    35 C    1.037
    35   6 C    4.097 --    37 O    1.818    36 O    1.212    34 C    1.037
    36   8 O    2.368 --    35 C    1.212    59 H    0.943    37 O    0.183
    37   8 O    2.030 --    35 C    1.818    36 O    0.183
    38   6 C    3.847 --    30 C    1.438    34 C    1.407    60 H    0.996
    39   6 C    3.916 --    29 C    1.366    43 N    1.281    40 C    1.205
    40   6 C    3.833 --    41 C    1.647    39 C    1.205    61 H    0.999
    41   6 C    3.850 --    40 C    1.647    42 C    1.198    62 H    0.993
    42   6 C    3.947 --     2 C    1.388    43 N    1.284    41 C    1.198
    43   7 N    3.005 --    42 C    1.284    39 C    1.281     1 Zn   0.566
    44   1 H    1.031 --     2 C    0.998
    45   1 H    1.020 --     4 C    0.993
    46   1 H    1.032 --     5 C    0.998
    47   1 H    1.049 --    10 C    0.995
    48   1 H    0.979 --    13 O    0.943
    49   1 H    1.016 --    15 C    0.987
    50   1 H    1.029 --    16 C    0.981
    51   1 H    1.052 --    17 C    0.989
    52   1 H    1.033 --    19 C    0.998
    53   1 H    1.029 --    20 C    0.999
    54   1 H    1.029 --    25 C    0.999
    55   1 H    1.033 --    26 C    0.998
    56   1 H    1.052 --    31 C    0.989
    57   1 H    1.029 --    32 C    0.981
    58   1 H    1.025 --    33 C    0.987
    59   1 H    0.981 --    36 O    0.943
    60   1 H    1.040 --    38 C    0.996
    61   1 H    1.030 --    40 C    0.999
    62   1 H    1.020 --    41 C    0.993
    63  30 Zn   2.421 --    69 N    0.567   105 N    0.566    90 N    0.559
                            83 N    0.559
    64   6 C    3.807 --    65 C    1.389   104 C    1.388   106 H    0.998
    65   6 C    3.947 --    64 C    1.389    69 N    1.283    66 C    1.197
    66   6 C    3.850 --    67 C    1.647    65 C    1.197   107 H    0.993
    67   6 C    3.834 --    66 C    1.647    68 C    1.204   108 H    0.998
    68   6 C    3.917 --    70 C    1.367    69 N    1.280    67 C    1.204
    69   7 N    3.005 --    65 C    1.283    68 C    1.280    63 Zn   0.567
    70   6 C    3.833 --    68 C    1.367    80 C    1.364    71 C    1.049
    71   6 C    3.899 --    72 C    1.440    79 C    1.419    70 C    1.049
    72   6 C    3.850 --    71 C    1.440    73 C    1.408   109 H    0.995
    73   6 C    3.908 --    72 C    1.408    77 C    1.401    74 C    1.036
    74   6 C    4.097 --    76 O    1.820    75 O    1.210    73 C    1.036
    75   8 O    2.366 --    74 C    1.210   110 H    0.944    76 O    0.184
    76   8 O    2.033 --    74 C    1.820    75 O    0.184
    77   6 C    3.887 --    78 C    1.454    73 C    1.401   111 H    0.987
    78   6 C    3.908 --    77 C    1.454    79 C    1.445   112 H    0.982
    79   6 C    3.868 --    78 C    1.445    71 C    1.419   113 H    0.989
    80   6 C    3.905 --    70 C    1.364    83 N    1.270    81 C    1.216
    81   6 C    3.826 --    82 C    1.626    80 C    1.216   114 H    0.998
    82   6 C    3.840 --    81 C    1.626    84 C    1.225   115 H    0.999
    83   7 N    3.014 --    84 C    1.311    80 C    1.270    63 Zn   0.559
    84   6 C    3.920 --    83 N    1.311    85 C    1.293    82 C    1.225
    85   6 C    3.828 --    86 C    1.294    84 C    1.293   136 C    1.227
    86   6 C    3.920 --    90 N    1.310    85 C    1.294    87 C    1.225
    87   6 C    3.840 --    88 C    1.626    86 C    1.225   116 H    0.999
    88   6 C    3.826 --    87 C    1.626    89 C    1.215   117 H    0.998
    89   6 C    3.905 --    91 C    1.364    90 N    1.270    88 C    1.215
    90   7 N    3.014 --    86 C    1.310    89 C    1.270    63 Zn   0.559
    91   6 C    3.833 --   101 C    1.367    89 C    1.364    92 C    1.048
    92   6 C    3.898 --   100 C    1.438    93 C    1.420    91 C    1.048
    93   6 C    3.869 --    94 C    1.444    92 C    1.420   118 H    0.989
    94   6 C    3.907 --    95 C    1.456    93 C    1.444   119 H    0.981
    95   6 C    3.891 --    94 C    1.456    96 C    1.401   120 H    0.987
    96   6 C    3.908 --   100 C    1.407    95 C    1.401    97 C    1.036
    97   6 C    4.097 --    99 O    1.818    98 O    1.212    96 C    1.036
    98   8 O    2.368 --    97 C    1.212   121 H    0.943    99 O    0.183
    99   8 O    2.030 --    97 C    1.818    98 O    0.183
   100   6 C    3.847 --    92 C    1.438    96 C    1.407   122 H    0.996
   101   6 C    3.916 --    91 C    1.367   105 N    1.280   102 C    1.205
   102   6 C    3.833 --   103 C    1.647   101 C    1.205   123 H    0.999
   103   6 C    3.850 --   102 C    1.647   104 C    1.198   124 H    0.993
   104   6 C    3.946 --    64 C    1.388   105 N    1.284   103 C    1.198
   105   7 N    3.004 --   104 C    1.284   101 C    1.280    63 Zn   0.566
   106   1 H    1.031 --    64 C    0.998
   107   1 H    1.020 --    66 C    0.993
   108   1 H    1.032 --    67 C    0.998
   109   1 H    1.049 --    72 C    0.995
   110   1 H    0.980 --    75 O    0.944
   111   1 H    1.016 --    77 C    0.987
   112   1 H    1.029 --    78 C    0.982
   113   1 H    1.052 --    79 C    0.989
   114   1 H    1.033 --    81 C    0.998
   115   1 H    1.029 --    82 C    0.999
   116   1 H    1.030 --    87 C    0.999
   117   1 H    1.033 --    88 C    0.998
   118   1 H    1.052 --    93 C    0.989
   119   1 H    1.029 --    94 C    0.981
   120   1 H    1.025 --    95 C    0.987
   121   1 H    0.980 --    98 O    0.943
   122   1 H    1.040 --   100 C    0.996
   123   1 H    1.030 --   102 C    0.999
   124   1 H    1.020 --   103 C    0.993
   125   6 C    3.805 --   126 C    2.495   127 C    1.333
   126   6 C    3.801 --   125 C    2.495    23 C    1.226   128 C    0.179
   127   6 C    3.802 --   128 C    2.493   125 C    1.333
   128   6 C    3.803 --   127 C    2.493   138 C    1.228   126 C    0.179
   129   6 C    3.802 --   130 C    2.488   131 C    1.337
   130   6 C    3.801 --   129 C    2.488   159 C    1.232   132 C    0.178
   131   6 C    3.802 --   132 C    2.488   129 C    1.337
   132   6 C    3.801 --   131 C    2.488   199 C    1.232   130 C    0.178
   133   6 C    3.802 --   134 C    2.492   135 C    1.333
   134   6 C    3.803 --   133 C    2.492   220 C    1.229   136 C    0.179
   135   6 C    3.805 --   136 C    2.494   133 C    1.333
   136   6 C    3.801 --   135 C    2.494    85 C    1.227   134 C    0.179
   137  30 Zn   2.412 --   143 N    0.562   157 N    0.561   179 N    0.561
                           164 N    0.561
   138   6 C    3.815 --   139 C    1.291   178 C    1.290   128 C    1.228
   139   6 C    3.923 --   143 N    1.313   138 C    1.291   140 C    1.226
   140   6 C    3.837 --   141 C    1.626   139 C    1.226   180 H    0.999
   141   6 C    3.828 --   140 C    1.626   142 C    1.217   181 H    0.998
   142   6 C    3.902 --   144 C    1.368   143 N    1.265   141 C    1.217
   143   7 N    3.005 --   139 C    1.313   142 C    1.265   137 Zn   0.562
   144   6 C    3.831 --   142 C    1.368   154 C    1.365   145 C    1.048
   145   6 C    3.899 --   146 C    1.440   153 C    1.420   144 C    1.048
   146   6 C    3.850 --   145 C    1.440   147 C    1.408   182 H    0.995
   147   6 C    3.908 --   146 C    1.408   151 C    1.401   148 C    1.035
   148   6 C    4.097 --   150 O    1.821   149 O    1.210   147 C    1.035
   149   8 O    2.366 --   148 C    1.210   183 H    0.944   150 O    0.184
   150   8 O    2.034 --   148 C    1.821   149 O    0.184
   151   6 C    3.887 --   152 C    1.454   147 C    1.401   184 H    0.987
   152   6 C    3.908 --   151 C    1.454   153 C    1.445   185 H    0.982
   153   6 C    3.869 --   152 C    1.445   145 C    1.420   186 H    0.990
   154   6 C    3.903 --   144 C    1.365   157 N    1.266   155 C    1.218
   155   6 C    3.829 --   156 C    1.623   154 C    1.218   187 H    0.999
   156   6 C    3.837 --   155 C    1.623   158 C    1.227   188 H    0.999
   157   7 N    3.006 --   158 C    1.313   154 C    1.266   137 Zn   0.561
   158   6 C    3.921 --   157 N    1.313   159 C    1.289   156 C    1.227
   159   6 C    3.815 --   158 C    1.289   160 C    1.288   130 C    1.232
   160   6 C    3.922 --   164 N    1.314   159 C    1.288   161 C    1.227
   161   6 C    3.837 --   162 C    1.624   160 C    1.227   189 H    0.999
   162   6 C    3.827 --   161 C    1.624   163 C    1.218   190 H    0.999
   163   6 C    3.902 --   165 C    1.366   164 N    1.266   162 C    1.218
   164   7 N    3.005 --   160 C    1.314   163 C    1.266   137 Zn   0.561
   165   6 C    3.830 --   175 C    1.368   163 C    1.366   166 C    1.046
   166   6 C    3.899 --   174 C    1.439   167 C    1.422   165 C    1.046
   167   6 C    3.869 --   168 C    1.443   166 C    1.422   191 H    0.990
   168   6 C    3.907 --   169 C    1.457   167 C    1.443   192 H    0.982
   169   6 C    3.891 --   168 C    1.457   170 C    1.402   193 H    0.987
   170   6 C    3.909 --   174 C    1.408   169 C    1.402   171 C    1.036
   171   6 C    4.097 --   173 O    1.817   172 O    1.213   170 C    1.036
   172   8 O    2.369 --   171 C    1.213   194 H    0.943   173 O    0.183
   173   8 O    2.029 --   171 C    1.817   172 O    0.183
   174   6 C    3.847 --   166 C    1.439   170 C    1.408   195 H    0.996
   175   6 C    3.904 --   165 C    1.368   179 N    1.265   176 C    1.217
   176   6 C    3.830 --   177 C    1.624   175 C    1.217   196 H    0.999
   177   6 C    3.836 --   176 C    1.624   178 C    1.226   197 H    1.000
   178   6 C    3.922 --   179 N    1.313   138 C    1.290   177 C    1.226
   179   7 N    3.004 --   178 C    1.313   175 C    1.265   137 Zn   0.561
   180   1 H    1.030 --   140 C    0.999
   181   1 H    1.034 --   141 C    0.998
   182   1 H    1.050 --   146 C    0.995
   183   1 H    0.980 --   149 O    0.944
   184   1 H    1.016 --   151 C    0.987
   185   1 H    1.029 --   152 C    0.982
   186   1 H    1.053 --   153 C    0.990
   187   1 H    1.035 --   155 C    0.999
   188   1 H    1.030 --   156 C    0.999
   189   1 H    1.030 --   161 C    0.999
   190   1 H    1.032 --   162 C    0.999
   191   1 H    1.052 --   167 C    0.990
   192   1 H    1.030 --   168 C    0.982
   193   1 H    1.026 --   169 C    0.987
   194   1 H    0.980 --   172 O    0.943
   195   1 H    1.040 --   174 C    0.996
   196   1 H    1.035 --   176 C    0.999
   197   1 H    1.030 --   177 C    1.000
   198  30 Zn   2.412 --   204 N    0.562   240 N    0.562   218 N    0.561
                           225 N    0.561
   199   6 C    3.814 --   200 C    1.288   239 C    1.288   132 C    1.232
   200   6 C    3.922 --   204 N    1.313   199 C    1.288   201 C    1.227
   201   6 C    3.837 --   202 C    1.624   200 C    1.227   241 H    0.999
   202   6 C    3.827 --   201 C    1.624   203 C    1.218   242 H    0.998
   203   6 C    3.902 --   205 C    1.366   204 N    1.265   202 C    1.218
   204   7 N    3.006 --   200 C    1.313   203 C    1.265   198 Zn   0.562
   205   6 C    3.831 --   203 C    1.366   215 C    1.366   206 C    1.049
   206   6 C    3.899 --   207 C    1.440   214 C    1.419   205 C    1.049
   207   6 C    3.850 --   206 C    1.440   208 C    1.408   243 H    0.995
   208   6 C    3.908 --   207 C    1.408   212 C    1.401   209 C    1.035
   209   6 C    4.097 --   211 O    1.821   210 O    1.209   208 C    1.035
   210   8 O    2.365 --   209 C    1.209   244 H    0.944   211 O    0.184
   211   8 O    2.034 --   209 C    1.821   210 O    0.184
   212   6 C    3.887 --   213 C    1.454   208 C    1.401   245 H    0.987
   213   6 C    3.908 --   212 C    1.454   214 C    1.445   246 H    0.982
   214   6 C    3.868 --   213 C    1.445   206 C    1.419   247 H    0.990
   215   6 C    3.903 --   205 C    1.366   218 N    1.266   216 C    1.218
   216   6 C    3.828 --   217 C    1.623   215 C    1.218   248 H    0.999
   217   6 C    3.836 --   216 C    1.623   219 C    1.227   249 H    1.000
   218   7 N    3.003 --   219 C    1.313   215 C    1.266   198 Zn   0.561
   219   6 C    3.922 --   218 N    1.313   220 C    1.289   217 C    1.227
   220   6 C    3.814 --   221 C    1.290   219 C    1.289   134 C    1.229
   221   6 C    3.923 --   225 N    1.313   220 C    1.290   222 C    1.226
   222   6 C    3.837 --   223 C    1.625   221 C    1.226   250 H    0.999
   223   6 C    3.827 --   222 C    1.625   224 C    1.218   251 H    0.999
   224   6 C    3.902 --   226 C    1.368   225 N    1.265   223 C    1.218
   225   7 N    3.004 --   221 C    1.313   224 C    1.265   198 Zn   0.561
   226   6 C    3.830 --   224 C    1.368   236 C    1.365   227 C    1.048
   227   6 C    3.898 --   235 C    1.438   228 C    1.421   226 C    1.048
   228   6 C    3.869 --   229 C    1.443   227 C    1.421   252 H    0.990
   229   6 C    3.907 --   230 C    1.456   228 C    1.443   253 H    0.982
   230   6 C    3.891 --   229 C    1.456   231 C    1.402   254 H    0.987
   231   6 C    3.908 --   235 C    1.408   230 C    1.402   232 C    1.036
   232   6 C    4.097 --   234 O    1.817   233 O    1.213   231 C    1.036
   233   8 O    2.369 --   232 C    1.213   255 H    0.943   234 O    0.183
   234   8 O    2.029 --   232 C    1.817   233 O    0.183
   235   6 C    3.847 --   227 C    1.438   231 C    1.408   256 H    0.996
   236   6 C    3.903 --   226 C    1.365   240 N    1.266   237 C    1.218
   237   6 C    3.830 --   238 C    1.623   236 C    1.218   257 H    0.999
   238   6 C    3.837 --   237 C    1.623   239 C    1.228   258 H    0.999
   239   6 C    3.921 --   240 N    1.313   199 C    1.288   238 C    1.228
   240   7 N    3.006 --   239 C    1.313   236 C    1.266   198 Zn   0.562
   241   1 H    1.030 --   201 C    0.999
   242   1 H    1.032 --   202 C    0.998
   243   1 H    1.050 --   207 C    0.995
   244   1 H    0.980 --   210 O    0.944
   245   1 H    1.017 --   212 C    0.987
   246   1 H    1.030 --   213 C    0.982
   247   1 H    1.053 --   214 C    0.990
   248   1 H    1.036 --   216 C    0.999
   249   1 H    1.030 --   217 C    1.000
   250   1 H    1.030 --   222 C    0.999
   251   1 H    1.032 --   223 C    0.999
   252   1 H    1.052 --   228 C    0.990
   253   1 H    1.030 --   229 C    0.982
   254   1 H    1.026 --   230 C    0.987
   255   1 H    0.980 --   233 O    0.943
   256   1 H    1.040 --   235 C    0.996
   257   1 H    1.035 --   237 C    0.999
   258   1 H    1.030 --   238 C    0.999
 ---------------------------------------------------------------------------

Topologies differ in total number of bonds
Writing topology from bond orders to xtbtopo.mol

 dipole moment from electron density (au)
     X       Y       Z   
-127.5927  -1.8970  -2.0687  total (Debye):  324.387


           -------------------------------------------------
          | TOTAL ENERGY             -538.486654580192 Eh   |
          | GRADIENT NORM               0.107910931342 Eh/α |
          | HOMO-LUMO GAP               0.167660759964 eV   |
           -------------------------------------------------
########################################################################
[WARNING] Runtime exception occurred
-1- restart_readRestart: Dimension missmatch in restart file.
########################################################################

------------------------------------------------------------------------
 * finished run on 2022/07/30 at 10:27:45.934     
------------------------------------------------------------------------
 total:
 * wall-time:     0 d,  0 h,  0 min, 24.884 sec
 *  cpu-time:     0 d,  0 h,  0 min, 24.771 sec
 * ratio c/w:     0.995 speedup
 SCF:
 * wall-time:     0 d,  0 h,  0 min, 24.189 sec
 *  cpu-time:     0 d,  0 h,  0 min, 24.082 sec
 * ratio c/w:     0.996 speedup

