      -----------------------------------------------------------      
     |                   =====================                   |     
     |                           x T B                           |     
     |                   =====================                   |     
     |                         S. Grimme                         |     
     |          Mulliken Center for Theoretical Chemistry        |     
     |                    University of Bonn                     |     
      -----------------------------------------------------------      

   * xtb version 6.5.1 (b24c23e) compiled by 'conda@728c89f4b128' on 2022-07-12

   xtb is free software: you can redistribute it and/or modify it under
   the terms of the GNU Lesser General Public License as published by
   the Free Software Foundation, either version 3 of the License, or
   (at your option) any later version.
   
   xtb is distributed in the hope that it will be useful,
   but WITHOUT ANY WARRANTY; without even the implied warranty of
   MERCHANTABILITY or FITNESS FOR A PARTICULAR PURPOSE.  See the
   GNU Lesser General Public License for more details.
   
   Cite this work as:
   * C. Bannwarth, E. Caldeweyher, S. Ehlert, A. Hansen, P. Pracht,
     J. Seibert, S. Spicher, S. Grimme, WIREs Comput. Mol. Sci., 2020, 11,
     e01493. DOI: 10.1002/wcms.1493
   
   for GFN2-xTB:
   * C. Bannwarth, S. Ehlert and S. Grimme., J. Chem. Theory Comput., 2019,
     15, 1652-1671. DOI: 10.1021/acs.jctc.8b01176
   for GFN1-xTB:
   * S. Grimme, C. Bannwarth, P. Shushkov, J. Chem. Theory Comput., 2017,
     13, 1989-2009. DOI: 10.1021/acs.jctc.7b00118
   for GFN0-xTB:
   * P. Pracht, E. Caldeweyher, S. Ehlert, S. Grimme, ChemRxiv, 2019, preprint.
     DOI: 10.26434/chemrxiv.8326202.v1
   for GFN-FF:
   * S. Spicher and S. Grimme, Angew. Chem. Int. Ed., 2020, 59, 15665-15673.
     DOI: 10.1002/anie.202004239
   
   for ALPB and GBSA implicit solvation:
   * S. Ehlert, M. Stahn, S. Spicher, S. Grimme, J. Chem. Theory Comput.,
     2021, 17, 4250-4261. DOI: 10.1021/acs.jctc.1c00471
   
   for DFT-D4:
   * E. Caldeweyher, C. Bannwarth and S. Grimme, J. Chem. Phys., 2017,
     147, 034112. DOI: 10.1063/1.4993215
   * E. Caldeweyher, S. Ehlert, A. Hansen, H. Neugebauer, S. Spicher,
     C. Bannwarth and S. Grimme, J. Chem. Phys., 2019, 150, 154122.
     DOI: 10.1063/1.5090222
   * E. Caldeweyher, J.-M. Mewes, S. Ehlert and S. Grimme, Phys. Chem. Chem. Phys.
     2020, 22, 8499-8512. DOI: 10.1039/D0CP00502A
   
   for sTDA-xTB:
   * S. Grimme and C. Bannwarth, J. Chem. Phys., 2016, 145, 054103.
     DOI: 10.1063/1.4959605
   
   in the mass-spec context:
   * V. Asgeirsson, C. Bauer and S. Grimme, Chem. Sci., 2017, 8, 4879.
     DOI: 10.1039/c7sc00601b
   * J. Koopman and S. Grimme, ACS Omega 2019, 4, 12, 15120-15133.
     DOI: 10.1021/acsomega.9b02011
   
   for metadynamics refer to:
   * S. Grimme, J. Chem. Theory Comput., 2019, 155, 2847-2862
     DOI: 10.1021/acs.jctc.9b00143
   
   for SPH calculations refer to:
   * S. Spicher and S. Grimme, J. Chem. Theory Comput., 2021, 17, 1701-1714
     DOI: 10.1021/acs.jctc.0c01306
   
   with help from (in alphabetical order)
   P. Atkinson, C. Bannwarth, F. Bohle, G. Brandenburg, E. Caldeweyher
   M. Checinski, S. Dohm, S. Ehlert, S. Ehrlich, I. Gerasimov, C. Hölzer
   A. Katbashev, J. Koopman, C. Lavigne, S. Lehtola, F. März, M. Müller,
   F. Musil, H. Neugebauer, J. Pisarek, C. Plett, P. Pracht, F. Pultar,
   J. Seibert, P. Shushkov, S. Spicher, M. Stahn, M. Steiner, T. Strunk,
   J. Stückrath, T. Rose, and J. Unsleber
   
 * started run on 2022/07/29 at 22:22:06.271     

           -------------------------------------------------
          |                Calculation Setup                |
           -------------------------------------------------

          program call               : xtb PhNH2_C8_4.xyz --gfn 1 --opt -T 48
          hostname                   : cx3-6-25.cx3.hpc.ic.ac.uk
          coordinate file            : PhNH2_C8_4.xyz
          omp threads                :                     1

   ID    Z sym.   atoms
    1    6 C      1-5, 7-11, 13-17, 19-24, 26-30, 32-37, 62-66, 68-72, 74-78,
                  80-85, 87-91, 93-98, 123-151, 153-157, 159-163, 165-170,
                  172-176, 178-183, 207-211, 213-217, 219-223, 225-230,
                  232-236, 238-243
    2    7 N      6, 12, 18, 25, 31, 38, 67, 73, 79, 86, 92, 99, 152, 158,
                  164, 171, 177, 184, 212, 218, 224, 231, 237, 244
    3    1 H      39-61, 100-122, 185-206, 245-266

molecular fragmentation (1/2 indicates fragments):
111111111111111111111111111111111111111111111111111111111111122222222222
222222222222222222222222222222222222222222222222222222222222222222222222
222222222222222222222222222222222222222222222222222222222222222222222222
22222222222222222222222222222222222222222222222222
# atoms in fragment 1/2:    61   205
 fragment masses (1/2) :      491.57     1760.94
CMA distance (Bohr)    :  69.869
constraining FC (au)   :  0.0500
########################################################################
[WARNING] Please study the warnings concerning your input carefully
-1- prog_main_parseArguments: Unknown option '-T' provided
########################################################################

           -------------------------------------------------
          |                 G F N 1 - x T B                 |
           -------------------------------------------------

        Reference                      10.1021/acs.jctc.7b00118
      * Hamiltonian:
        H0-scaling (s, p, d)           1.850000    2.250000    2.000000
        zeta-weighting                 0.000000
      * Dispersion:
        s8                             2.400000
        a1                             0.630000
        a2                             5.000000
        s9                             0.000000
      * Repulsion:
        kExp                           1.500000
        rExp                           1.000000
      * Coulomb:
        alpha                          2.000000
        third order                    atomic
        anisotropic                    false
      * Halogen bond correction:
        rad-scale                      1.300000
        damping                        0.440000


          ...................................................
          :                      SETUP                      :
          :.................................................:
          :  # basis functions                 884          :
          :  # atomic orbitals                 884          :
          :  # shells                          532          :
          :  # electrons                       818          :
          :  # halogen bonds                     0          :
          :  max. iterations                   250          :
          :  Hamiltonian                  GFN1-xTB          :
          :  restarted?                      false          :
          :  GBSA solvation                  false          :
          :  PC potential                    false          :
          :  electronic temp.          300.0000000     K    :
          :  accuracy                    1.0000000          :
          :  -> integral cutoff          0.2500000E+02      :
          :  -> integral neglect         0.1000000E-07      :
          :  -> SCF convergence          0.1000000E-05 Eh   :
          :  -> wf. convergence          0.2000000E-04 e    :
          :  Broyden damping             0.4000000          :
          ...................................................

 iter      E             dE          RMSdq      gap      omega  full diag
   1   -451.8735952 -0.451874E+03  0.103E+01    0.04       0.0  T
   2   -437.8450310  0.140286E+02  0.700E+00    0.06       1.0  T
   3   1141.1122214  0.157896E+04  0.161E+01    0.02       1.0  T
   4   2823.7939533  0.168268E+04  0.204E+01    0.03       1.0  T
   5   -292.0328531 -0.311583E+04  0.870E+00    0.01       1.0  T
   6   -426.4321660 -0.134399E+03  0.443E+00    0.03       1.0  T
   7   -368.8247202  0.576074E+02  0.493E+00    0.11       1.0  T
   8   -432.5376894 -0.637130E+02  0.315E+00    0.01       1.0  T
   9   -439.5090934 -0.697140E+01  0.237E+00    0.02       1.0  T
  10   -431.6663880  0.784271E+01  0.259E+00    0.08       1.0  T
  11   -434.8828816 -0.321649E+01  0.245E+00    0.04       1.0  T
  12   -443.0971793 -0.821430E+01  0.169E+00    0.03       1.0  T
  13   -445.7703020 -0.267312E+01  0.139E+00    0.10       1.0  T
  14   -448.6136290 -0.284333E+01  0.124E+00    0.05       1.0  T
  15   -449.5516810 -0.938052E+00  0.126E+00    0.01       1.0  T
  16   -451.1411082 -0.158943E+01  0.101E+00    0.02       1.0  T
  17   -451.8505026 -0.709394E+00  0.760E-01    0.07       1.0  T
  18   -451.7754256  0.750770E-01  0.950E-01    0.05       1.0  T
  19   -452.3484778 -0.573052E+00  0.755E-01    0.04       1.0  T
  20   -452.3573003 -0.882254E-02  0.783E-01    0.01       1.0  T
  21   -452.6272577 -0.269957E+00  0.667E-01    0.06       1.0  T
  22   -452.5729473  0.543105E-01  0.625E-01    0.04       1.0  T
  23   -452.6976530 -0.124706E+00  0.546E-01    0.05       1.0  T
  24   -452.6049629  0.926901E-01  0.566E-01    0.08       1.0  T
  25   -452.8471158 -0.242153E+00  0.287E-01    0.02       1.0  T
  26   -452.4848464  0.362269E+00  0.557E-01    0.15       1.0  T
  27   -452.6310859 -0.146240E+00  0.429E-01    0.06       1.0  T
  28   -452.8254359 -0.194350E+00  0.259E-01    0.02       1.0  T
  29   -452.6661234  0.159313E+00  0.415E-01    0.08       1.0  T
  30   -452.7538382 -0.877147E-01  0.328E-01    0.06       1.0  T
  31   -452.8381984 -0.843602E-01  0.256E-01    0.00       1.0  T
  32   -452.8439165 -0.571818E-02  0.242E-01    0.01       1.0  T
  33   -452.8326746  0.112420E-01  0.242E-01    0.02       1.0  T
  34   -452.8596393 -0.269647E-01  0.188E-01    0.01       1.0  T
  35   -452.8683568 -0.871756E-02  0.165E-01    0.01       1.0  T
  36   -452.8754924 -0.713556E-02  0.122E-01    0.01       1.0  T
  37   -452.8785042 -0.301178E-02  0.110E-01    0.01       1.0  T
  38   -452.8822353 -0.373114E-02  0.841E-02    0.02       1.0  T
  39   -452.8820502  0.185135E-03  0.769E-02    0.01       1.0  T
  40   -452.8864274 -0.437720E-02  0.476E-02    0.02       1.0  T
  41   -452.8864719 -0.445682E-04  0.377E-02    0.02       1.0  T
  42   -452.8864261  0.458188E-04  0.336E-02    0.01       1.0  T
  43   -452.8876118 -0.118567E-02  0.183E-02    0.02       1.0  T
  44   -452.8878337 -0.221936E-03  0.140E-02    0.02       1.0  T
  45   -452.8879090 -0.752646E-04  0.104E-02    0.02       1.0  T
  46   -452.8879409 -0.319163E-04  0.858E-03    0.02       1.0  T
  47   -452.8879713 -0.303448E-04  0.703E-03    0.02       1.0  T
  48   -452.8879844 -0.131391E-04  0.527E-03    0.02       1.2  T
  49   -452.8879964 -0.119655E-04  0.312E-03    0.02       2.0  T
  50   -452.8879996 -0.326565E-05  0.198E-03    0.02       3.1  T
  51   -452.8880014 -0.174285E-05  0.130E-03    0.02       4.7  T
  52   -452.8880022 -0.800974E-06  0.909E-04    0.02       6.7  T
  53   -452.8879964  0.580978E-05  0.240E-03    0.02       2.6  T
  54   -452.8880014 -0.504583E-05  0.134E-03    0.02       4.6  T
  55   -452.8880016 -0.217646E-06  0.123E-03    0.02       5.0  T
  56   -452.8880028 -0.114973E-05  0.709E-04    0.02       8.6  T
  57   -452.8880032 -0.459829E-06  0.317E-04    0.02      19.3  T
  58   -452.8880033 -0.776436E-07  0.182E-04    0.02      33.6  T
  59   -452.8880033 -0.325190E-07  0.108E-04    0.02      57.0  T

   *** convergence criteria satisfied after 59 iterations ***

         #    Occupation            Energy/Eh            Energy/eV
      -------------------------------------------------------------
         1        2.0000           -0.7996455             -21.7595
       ...           ...                  ...                  ...
       403        2.0000           -0.3801873             -10.3454
       404        2.0000           -0.3784498             -10.2981
       405        2.0000           -0.3759669             -10.2306
       406        2.0000           -0.3750433             -10.2054
       407        1.9999           -0.3693416             -10.0503
       408        1.9999           -0.3692302             -10.0473
       409        0.9495           -0.3599500              -9.7947 (HOMO)
       410        0.5934           -0.3592260              -9.7750 (LUMO)
       411        0.2422           -0.3581630              -9.7461
       412        0.2152           -0.3580360              -9.7427
       413        0.0000           -0.3454358              -9.3998
       414                         -0.3430097              -9.3338
       ...                                ...                  ...
       884                          2.4699256              67.2101
      -------------------------------------------------------------
                  HL-Gap            0.0007239 Eh            0.0197 eV
             Fermi-level           -0.3600460 Eh           -9.7974 eV

 SCC (total)                   0 d,  0 h,  0 min, 16.642 sec
 SCC setup                      ...        0 min,  0.021 sec (  0.129%)
 Dispersion                     ...        0 min,  0.012 sec (  0.075%)
 classical contributions        ...        0 min,  0.003 sec (  0.020%)
 integral evaluation            ...        0 min,  0.308 sec (  1.849%)
 iterations                     ...        0 min, 15.620 sec ( 93.860%)
 molecular gradient             ...        0 min,  0.622 sec (  3.739%)
 printout                       ...        0 min,  0.055 sec (  0.328%)

         :::::::::::::::::::::::::::::::::::::::::::::::::::::
         ::                     SUMMARY                     ::
         :::::::::::::::::::::::::::::::::::::::::::::::::::::
         :: total energy            -444.362957677895 Eh    ::
         :: gradient norm              1.900149013295 Eh/a0 ::
         :: HOMO-LUMO gap              0.019699176540 eV    ::
         ::.................................................::
         :: SCC energy              -452.888003337781 Eh    ::
         :: -> electrostatic           0.355246950176 Eh    ::
         :: repulsion energy           8.739165002791 Eh    ::
         :: dispersion energy         -0.214119342904 Eh    ::
         :: halogen bond corr.         0.000000000000 Eh    ::
         :: add. restraining           0.000000000000 Eh    ::
         :: total charge               0.000000000001 e     ::
         :::::::::::::::::::::::::::::::::::::::::::::::::::::

      ----------------------------------------------------------- 
     |                   =====================                   |
     |                        A N C O P T                        |
     |                   =====================                   |
     |               Approximate Normal Coordinate               |
     |                Rational Function Optimizer                |
      ----------------------------------------------------------- 

          ...................................................
          :                      SETUP                      :
          :.................................................:
          :   optimization level            normal          :
          :   max. optcycles                   798          :
          :   ANC micro-cycles                  20          :
          :   degrees of freedom               792          :
          :.................................................:
          :   RF solver                   davidson          :
          :   write xtbopt.log                true          :
          :   linear?                        false          :
          :   energy convergence         0.5000000E-05 Eh   :
          :   grad. convergence          0.1000000E-02 Eh/α :
          :   maximium RF displ.         1.0000000          :
          :   Hlow (freq-cutoff)         0.1000000E-01      :
          :   Hmax (freq-cutoff)         5.0000000          :
          :   S6 in model hess.         20.0000000          :
          ...................................................

generating ANC from model Hessian ...
Using Lindh-Hessian (1995)
 Shifting diagonal of input Hessian by    1.0009496778859157E-002
 Lowest  eigenvalues of input Hessian
    0.010000    0.010006    0.010007    0.010008    0.010008    0.010009
    0.000000    0.000000    0.000000    0.000000    0.000000    0.000000
    0.010010    0.010011    0.010014    0.010017    0.010020    0.010023
 Highest eigenvalues
    3.105669    3.160908    3.232409    3.272390    3.587832    3.587937


........................................................................
.............................. CYCLE    1 ..............................
........................................................................
   1   -452.8880033 -0.452888E+03  0.572E-05    0.02       0.0  T
   2   -452.8880025  0.852877E-06  0.865E-04    0.02       7.1  T
   3   -452.8880024  0.650555E-07  0.763E-04    0.02       8.0  T
   4   -452.8880033 -0.873827E-06  0.177E-04    0.02      34.5  T
   5   -452.8880033  0.190810E-07  0.193E-04    0.02      31.7  T
     SCC iter.                  ...        0 min,  1.344 sec
     gradient                   ...        0 min,  0.635 sec
 * total energy  :  -444.3629576 Eh     change        0.5415592E-07 Eh
   gradient norm :     1.9001528 Eh/α   predicted     0.0000000E+00 (-100.00%)
   displ. norm   :     0.5590015 α      lambda       -0.1004563E+01
   maximum displ.:     0.2401363 α      in ANC's #788, #789, #784, ...

........................................................................
.............................. CYCLE    2 ..............................
........................................................................
   1   -452.8015768 -0.452802E+03  0.275E-01    0.12       0.0  T
   2   -451.7299026  0.107167E+01  0.985E-01    0.11       1.0  T
   3   -452.6240726 -0.894170E+00  0.432E-01    0.18       1.0  T
   4   -452.7552422 -0.131170E+00  0.273E-01    0.01       1.0  T
   5   -452.6939641  0.612781E-01  0.311E-01    0.01       1.0  T
   6   -452.7455367 -0.515726E-01  0.262E-01    0.08       1.0  T
   7   -452.8288137 -0.832770E-01  0.121E-01    0.07       1.0  T
   8   -452.7912013  0.376123E-01  0.188E-01    0.02       1.0  T
   9   -452.8255365 -0.343351E-01  0.116E-01    0.06       1.0  T
  10   -452.8358423 -0.103058E-01  0.747E-02    0.06       1.0  T
  11   -452.8383057 -0.246342E-02  0.649E-02    0.03       1.0  T
  12   -452.8432466 -0.494092E-02  0.397E-02    0.07       1.0  T
  13   -452.8426596  0.586992E-03  0.404E-02    0.06       1.0  T
  14   -452.8450943 -0.243466E-02  0.101E-02    0.05       1.0  T
  15   -452.8451807 -0.864869E-04  0.273E-03    0.05       2.2  T
  16   -452.8451819 -0.117896E-05  0.254E-03    0.05       2.4  T
  17   -452.8451917 -0.974436E-05  0.916E-04    0.05       6.7  T
  18   -452.8451922 -0.534466E-06  0.552E-04    0.05      11.1  T
  19   -452.8451925 -0.340721E-06  0.241E-04    0.05      25.5  T
  20   -452.8451926 -0.921811E-07  0.110E-04    0.05      55.7  T
  21   -452.8451926  0.457248E-08  0.103E-04    0.05      59.6  T
     SCC iter.                  ...        0 min,  6.110 sec
     gradient                   ...        0 min,  0.648 sec
 * total energy  :  -445.0276282 Eh     change       -0.6646706E+00 Eh
   gradient norm :     0.7451459 Eh/α   predicted    -0.6592388E+00 (  -0.82%)
   displ. norm   :     0.5382114 α      lambda       -0.3336912E+00
   maximum displ.:     0.1197356 α      in ANC's #476, #789, #788, ...

........................................................................
.............................. CYCLE    3 ..............................
........................................................................
   1   -452.9275933 -0.452928E+03  0.203E-01    0.16       0.0  T
   2   -452.3997157  0.527878E+00  0.717E-01    0.06       1.0  T
   3   -452.8618121 -0.462096E+00  0.288E-01    0.03       1.0  T
   4   -452.9111919 -0.493798E-01  0.168E-01    0.25       1.0  T
   5   -452.7730331  0.138159E+00  0.349E-01    0.03       1.0  T
   6   -452.9222109 -0.149178E+00  0.156E-01    0.07       1.0  T
   7   -452.9215866  0.624232E-03  0.130E-01    0.08       1.0  T
   8   -452.9329638 -0.113772E-01  0.107E-01    0.17       1.0  T
   9   -452.9368388 -0.387495E-02  0.896E-02    0.15       1.0  T
  10   -452.9422021 -0.536334E-02  0.636E-02    0.14       1.0  T
  11   -452.9464186 -0.421648E-02  0.259E-02    0.09       1.0  T
  12   -452.9464782 -0.595875E-04  0.210E-02    0.10       1.0  T
  13   -452.9463420  0.136158E-03  0.201E-02    0.10       1.0  T
  14   -452.9467518 -0.409813E-03  0.987E-03    0.10       1.0  T
  15   -452.9468182 -0.663944E-04  0.638E-03    0.09       1.0  T
  16   -452.9468705 -0.523334E-04  0.197E-03    0.09       3.1  T
  17   -452.9468747 -0.416254E-05  0.919E-04    0.09       6.7  T
  18   -452.9468746  0.743859E-07  0.991E-04    0.09       6.2  T
  19   -452.9468759 -0.124598E-05  0.292E-04    0.09      21.0  T
  20   -452.9468760 -0.662793E-07  0.190E-04    0.09      32.3  T
  21   -452.9468759  0.580570E-07  0.266E-04    0.09      23.1  T
  22   -452.9468760 -0.988167E-07  0.819E-05    0.09      74.9  T
     SCC iter.                  ...        0 min,  6.065 sec
     gradient                   ...        0 min,  0.656 sec
 * total energy  :  -445.2648887 Eh     change       -0.2372605E+00 Eh
   gradient norm :     0.3150513 Eh/α   predicted    -0.2151762E+00 (  -9.31%)
   displ. norm   :     0.6303195 α      lambda       -0.1474988E+00
   maximum displ.:     0.1501101 α      in ANC's #204, #202, #198, ...

........................................................................
.............................. CYCLE    4 ..............................
........................................................................
   1   -452.9787541 -0.452979E+03  0.125E-01    0.30       0.0  T
   2   -452.4481870  0.530567E+00  0.666E-01    0.19       1.0  T
   3   -452.9193020 -0.471115E+00  0.258E-01    0.05       1.0  T
   4   -452.9816872 -0.623852E-01  0.807E-02    0.28       1.0  T
   5   -452.9876862 -0.599893E-02  0.558E-02    0.19       1.0  T
   6   -452.9892583 -0.157217E-02  0.329E-02    0.14       1.0  T
   7   -452.9789156  0.103427E-01  0.895E-02    0.07       1.0  T
   8   -452.9865756 -0.765997E-02  0.449E-02    0.10       1.0  T
   9   -452.9892313 -0.265573E-02  0.171E-02    0.14       1.0  T
  10   -452.9894306 -0.199285E-03  0.857E-03    0.14       1.0  T
  11   -452.9894454 -0.148548E-04  0.592E-03    0.14       1.0  T
  12   -452.9894898 -0.443710E-04  0.183E-03    0.13       3.4  T
  13   -452.9894902 -0.363553E-06  0.135E-03    0.14       4.5  T
  14   -452.9894863  0.383839E-05  0.210E-03    0.14       2.9  T
  15   -452.9894885 -0.212970E-05  0.164E-03    0.14       3.7  T
  16   -452.9894915 -0.300357E-05  0.664E-04    0.14       9.2  T
  17   -452.9894920 -0.570325E-06  0.178E-04    0.13      34.4  T
  18   -452.9894921 -0.375724E-07  0.798E-05    0.13      76.9  T
     SCC iter.                  ...        0 min,  5.010 sec
     gradient                   ...        0 min,  0.651 sec
 * total energy  :  -445.3682318 Eh     change       -0.1033431E+00 Eh
   gradient norm :     0.1433171 Eh/α   predicted    -0.1030503E+00 (  -0.28%)
   displ. norm   :     0.7333510 α      lambda       -0.6979968E-01
   maximum displ.:     0.2121564 α      in ANC's #204, #202, #48, ...

........................................................................
.............................. CYCLE    5 ..............................
........................................................................
   1   -452.9881435 -0.452988E+03  0.660E-02    0.42       0.0  T
   2   -452.8754413  0.112702E+00  0.306E-01    0.02       1.0  T
   3   -452.9887343 -0.113293E+00  0.568E-02    0.42       1.0  T
   4   -452.9904183 -0.168409E-02  0.329E-02    0.36       1.0  T
   5   -452.9908921 -0.473752E-03  0.220E-02    0.29       1.0  T
   6   -452.9912480 -0.355903E-03  0.210E-02    0.20       1.0  T
   7   -452.9901136  0.113440E-02  0.321E-02    0.15       1.0  T
   8   -452.9909023 -0.788753E-03  0.183E-02    0.16       1.0  T
   9   -452.9913215 -0.419165E-03  0.524E-03    0.19       1.2  T
  10   -452.9913566 -0.351009E-04  0.119E-03    0.20       5.2  T
  11   -452.9913579 -0.127214E-05  0.352E-04    0.20      17.4  T
  12   -452.9913579 -0.405145E-07  0.213E-04    0.20      28.8  T
  13   -452.9913580 -0.248028E-07  0.933E-05    0.20      65.7  T
  14   -452.9913580 -0.706530E-08  0.345E-05    0.20     177.8  T
     SCC iter.                  ...        0 min,  3.860 sec
     gradient                   ...        0 min,  0.663 sec
 * total energy  :  -445.4237071 Eh     change       -0.5547532E-01 Eh
   gradient norm :     0.0991955 Eh/α   predicted    -0.5366912E-01 (  -3.26%)
   displ. norm   :     0.8388875 α      lambda       -0.5474733E-01
   maximum displ.:     0.2679221 α      in ANC's #48, #204, #64, ...

........................................................................
.............................. CYCLE    6 ..............................
........................................................................
   1   -452.9913778 -0.452991E+03  0.552E-02    0.61       0.0  T
   2   -452.9910711  0.306783E-03  0.809E-02    0.45       1.0  T
   3   -452.9930445 -0.197349E-02  0.259E-02    0.49       1.0  T
   4   -452.9929494  0.951261E-04  0.209E-02    0.51       1.0  T
   5   -452.9930877 -0.138246E-03  0.857E-03    0.50       1.0  T
   6   -452.9931103 -0.226633E-04  0.296E-03    0.51       2.1  T
   7   -452.9931155 -0.513836E-05  0.848E-04    0.50       7.2  T
   8   -452.9931159 -0.458688E-06  0.397E-04    0.50      15.5  T
   9   -452.9931160 -0.762905E-07  0.168E-04    0.50      36.5  T
  10   -452.9931160 -0.139989E-07  0.961E-05    0.50      63.8  T
     SCC iter.                  ...        0 min,  2.863 sec
     gradient                   ...        0 min,  0.676 sec
 * total energy  :  -445.4743009 Eh     change       -0.5059375E-01 Eh
   gradient norm :     0.0959387 Eh/α   predicted    -0.4663746E-01 (  -7.82%)
   displ. norm   :     0.9289453 α      lambda       -0.5793798E-01
   maximum displ.:     0.3223066 α      in ANC's #48, #64, #204, ...

........................................................................
.............................. CYCLE    7 ..............................
........................................................................
   1   -452.9886951 -0.452989E+03  0.650E-02    0.81       0.0  T
   2   -452.9892621 -0.567052E-03  0.719E-02    0.81       1.0  T
   3   -452.9905457 -0.128362E-02  0.237E-02    0.81       1.0  T
   4   -452.9904672  0.784888E-04  0.153E-02    0.81       1.0  T
   5   -452.9905396 -0.723151E-04  0.753E-03    0.81       1.0  T
   6   -452.9905689 -0.293248E-04  0.265E-03    0.81       2.3  T
   7   -452.9905738 -0.491527E-05  0.693E-04    0.81       8.8  T
   8   -452.9905740 -0.241610E-06  0.428E-04    0.81      14.3  T
   9   -452.9905741 -0.933592E-07  0.170E-04    0.81      36.0  T
  10   -452.9905741 -0.128539E-07  0.674E-05    0.81      91.0  T
     SCC iter.                  ...        0 min,  2.889 sec
     gradient                   ...        0 min,  0.683 sec
 * total energy  :  -445.5311220 Eh     change       -0.5682117E-01 Eh
   gradient norm :     0.0972561 Eh/α   predicted    -0.5396754E-01 (  -5.02%)
   displ. norm   :     0.9478224 α      lambda       -0.6263722E-01
   maximum displ.:     0.3369721 α      in ANC's #48, #64, #204, ...

........................................................................
.............................. CYCLE    8 ..............................
........................................................................
   1   -452.9799112 -0.452980E+03  0.710E-02    0.85       0.0  T
   2   -452.9808719 -0.960712E-03  0.676E-02    0.85       1.0  T
   3   -452.9815219 -0.649951E-03  0.289E-02    0.85       1.0  T
   4   -452.9813708  0.151094E-03  0.178E-02    0.85       1.0  T
   5   -452.9814895 -0.118781E-03  0.761E-03    0.85       1.0  T
   6   -452.9815374 -0.478292E-04  0.206E-03    0.85       3.0  T
   7   -452.9815398 -0.239597E-05  0.775E-04    0.85       7.9  T
   8   -452.9815401 -0.299934E-06  0.335E-04    0.85      18.3  T
   9   -452.9815401 -0.696372E-07  0.154E-04    0.85      39.8  T
  10   -452.9815401 -0.115524E-07  0.562E-05    0.85     109.1  T
     SCC iter.                  ...        0 min,  2.750 sec
     gradient                   ...        0 min,  0.672 sec
 * total energy  :  -445.5876215 Eh     change       -0.5649945E-01 Eh
   gradient norm :     0.0990039 Eh/α   predicted    -0.5945424E-01 (   5.23%)
   displ. norm   :     0.8883520 α      lambda       -0.4945999E-01
   maximum displ.:     0.3784300 α      in ANC's #48, #64, #67, ...

........................................................................
.............................. CYCLE    9 ..............................
........................................................................
   1   -452.9907999 -0.452991E+03  0.523E-02    0.88       0.0  T
   2   -452.9911025 -0.302620E-03  0.532E-02    0.88       1.0  T
   3   -452.9914518 -0.349288E-03  0.254E-02    0.88       1.0  T
   4   -452.9912517  0.200168E-03  0.184E-02    0.88       1.0  T
   5   -452.9914503 -0.198670E-03  0.409E-03    0.88       1.5  T
   6   -452.9914615 -0.112203E-04  0.104E-03    0.88       5.9  T
   7   -452.9914620 -0.450689E-06  0.565E-04    0.88      10.8  T
   8   -452.9914622 -0.237831E-06  0.187E-04    0.88      32.9  T
   9   -452.9914623 -0.201614E-07  0.689E-05    0.88      89.0  T
     SCC iter.                  ...        0 min,  2.567 sec
     gradient                   ...        0 min,  0.665 sec
 * total energy  :  -445.6290387 Eh     change       -0.4141717E-01 Eh
   gradient norm :     0.1090193 Eh/α   predicted    -0.4424617E-01 (   6.83%)
   displ. norm   :     0.7717000 α      lambda       -0.4305555E-01
   maximum displ.:     0.3409151 α      in ANC's #48, #67, #64, ...

........................................................................
.............................. CYCLE   10 ..............................
........................................................................
   1   -453.0221683 -0.453022E+03  0.448E-02    0.84       0.0  T
   2   -453.0224063 -0.237982E-03  0.444E-02    0.84       1.0  T
   3   -453.0226977 -0.291387E-03  0.207E-02    0.85       1.0  T
   4   -453.0225227  0.174946E-03  0.178E-02    0.84       1.0  T
   5   -453.0226969 -0.174185E-03  0.418E-03    0.85       1.5  T
   6   -453.0227067 -0.976029E-05  0.101E-03    0.85       6.0  T
   7   -453.0227071 -0.404321E-06  0.424E-04    0.85      14.5  T
   8   -453.0227072 -0.136060E-06  0.137E-04    0.85      44.8  T
   9   -453.0227072 -0.956169E-08  0.579E-05    0.85     105.8  T
     SCC iter.                  ...        0 min,  2.551 sec
     gradient                   ...        0 min,  0.669 sec
 * total energy  :  -445.6598208 Eh     change       -0.3078215E-01 Eh
   gradient norm :     0.1029980 Eh/α   predicted    -0.3434801E-01 (  11.58%)
   displ. norm   :     0.7718326 α      lambda       -0.4145031E-01
   maximum displ.:     0.3822736 α      in ANC's #48, #64, #16, ...

........................................................................
.............................. CYCLE   11 ..............................
........................................................................
   1   -453.0705883 -0.453071E+03  0.341E-02    0.87       0.0  T
   2   -453.0707618 -0.173540E-03  0.252E-02    0.87       1.0  T
   3   -453.0709814 -0.219570E-03  0.118E-02    0.87       1.0  T
   4   -453.0709765  0.482351E-05  0.990E-03    0.87       1.0  T
   5   -453.0710220 -0.454376E-04  0.322E-03    0.87       1.9  T
   6   -453.0710242 -0.221159E-05  0.105E-03    0.87       5.8  T
   7   -453.0710251 -0.877080E-06  0.359E-04    0.87      17.1  T
   8   -453.0710252 -0.110213E-06  0.142E-04    0.87      43.1  T
   9   -453.0710252 -0.773105E-08  0.592E-05    0.87     103.6  T
     SCC iter.                  ...        0 min,  2.585 sec
     gradient                   ...        0 min,  0.681 sec
 * total energy  :  -445.6855534 Eh     change       -0.2573254E-01 Eh
   gradient norm :     0.0918490 Eh/α   predicted    -0.3307174E-01 (  28.52%)
   displ. norm   :     0.7266945 α      lambda       -0.2909911E-01
   maximum displ.:     0.3977295 α      in ANC's #48, #64, #16, ...

........................................................................
.............................. CYCLE   12 ..............................
........................................................................
   1   -453.1160067 -0.453116E+03  0.233E-02    0.82       0.0  T
   2   -453.1160893 -0.825772E-04  0.162E-02    0.83       1.0  T
   3   -453.1161476 -0.582860E-04  0.654E-03    0.83       1.0  T
   4   -453.1161323  0.152332E-04  0.725E-03    0.83       1.0  T
   5   -453.1161587 -0.263833E-04  0.208E-03    0.83       3.0  T
   6   -453.1161607 -0.196080E-05  0.585E-04    0.83      10.5  T
   7   -453.1161609 -0.200338E-06  0.233E-04    0.83      26.3  T
   8   -453.1161609 -0.376776E-07  0.919E-05    0.83      66.7  T
   9   -453.1161609 -0.541866E-08  0.368E-05    0.83     166.6  T
     SCC iter.                  ...        0 min,  2.564 sec
     gradient                   ...        0 min,  0.680 sec
 * total energy  :  -445.7104998 Eh     change       -0.2494644E-01 Eh
   gradient norm :     0.0655955 Eh/α   predicted    -0.2223296E-01 ( -10.88%)
   displ. norm   :     0.8456424 α      lambda       -0.2625648E-01
   maximum displ.:     0.4673038 α      in ANC's #48, #64, #16, ...

........................................................................
.............................. CYCLE   13 ..............................
........................................................................
   1   -453.1626612 -0.453163E+03  0.197E-02    0.81       0.0  T
   2   -453.1626944 -0.332235E-04  0.144E-02    0.81       1.0  T
   3   -453.1627360 -0.416264E-04  0.615E-03    0.81       1.0  T
   4   -453.1627271  0.898618E-05  0.588E-03    0.81       1.0  T
   5   -453.1627441 -0.170591E-04  0.154E-03    0.81       4.0  T
   6   -453.1627455 -0.137649E-05  0.408E-04    0.81      15.0  T
   7   -453.1627456 -0.951668E-07  0.140E-04    0.81      43.8  T
   8   -453.1627456 -0.153697E-07  0.585E-05    0.81     104.8  T
     SCC iter.                  ...        0 min,  2.263 sec
     gradient                   ...        0 min,  0.635 sec
 * total energy  :  -445.7332290 Eh     change       -0.2272918E-01 Eh
   gradient norm :     0.0497204 Eh/α   predicted    -0.2251639E-01 (  -0.94%)
   displ. norm   :     0.8904305 α      lambda       -0.2392436E-01
   maximum displ.:     0.4780596 α      in ANC's #48, #64, #16, ...

........................................................................
.............................. CYCLE   14 ..............................
........................................................................
   1   -453.2071252 -0.453207E+03  0.174E-02    0.78       0.0  T
   2   -453.2071769 -0.516721E-04  0.126E-02    0.78       1.0  T
   3   -453.2072040 -0.271673E-04  0.562E-03    0.78       1.1  T
   4   -453.2071941  0.991734E-05  0.476E-03    0.78       1.3  T
   5   -453.2072048 -0.106702E-04  0.189E-03    0.78       3.2  T
   6   -453.2072070 -0.222336E-05  0.354E-04    0.78      17.3  T
   7   -453.2072071 -0.774582E-07  0.150E-04    0.78      40.9  T
   8   -453.2072071 -0.146425E-07  0.713E-05    0.78      86.0  T
     SCC iter.                  ...        0 min,  2.258 sec
     gradient                   ...        0 min,  0.643 sec
 * total energy  :  -445.7519962 Eh     change       -0.1876724E-01 Eh
   gradient norm :     0.0561391 Eh/α   predicted    -0.2144660E-01 (  14.28%)
   displ. norm   :     0.8705258 α      lambda       -0.2193094E-01
   maximum displ.:     0.4652528 α      in ANC's #48, #64, #16, ...

........................................................................
.............................. CYCLE   15 ..............................
........................................................................
   1   -453.2498249 -0.453250E+03  0.148E-02    0.78       0.0  T
   2   -453.2498459 -0.210840E-04  0.112E-02    0.78       1.0  T
   3   -453.2498674 -0.214571E-04  0.535E-03    0.78       1.1  T
   4   -453.2498605  0.689777E-05  0.425E-03    0.78       1.4  T
   5   -453.2498708 -0.102935E-04  0.123E-03    0.78       5.0  T
   6   -453.2498719 -0.109647E-05  0.466E-04    0.78      13.2  T
   7   -453.2498721 -0.192496E-06  0.118E-04    0.78      52.2  T
   8   -453.2498721 -0.972511E-08  0.470E-05    0.78     130.4  T
     SCC iter.                  ...        0 min,  2.305 sec
     gradient                   ...        0 min,  0.679 sec
 * total energy  :  -445.7694927 Eh     change       -0.1749648E-01 Eh
   gradient norm :     0.0483220 Eh/α   predicted    -0.1927528E-01 (  10.17%)
   displ. norm   :     0.8671534 α      lambda       -0.1848902E-01
   maximum displ.:     0.4831975 α      in ANC's #48, #16, #64, ...

........................................................................
.............................. CYCLE   16 ..............................
........................................................................
   1   -453.2888766 -0.453289E+03  0.200E-02    0.81       0.0  T
   2   -453.2889580 -0.813933E-04  0.183E-02    0.81       1.0  T
   3   -453.2890408 -0.827731E-04  0.690E-03    0.81       1.0  T
   4   -453.2890185  0.223060E-04  0.664E-03    0.81       1.0  T
   5   -453.2890428 -0.243017E-04  0.175E-03    0.81       3.5  T
   6   -453.2890441 -0.127005E-05  0.642E-04    0.81       9.6  T
   7   -453.2890444 -0.291662E-06  0.214E-04    0.81      28.6  T
   8   -453.2890444 -0.320936E-07  0.795E-05    0.81      77.2  T
   9   -453.2890444 -0.297098E-08  0.284E-05    0.81     215.9  T
     SCC iter.                  ...        0 min,  2.554 sec
     gradient                   ...        0 min,  0.674 sec
 * total energy  :  -445.7824664 Eh     change       -0.1297371E-01 Eh
   gradient norm :     0.0590002 Eh/α   predicted    -0.1619598E-01 (  24.84%)
   displ. norm   :     0.8009172 α      lambda       -0.1723411E-01
   maximum displ.:     0.4108308 α      in ANC's #48, #16, #64, ...

........................................................................
.............................. CYCLE   17 ..............................
........................................................................
   1   -453.3403161 -0.453340E+03  0.169E-02    0.79       0.0  T
   2   -453.3403446 -0.285332E-04  0.172E-02    0.79       1.0  T
   3   -453.3404275 -0.828485E-04  0.690E-03    0.79       1.0  T
   4   -453.3403994  0.280604E-04  0.693E-03    0.79       1.0  T
   5   -453.3404286 -0.292374E-04  0.187E-03    0.79       3.3  T
   6   -453.3404301 -0.147316E-05  0.540E-04    0.79      11.4  T
   7   -453.3404304 -0.251244E-06  0.159E-04    0.79      38.5  T
   8   -453.3404304 -0.194325E-07  0.561E-05    0.79     109.3  T
     SCC iter.                  ...        0 min,  2.243 sec
     gradient                   ...        0 min,  0.671 sec
 * total energy  :  -445.7954785 Eh     change       -0.1301213E-01 Eh
   gradient norm :     0.0360634 Eh/α   predicted    -0.1414461E-01 (   8.70%)
   displ. norm   :     0.8487187 α      lambda       -0.1351785E-01
   maximum displ.:     0.4534785 α      in ANC's #48, #16, #64, ...

........................................................................
.............................. CYCLE   18 ..............................
........................................................................
   1   -453.3851087 -0.453385E+03  0.910E-03    0.79       0.0  T
   2   -453.3851008  0.796272E-05  0.816E-03    0.79       1.0  T
   3   -453.3851273 -0.265357E-04  0.379E-03    0.79       1.6  T
   4   -453.3851273  0.150856E-07  0.284E-03    0.79       2.2  T
   5   -453.3851315 -0.424993E-05  0.841E-04    0.79       7.3  T
   6   -453.3851321 -0.572562E-06  0.290E-04    0.79      21.1  T
   7   -453.3851322 -0.678289E-07  0.805E-05    0.79      76.1  T
   8   -453.3851322 -0.339054E-08  0.290E-05    0.79     211.3  T
     SCC iter.                  ...        0 min,  2.221 sec
     gradient                   ...        0 min,  0.654 sec
 * total energy  :  -445.8055049 Eh     change       -0.1002640E-01 Eh
   gradient norm :     0.0340568 Eh/α   predicted    -0.1162753E-01 (  15.97%)
   displ. norm   :     0.8440138 α      lambda       -0.1254825E-01
   maximum displ.:     0.4238792 α      in ANC's #48, #16, #47, ...

........................................................................
.............................. CYCLE   19 ..............................
........................................................................
   1   -453.4230069 -0.453423E+03  0.113E-02    0.79       0.0  T
   2   -453.4229940  0.128761E-04  0.126E-02    0.79       1.0  T
   3   -453.4230664 -0.723894E-04  0.461E-03    0.79       1.3  T
   4   -453.4230533  0.130308E-04  0.460E-03    0.79       1.3  T
   5   -453.4230670 -0.136132E-04  0.105E-03    0.79       5.9  T
   6   -453.4230673 -0.380400E-06  0.444E-04    0.79      13.8  T
   7   -453.4230675 -0.172823E-06  0.118E-04    0.79      52.0  T
   8   -453.4230675 -0.962223E-08  0.339E-05    0.79     181.1  T
     SCC iter.                  ...        0 min,  3.372 sec
     gradient                   ...        0 min,  0.618 sec
 * total energy  :  -445.8141109 Eh     change       -0.8606000E-02 Eh
   gradient norm :     0.0410485 Eh/α   predicted    -0.1074355E-01 (  24.84%)
   displ. norm   :     0.7991462 α      lambda       -0.1022109E-01
   maximum displ.:     0.3877917 α      in ANC's #48, #16, #69, ...

........................................................................
.............................. CYCLE   20 ..............................
........................................................................
   1   -453.4638071 -0.453464E+03  0.880E-03    0.79       0.0  T
   2   -453.4637988  0.824142E-05  0.820E-03    0.79       1.0  T
   3   -453.4638333 -0.344689E-04  0.343E-03    0.79       1.8  T
   4   -453.4638310  0.236088E-05  0.299E-03    0.79       2.0  T
   5   -453.4638362 -0.524774E-05  0.841E-04    0.79       7.3  T
   6   -453.4638366 -0.355187E-06  0.357E-04    0.79      17.2  T
   7   -453.4638367 -0.102938E-06  0.840E-05    0.79      73.0  T
   8   -453.4638367 -0.371546E-08  0.343E-05    0.79     179.0  T
     SCC iter.                  ...        0 min,  2.478 sec
     gradient                   ...        0 min,  0.745 sec
 * total energy  :  -445.8210900 Eh     change       -0.6979083E-02 Eh
   gradient norm :     0.0275557 Eh/α   predicted    -0.8374308E-02 (  19.99%)
   displ. norm   :     0.7965812 α      lambda       -0.8700254E-02
   maximum displ.:     0.4375246 α      in ANC's #48, #16, #55, ...
 * RMSD in coord.:     0.7313352 α      energy gain  -0.1458132E+01 Eh

generating ANC from model Hessian ...
Using Lindh-Hessian (1995)
 Shifting diagonal of input Hessian by    1.0000641969977627E-002
 Lowest  eigenvalues of input Hessian
    0.010000    0.010000    0.010000    0.000000    0.000000    0.000000
    0.000000    0.000000    0.000000    0.010001    0.010003    0.010005
    0.010007    0.010009    0.010011    0.010012    0.010015    0.010019
 Highest eigenvalues
    2.713000    2.717719    2.792537    2.927529    2.930051    3.001433


........................................................................
.............................. CYCLE   21 ..............................
........................................................................
   1   -453.4967804 -0.453497E+03  0.985E-03    0.79       0.0  T
   2   -453.4967810 -0.626015E-06  0.897E-03    0.79       1.0  T
   3   -453.4968155 -0.344703E-04  0.343E-03    0.79       1.8  T
   4   -453.4968103  0.516493E-05  0.342E-03    0.79       1.8  T
   5   -453.4968179 -0.763696E-05  0.926E-04    0.79       6.6  T
   6   -453.4968183 -0.307563E-06  0.375E-04    0.79      16.3  T
   7   -453.4968184 -0.128132E-06  0.105E-04    0.79      58.5  T
   8   -453.4968184 -0.701164E-08  0.363E-05    0.79     168.7  T
     SCC iter.                  ...        0 min,  2.504 sec
     gradient                   ...        0 min,  0.762 sec
 * total energy  :  -445.8252104 Eh     change       -0.4120419E-02 Eh
   gradient norm :     0.0414067 Eh/α   predicted     0.0000000E+00 (-100.00%)
   displ. norm   :     0.4449741 α      lambda       -0.5202472E-02
   maximum displ.:     0.1902400 α      in ANC's #61, #79, #59, ...

........................................................................
.............................. CYCLE   22 ..............................
........................................................................
   1   -453.5124227 -0.453512E+03  0.493E-03    0.79       0.0  T
   2   -453.5124249 -0.225822E-05  0.440E-03    0.79       1.4  T
   3   -453.5124304 -0.546346E-05  0.204E-03    0.79       3.0  T
   4   -453.5124286  0.180812E-05  0.190E-03    0.79       3.2  T
   5   -453.5124308 -0.219396E-05  0.535E-04    0.79      11.5  T
   6   -453.5124310 -0.197033E-06  0.215E-04    0.79      28.6  T
   7   -453.5124310 -0.380255E-07  0.384E-05    0.79     159.7  T
   8   -453.5124310 -0.769433E-09  0.173E-05    0.79     354.2  T
     SCC iter.                  ...        0 min,  2.490 sec
     gradient                   ...        0 min,  0.735 sec
 * total energy  :  -445.8279255 Eh     change       -0.2715096E-02 Eh
   gradient norm :     0.0204615 Eh/α   predicted    -0.3124718E-02 (  15.09%)
   displ. norm   :     0.6661397 α      lambda       -0.7360714E-02
   maximum displ.:     0.3739807 α      in ANC's #60, #76, #54, ...

........................................................................
.............................. CYCLE   23 ..............................
........................................................................
   1   -453.5377353 -0.453538E+03  0.937E-03    0.79       0.0  T
   2   -453.5377415 -0.620843E-05  0.857E-03    0.79       1.0  T
   3   -453.5377625 -0.210515E-04  0.342E-03    0.79       1.8  T
   4   -453.5377565  0.606457E-05  0.331E-03    0.79       1.9  T
   5   -453.5377632 -0.671457E-05  0.104E-03    0.79       5.9  T
   6   -453.5377638 -0.569937E-06  0.285E-04    0.79      21.5  T
   7   -453.5377638 -0.573917E-07  0.884E-05    0.79      69.3  T
   8   -453.5377638 -0.688692E-08  0.255E-05    0.79     240.8  T
     SCC iter.                  ...        0 min,  2.459 sec
     gradient                   ...        0 min,  0.747 sec
 * total energy  :  -445.8307329 Eh     change       -0.2807359E-02 Eh
   gradient norm :     0.0520287 Eh/α   predicted    -0.5313491E-02 (  89.27%)
   displ. norm   :     0.4825679 α      lambda       -0.5036920E-02
   maximum displ.:     0.2295316 α      in ANC's #61, #54, #76, ...

........................................................................
.............................. CYCLE   24 ..............................
........................................................................
   1   -453.5491971 -0.453549E+03  0.449E-03    0.79       0.0  T
   2   -453.5491982 -0.112433E-05  0.394E-03    0.79       1.6  T
   3   -453.5492032 -0.494787E-05  0.188E-03    0.79       3.3  T
   4   -453.5492017  0.146424E-05  0.163E-03    0.79       3.8  T
   5   -453.5492037 -0.203413E-05  0.414E-04    0.79      14.8  T
   6   -453.5492038 -0.443914E-07  0.192E-04    0.79      31.9  T
   7   -453.5492038 -0.326389E-07  0.418E-05    0.79     146.6  T
     SCC iter.                  ...        0 min,  2.185 sec
     gradient                   ...        0 min,  0.734 sec
 * total energy  :  -445.8339116 Eh     change       -0.3178721E-02 Eh
   gradient norm :     0.0302926 Eh/α   predicted    -0.3104941E-02 (  -2.32%)
   displ. norm   :     0.6191967 α      lambda       -0.5385382E-02
   maximum displ.:     0.2055333 α      in ANC's #54, #61, #59, ...

........................................................................
.............................. CYCLE   25 ..............................
........................................................................
   1   -453.5546299 -0.453555E+03  0.807E-03    0.79       0.0  T
   2   -453.5546368 -0.687961E-05  0.712E-03    0.79       1.0  T
   3   -453.5546520 -0.152285E-04  0.276E-03    0.79       2.2  T
   4   -453.5546487  0.329365E-05  0.259E-03    0.79       2.4  T
   5   -453.5546527 -0.400436E-05  0.759E-04    0.79       8.1  T
   6   -453.5546529 -0.210273E-06  0.302E-04    0.79      20.3  T
   7   -453.5546530 -0.935666E-07  0.928E-05    0.79      66.1  T
   8   -453.5546530 -0.627443E-08  0.279E-05    0.79     219.8  T
     SCC iter.                  ...        0 min,  2.497 sec
     gradient                   ...        0 min,  0.755 sec
 * total energy  :  -445.8360403 Eh     change       -0.2128652E-02 Eh
   gradient norm :     0.0339738 Eh/α   predicted    -0.3725087E-02 (  75.00%)
   displ. norm   :     0.5818304 α      lambda       -0.4382587E-02
   maximum displ.:     0.1937920 α      in ANC's #61, #54, #36, ...

........................................................................
.............................. CYCLE   26 ..............................
........................................................................
   1   -453.5645565 -0.453565E+03  0.363E-03    0.79       0.0  T
   2   -453.5645552  0.122447E-05  0.338E-03    0.79       1.8  T
   3   -453.5645602 -0.497519E-05  0.141E-03    0.79       4.3  T
   4   -453.5645596  0.576593E-06  0.127E-03    0.79       4.8  T
   5   -453.5645607 -0.101644E-05  0.338E-04    0.79      18.1  T
   6   -453.5645607 -0.622209E-07  0.113E-04    0.79      54.1  T
   7   -453.5645607 -0.100438E-07  0.390E-05    0.79     157.1  T
     SCC iter.                  ...        0 min,  2.155 sec
     gradient                   ...        0 min,  0.806 sec
 * total energy  :  -445.8385153 Eh     change       -0.2474991E-02 Eh
   gradient norm :     0.0257709 Eh/α   predicted    -0.2933105E-02 (  18.51%)
   displ. norm   :     0.6196916 α      lambda       -0.4107931E-02
   maximum displ.:     0.2206009 α      in ANC's #60, #54, #61, ...

........................................................................
.............................. CYCLE   27 ..............................
........................................................................
   1   -453.5773869 -0.453577E+03  0.514E-03    0.78       0.0  T
   2   -453.5773908 -0.395625E-05  0.428E-03    0.78       1.4  T
   3   -453.5773943 -0.349068E-05  0.202E-03    0.78       3.0  T
   4   -453.5773928  0.157298E-05  0.188E-03    0.78       3.3  T
   5   -453.5773946 -0.181449E-05  0.638E-04    0.78       9.6  T
   6   -453.5773949 -0.330585E-06  0.188E-04    0.78      32.7  T
   7   -453.5773949 -0.231827E-07  0.460E-05    0.78     133.3  T
     SCC iter.                  ...        0 min,  2.152 sec
     gradient                   ...        0 min,  0.751 sec
 * total energy  :  -445.8406084 Eh     change       -0.2093156E-02 Eh
   gradient norm :     0.0251188 Eh/α   predicted    -0.2842725E-02 (  35.81%)
   displ. norm   :     0.6291296 α      lambda       -0.2765562E-02
   maximum displ.:     0.2230844 α      in ANC's #54, #20, #61, ...

........................................................................
.............................. CYCLE   28 ..............................
........................................................................
   1   -453.5860014 -0.453586E+03  0.341E-03    0.78       0.0  T
   2   -453.5860019 -0.513125E-06  0.250E-03    0.78       2.5  T
   3   -453.5860037 -0.177279E-05  0.123E-03    0.78       5.0  T
   4   -453.5860036  0.616854E-07  0.106E-03    0.78       5.8  T
   5   -453.5860043 -0.727060E-06  0.283E-04    0.78      21.6  T
   6   -453.5860044 -0.326694E-07  0.116E-04    0.78      53.1  T
   7   -453.5860044 -0.113712E-07  0.402E-05    0.78     152.5  T
     SCC iter.                  ...        0 min,  2.125 sec
     gradient                   ...        0 min,  0.753 sec
 * total energy  :  -445.8426032 Eh     change       -0.1994759E-02 Eh
   gradient norm :     0.0150095 Eh/α   predicted    -0.1930094E-02 (  -3.24%)
   displ. norm   :     0.7128956 α      lambda       -0.2946882E-02
   maximum displ.:     0.2705429 α      in ANC's #54, #20, #23, ...

........................................................................
.............................. CYCLE   29 ..............................
........................................................................
   1   -453.5938626 -0.453594E+03  0.462E-03    0.79       0.0  T
   2   -453.5938658 -0.320107E-05  0.349E-03    0.79       1.8  T
   3   -453.5938688 -0.298544E-05  0.148E-03    0.79       4.2  T
   4   -453.5938682  0.547851E-06  0.134E-03    0.79       4.6  T
   5   -453.5938691 -0.901096E-06  0.435E-04    0.79      14.1  T
   6   -453.5938692 -0.660422E-07  0.165E-04    0.79      37.1  T
   7   -453.5938692 -0.244399E-07  0.512E-05    0.79     119.7  T
     SCC iter.                  ...        0 min,  2.149 sec
     gradient                   ...        0 min,  0.714 sec
 * total energy  :  -445.8441989 Eh     change       -0.1595703E-02 Eh
   gradient norm :     0.0234444 Eh/α   predicted    -0.2222285E-02 (  39.27%)
   displ. norm   :     0.6388823 α      lambda       -0.2461870E-02
   maximum displ.:     0.2359583 α      in ANC's #54, #20, #23, ...

........................................................................
.............................. CYCLE   30 ..............................
........................................................................
   1   -453.6005643 -0.453601E+03  0.279E-03    0.79       0.0  T
   2   -453.6005650 -0.648814E-06  0.225E-03    0.79       2.7  T
   3   -453.6005661 -0.116721E-05  0.975E-04    0.79       6.3  T
   4   -453.6005659  0.216714E-06  0.779E-04    0.79       7.9  T
   5   -453.6005662 -0.303171E-06  0.302E-04    0.79      20.3  T
   6   -453.6005663 -0.593713E-07  0.749E-05    0.79      81.9  T
   7   -453.6005663 -0.327935E-08  0.362E-05    0.79     169.3  T
     SCC iter.                  ...        0 min,  2.224 sec
     gradient                   ...        0 min,  0.720 sec
 * total energy  :  -445.8456059 Eh     change       -0.1407021E-02 Eh
   gradient norm :     0.0203889 Eh/α   predicted    -0.1733371E-02 (  23.19%)
   displ. norm   :     0.6063440 α      lambda       -0.2638136E-02
   maximum displ.:     0.2316268 α      in ANC's #20, #54, #23, ...

........................................................................
.............................. CYCLE   31 ..............................
........................................................................
   1   -453.6080705 -0.453608E+03  0.404E-03    0.79       0.0  T
   2   -453.6080732 -0.276334E-05  0.312E-03    0.79       2.0  T
   3   -453.6080745 -0.125755E-05  0.153E-03    0.79       4.0  T
   4   -453.6080742  0.304349E-06  0.107E-03    0.79       5.7  T
   5   -453.6080745 -0.359040E-06  0.380E-04    0.79      16.1  T
   6   -453.6080747 -0.115618E-06  0.107E-04    0.79      57.1  T
   7   -453.6080747 -0.686765E-08  0.309E-05    0.79     198.2  T
     SCC iter.                  ...        0 min,  2.060 sec
     gradient                   ...        0 min,  0.698 sec
 * total energy  :  -445.8471756 Eh     change       -0.1569743E-02 Eh
   gradient norm :     0.0171130 Eh/α   predicted    -0.1804028E-02 (  14.93%)
   displ. norm   :     0.6696180 α      lambda       -0.1903837E-02
   maximum displ.:     0.2581089 α      in ANC's #54, #20, #23, ...

........................................................................
.............................. CYCLE   32 ..............................
........................................................................
   1   -453.6074683 -0.453607E+03  0.179E-03    0.79       0.0  T
   2   -453.6074688 -0.484335E-06  0.105E-03    0.79       5.8  T
   3   -453.6074690 -0.225346E-06  0.664E-04    0.79       9.2  T
   4   -453.6074691 -0.117191E-06  0.381E-04    0.79      16.1  T
   5   -453.6074692 -0.392180E-07  0.167E-04    0.79      36.7  T
   6   -453.6074692 -0.160356E-07  0.655E-05    0.79      93.6  T
     SCC iter.                  ...        0 min,  1.728 sec
     gradient                   ...        0 min,  0.641 sec
 * total energy  :  -445.8483887 Eh     change       -0.1213087E-02 Eh
   gradient norm :     0.0148832 Eh/α   predicted    -0.1378746E-02 (  13.66%)
   displ. norm   :     0.6737437 α      lambda       -0.2245731E-02
   maximum displ.:     0.2769631 α      in ANC's #20, #54, #23, ...

........................................................................
.............................. CYCLE   33 ..............................
........................................................................
   1   -453.6070372 -0.453607E+03  0.264E-03    0.79       0.0  T
   2   -453.6070383 -0.114106E-05  0.187E-03    0.79       3.3  T
   3   -453.6070389 -0.627771E-06  0.997E-04    0.79       6.1  T
   4   -453.6070389  0.130926E-07  0.781E-04    0.79       7.8  T
   5   -453.6070392 -0.252089E-06  0.319E-04    0.79      19.2  T
   6   -453.6070392 -0.654394E-07  0.893E-05    0.79      68.7  T
   7   -453.6070392 -0.549596E-08  0.339E-05    0.79     181.0  T
     SCC iter.                  ...        0 min,  1.988 sec
     gradient                   ...        0 min,  0.636 sec
 * total energy  :  -445.8499733 Eh     change       -0.1584529E-02 Eh
   gradient norm :     0.0125601 Eh/α   predicted    -0.1632579E-02 (   3.03%)
   displ. norm   :     0.7460885 α      lambda       -0.1535226E-02
   maximum displ.:     0.3310708 α      in ANC's #20, #54, #23, ...

........................................................................
.............................. CYCLE   34 ..............................
........................................................................
   1   -453.6069276 -0.453607E+03  0.217E-03    0.79       0.0  T
   2   -453.6069281 -0.519907E-06  0.130E-03    0.79       4.7  T
   3   -453.6069283 -0.184893E-06  0.944E-04    0.79       6.5  T
   4   -453.6069288 -0.466353E-06  0.510E-04    0.79      12.0  T
   5   -453.6069289 -0.105697E-06  0.184E-04    0.79      33.3  T
   6   -453.6069289 -0.144325E-07  0.603E-05    0.79     101.7  T
     SCC iter.                  ...        0 min,  1.689 sec
     gradient                   ...        0 min,  0.637 sec
 * total energy  :  -445.8513294 Eh     change       -0.1356110E-02 Eh
   gradient norm :     0.0094281 Eh/α   predicted    -0.1194904E-02 ( -11.89%)
   displ. norm   :     0.7987723 α      lambda       -0.1654218E-02
   maximum displ.:     0.3744901 α      in ANC's #20, #23, #52, ...

........................................................................
.............................. CYCLE   35 ..............................
........................................................................
   1   -453.6078854 -0.453608E+03  0.294E-03    0.79       0.0  T
   2   -453.6078866 -0.117045E-05  0.190E-03    0.79       3.2  T
   3   -453.6078876 -0.937902E-06  0.110E-03    0.79       5.6  T
   4   -453.6078878 -0.273924E-06  0.754E-04    0.79       8.1  T
   5   -453.6078881 -0.238902E-06  0.340E-04    0.79      18.0  T
   6   -453.6078881 -0.571551E-07  0.858E-05    0.79      71.5  T
   7   -453.6078881 -0.376798E-08  0.418E-05    0.79     146.6  T
     SCC iter.                  ...        0 min,  2.036 sec
     gradient                   ...        0 min,  0.650 sec
 * total energy  :  -445.8524522 Eh     change       -0.1122806E-02 Eh
   gradient norm :     0.0107773 Eh/α   predicted    -0.1354839E-02 (  20.67%)
   displ. norm   :     0.7010948 α      lambda       -0.1657540E-02
   maximum displ.:     0.3439245 α      in ANC's #20, #52, #23, ...

........................................................................
.............................. CYCLE   36 ..............................
........................................................................
   1   -453.6088846 -0.453609E+03  0.273E-03    0.78       0.0  T
   2   -453.6088859 -0.132749E-05  0.172E-03    0.78       3.6  T
   3   -453.6088865 -0.593024E-06  0.885E-04    0.78       6.9  T
   4   -453.6088865  0.499562E-07  0.653E-04    0.78       9.4  T
   5   -453.6088866 -0.127820E-06  0.320E-04    0.78      19.2  T
   6   -453.6088867 -0.716621E-07  0.827E-05    0.78      74.1  T
   7   -453.6088867 -0.379305E-08  0.344E-05    0.78     178.4  T
     SCC iter.                  ...        0 min,  2.153 sec
     gradient                   ...        0 min,  0.736 sec
 * total energy  :  -445.8535613 Eh     change       -0.1109157E-02 Eh
   gradient norm :     0.0106541 Eh/α   predicted    -0.1236138E-02 (  11.45%)
   displ. norm   :     0.6894219 α      lambda       -0.1311734E-02
   maximum displ.:     0.3496105 α      in ANC's #20, #52, #23, ...

........................................................................
.............................. CYCLE   37 ..............................
........................................................................
   1   -453.6084364 -0.453608E+03  0.235E-03    0.78       0.0  T
   2   -453.6084373 -0.914953E-06  0.145E-03    0.78       4.2  T
   3   -453.6084378 -0.490711E-06  0.775E-04    0.78       7.9  T
   4   -453.6084379 -0.433333E-07  0.507E-04    0.78      12.1  T
   5   -453.6084379 -0.514850E-07  0.270E-04    0.78      22.7  T
   6   -453.6084380 -0.523262E-07  0.858E-05    0.78      71.4  T
   7   -453.6084380 -0.536448E-08  0.260E-05    0.78     235.9  T
     SCC iter.                  ...        0 min,  2.117 sec
     gradient                   ...        0 min,  0.723 sec
 * total energy  :  -445.8544586 Eh     change       -0.8973111E-03 Eh
   gradient norm :     0.0079614 Eh/α   predicted    -0.9676043E-03 (   7.83%)
   displ. norm   :     0.6775246 α      lambda       -0.1068770E-02
   maximum displ.:     0.3480883 α      in ANC's #20, #52, #23, ...

........................................................................
.............................. CYCLE   38 ..............................
........................................................................
   1   -453.6120163 -0.453612E+03  0.199E-03    0.78       0.0  T
   2   -453.6120169 -0.590510E-06  0.112E-03    0.78       5.5  T
   3   -453.6120171 -0.208668E-06  0.687E-04    0.78       8.9  T
   4   -453.6120171 -0.555043E-07  0.398E-04    0.78      15.4  T
   5   -453.6120172 -0.440698E-07  0.195E-04    0.78      31.5  T
   6   -453.6120172 -0.310811E-07  0.642E-05    0.78      95.6  T
     SCC iter.                  ...        0 min,  1.824 sec
     gradient                   ...        0 min,  0.746 sec
 * total energy  :  -445.8553772 Eh     change       -0.9185229E-03 Eh
   gradient norm :     0.0063129 Eh/α   predicted    -0.7796922E-03 ( -15.11%)
   displ. norm   :     0.7095476 α      lambda       -0.1064069E-02
   maximum displ.:     0.4042494 α      in ANC's #20, #52, #23, ...

........................................................................
.............................. CYCLE   39 ..............................
........................................................................
   1   -453.6255709 -0.453626E+03  0.234E-03    0.78       0.0  T
   2   -453.6255716 -0.751118E-06  0.149E-03    0.78       4.1  T
   3   -453.6255720 -0.380817E-06  0.909E-04    0.78       6.7  T
   4   -453.6255721 -0.545231E-07  0.553E-04    0.78      11.1  T
   5   -453.6255722 -0.910830E-07  0.283E-04    0.78      21.7  T
   6   -453.6255722 -0.630660E-07  0.582E-05    0.78     105.3  T
   7   -453.6255722 -0.188703E-08  0.251E-05    0.78     244.7  T
     SCC iter.                  ...        0 min,  2.117 sec
     gradient                   ...        0 min,  0.723 sec
 * total energy  :  -445.8562983 Eh     change       -0.9211141E-03 Eh
   gradient norm :     0.0053373 Eh/α   predicted    -0.7998940E-03 ( -13.16%)
   displ. norm   :     0.7377557 α      lambda       -0.9682449E-03
   maximum displ.:     0.4339938 α      in ANC's #20, #52, #23, ...

........................................................................
.............................. CYCLE   40 ..............................
........................................................................
   1   -453.6355474 -0.453636E+03  0.231E-03    0.78       0.0  T
   2   -453.6355480 -0.583895E-06  0.144E-03    0.78       4.2  T
   3   -453.6355484 -0.384675E-06  0.916E-04    0.78       6.7  T
   4   -453.6355486 -0.203068E-06  0.535E-04    0.78      11.5  T
   5   -453.6355487 -0.937491E-07  0.251E-04    0.78      24.4  T
   6   -453.6355488 -0.500025E-07  0.572E-05    0.78     107.2  T
   7   -453.6355488 -0.137055E-08  0.234E-05    0.78     262.0  T
     SCC iter.                  ...        0 min,  2.063 sec
     gradient                   ...        0 min,  0.723 sec
 * total energy  :  -445.8571553 Eh     change       -0.8570232E-03 Eh
   gradient norm :     0.0056423 Eh/α   predicted    -0.7476281E-03 ( -12.76%)
   displ. norm   :     0.7253501 α      lambda       -0.8624774E-03
   maximum displ.:     0.4359132 α      in ANC's #20, #52, #23, ...

........................................................................
.............................. CYCLE   41 ..............................
........................................................................
   1   -453.6410227 -0.453641E+03  0.195E-03    0.78       0.0  T
   2   -453.6410232 -0.554844E-06  0.120E-03    0.78       5.1  T
   3   -453.6410235 -0.253791E-06  0.737E-04    0.78       8.3  T
   4   -453.6410235 -0.517767E-07  0.395E-04    0.78      15.5  T
   5   -453.6410236 -0.520815E-07  0.208E-04    0.78      29.5  T
   6   -453.6410236 -0.322938E-07  0.455E-05    0.78     134.9  T
   7   -453.6410236 -0.679506E-09  0.230E-05    0.78     266.8  T
     SCC iter.                  ...        0 min,  2.107 sec
     gradient                   ...        0 min,  0.723 sec
 * total energy  :  -445.8579286 Eh     change       -0.7733149E-03 Eh
   gradient norm :     0.0057821 Eh/α   predicted    -0.6581330E-03 ( -14.89%)
   displ. norm   :     0.7002337 α      lambda       -0.7778254E-03
   maximum displ.:     0.4318359 α      in ANC's #20, #52, #23, ...

........................................................................
.............................. CYCLE   42 ..............................
........................................................................
   1   -453.6426273 -0.453643E+03  0.199E-03    0.78       0.0  T
   2   -453.6426279 -0.622286E-06  0.118E-03    0.78       5.2  T
   3   -453.6426282 -0.300153E-06  0.665E-04    0.78       9.2  T
   4   -453.6426283 -0.581249E-07  0.358E-04    0.78      17.1  T
   5   -453.6426283 -0.253386E-07  0.191E-04    0.78      32.1  T
   6   -453.6426283 -0.313965E-07  0.418E-05    0.78     146.6  T
     SCC iter.                  ...        0 min,  1.831 sec
     gradient                   ...        0 min,  0.731 sec
 * total energy  :  -445.8586283 Eh     change       -0.6997092E-03 Eh
   gradient norm :     0.0052356 Eh/α   predicted    -0.5796147E-03 ( -17.16%)
   displ. norm   :     0.6894996 α      lambda       -0.7264516E-03
   maximum displ.:     0.4373354 α      in ANC's #20, #52, #23, ...
 * RMSD in coord.:     0.7642459 α      energy gain  -0.3753831E-01 Eh

generating ANC from model Hessian ...
Using Lindh-Hessian (1995)
 Shifting diagonal of input Hessian by    1.0004700993973981E-002
 Lowest  eigenvalues of input Hessian
    0.010000    0.010002    0.010003    0.000000    0.000000    0.000000
    0.000000    0.000000    0.000000    0.010005    0.010006    0.010006
    0.010007    0.010008    0.010010    0.010013    0.010017    0.010021
 Highest eigenvalues
    2.785007    2.790346    2.790767    3.006665    3.012685    3.013348


........................................................................
.............................. CYCLE   43 ..............................
........................................................................
   1   -453.6477209 -0.453648E+03  0.197E-03    0.78       0.0  T
   2   -453.6477215 -0.533224E-06  0.122E-03    0.78       5.0  T
   3   -453.6477219 -0.446752E-06  0.693E-04    0.78       8.8  T
   4   -453.6477220 -0.117973E-06  0.464E-04    0.78      13.2  T
   5   -453.6477222 -0.110462E-06  0.192E-04    0.78      32.0  T
   6   -453.6477222 -0.219112E-07  0.577E-05    0.78     106.3  T
     SCC iter.                  ...        0 min,  1.788 sec
     gradient                   ...        0 min,  0.723 sec
 * total energy  :  -445.8592770 Eh     change       -0.6486436E-03 Eh
   gradient norm :     0.0049296 Eh/α   predicted     0.0000000E+00 (-100.00%)
   displ. norm   :     0.1209799 α      lambda       -0.1934974E-03
   maximum displ.:     0.0826247 α      in ANC's #20, #52, #46, ...

........................................................................
.............................. CYCLE   44 ..............................
........................................................................
   1   -453.6471503 -0.453647E+03  0.104E-03    0.78       0.0  T
   2   -453.6471504 -0.960633E-07  0.556E-04    0.78      11.0  T
   3   -453.6471504 -0.422722E-08  0.404E-04    0.78      15.2  T
   4   -453.6471505 -0.580600E-07  0.220E-04    0.78      27.9  T
   5   -453.6471505 -0.186319E-07  0.776E-05    0.78      79.0  T
   6   -453.6471505 -0.411541E-08  0.273E-05    0.78     224.7  T
     SCC iter.                  ...        0 min,  1.816 sec
     gradient                   ...        0 min,  0.724 sec
 * total energy  :  -445.8594040 Eh     change       -0.1270305E-03 Eh
   gradient norm :     0.0040962 Eh/α   predicted    -0.1005176E-03 ( -20.87%)
   displ. norm   :     0.3063986 α      lambda       -0.4734566E-03
   maximum displ.:     0.1968131 α      in ANC's #20, #52, #33, ...

........................................................................
.............................. CYCLE   45 ..............................
........................................................................
   1   -453.6452839 -0.453645E+03  0.279E-03    0.78       0.0  T
   2   -453.6452848 -0.899724E-06  0.140E-03    0.78       4.4  T
   3   -453.6452849 -0.501423E-07  0.982E-04    0.78       6.2  T
   4   -453.6452851 -0.216142E-06  0.588E-04    0.78      10.4  T
   5   -453.6452852 -0.155229E-06  0.228E-04    0.78      26.9  T
   6   -453.6452853 -0.344100E-07  0.684E-05    0.78      89.7  T
   7   -453.6452853 -0.286008E-08  0.250E-05    0.78     245.5  T
     SCC iter.                  ...        0 min,  2.117 sec
     gradient                   ...        0 min,  0.723 sec
 * total energy  :  -445.8597052 Eh     change       -0.3011811E-03 Eh
   gradient norm :     0.0060870 Eh/α   predicted    -0.2589554E-03 ( -14.02%)
   displ. norm   :     0.4507354 α      lambda       -0.6360997E-03
   maximum displ.:     0.2773667 α      in ANC's #20, #52, #33, ...

........................................................................
.............................. CYCLE   46 ..............................
........................................................................
   1   -453.6415142 -0.453642E+03  0.273E-03    0.78       0.0  T
   2   -453.6415151 -0.974308E-06  0.160E-03    0.78       3.8  T
   3   -453.6415158 -0.607059E-06  0.985E-04    0.78       6.2  T
   4   -453.6415160 -0.240938E-06  0.574E-04    0.78      10.7  T
   5   -453.6415161 -0.837601E-07  0.274E-04    0.78      22.4  T
   6   -453.6415161 -0.472077E-07  0.709E-05    0.78      86.4  T
   7   -453.6415161 -0.289549E-08  0.301E-05    0.78     203.9  T
     SCC iter.                  ...        0 min,  2.158 sec
     gradient                   ...        0 min,  0.721 sec
 * total energy  :  -445.8598050 Eh     change       -0.9984041E-04 Eh
   gradient norm :     0.0119009 Eh/α   predicted    -0.3826711E-03 ( 283.28%)
   displ. norm   :     0.2737416 α      lambda       -0.7914395E-03
   maximum displ.:     0.1641504 α      in ANC's #20, #52, #33, ...

........................................................................
.............................. CYCLE   47 ..............................
........................................................................
   1   -453.6426950 -0.453643E+03  0.185E-03    0.78       0.0  T
   2   -453.6426954 -0.428401E-06  0.106E-03    0.77       5.8  T
   3   -453.6426955 -0.127154E-06  0.652E-04    0.77       9.4  T
   4   -453.6426956 -0.379367E-07  0.411E-04    0.77      14.9  T
   5   -453.6426957 -0.867234E-07  0.194E-04    0.77      31.6  T
   6   -453.6426957 -0.203802E-07  0.473E-05    0.77     129.7  T
     SCC iter.                  ...        0 min,  1.809 sec
     gradient                   ...        0 min,  0.691 sec
 * total energy  :  -445.8602616 Eh     change       -0.4565650E-03 Eh
   gradient norm :     0.0082405 Eh/α   predicted    -0.4253733E-03 (  -6.83%)
   displ. norm   :     0.3492385 α      lambda       -0.7582296E-03
   maximum displ.:     0.2072853 α      in ANC's #20, #52, #38, ...

........................................................................
.............................. CYCLE   48 ..............................
........................................................................
   1   -453.6448774 -0.453645E+03  0.315E-03    0.78       0.0  T
   2   -453.6448786 -0.122662E-05  0.154E-03    0.78       4.0  T
   3   -453.6448786 -0.665690E-07  0.966E-04    0.78       6.3  T
   4   -453.6448787 -0.768521E-07  0.620E-04    0.78       9.9  T
   5   -453.6448789 -0.173344E-06  0.275E-04    0.78      22.3  T
   6   -453.6448789 -0.476529E-07  0.804E-05    0.78      76.2  T
   7   -453.6448790 -0.463808E-08  0.293E-05    0.78     209.5  T
     SCC iter.                  ...        0 min,  2.284 sec
     gradient                   ...        0 min,  0.702 sec
 * total energy  :  -445.8603243 Eh     change       -0.6269765E-04 Eh
   gradient norm :     0.0086339 Eh/α   predicted    -0.4253574E-03 ( 578.43%)
   displ. norm   :     0.2587931 α      lambda       -0.7822743E-03
   maximum displ.:     0.1533327 α      in ANC's #20, #52, #46, ...

........................................................................
.............................. CYCLE   49 ..............................
........................................................................
   1   -453.6476332 -0.453648E+03  0.105E-03    0.78       0.0  T
   2   -453.6476333 -0.106549E-06  0.710E-04    0.78       8.6  T
   3   -453.6476333 -0.414348E-07  0.419E-04    0.78      14.6  T
   4   -453.6476333  0.496033E-08  0.272E-04    0.78      22.6  T
   5   -453.6476334 -0.472172E-07  0.114E-04    0.78      53.8  T
   6   -453.6476334 -0.829425E-08  0.281E-05    0.78     218.2  T
     SCC iter.                  ...        0 min,  1.746 sec
     gradient                   ...        0 min,  0.695 sec
 * total energy  :  -445.8607131 Eh     change       -0.3887837E-03 Eh
   gradient norm :     0.0065737 Eh/α   predicted    -0.4173331E-03 (   7.34%)
   displ. norm   :     0.3436241 α      lambda       -0.7097068E-03
   maximum displ.:     0.2023242 α      in ANC's #20, #52, #33, ...

........................................................................
.............................. CYCLE   50 ..............................
........................................................................
   1   -453.6473070 -0.453647E+03  0.127E-03    0.78       0.0  T
   2   -453.6473071 -0.162071E-06  0.717E-04    0.78       8.5  T
   3   -453.6473071 -0.184201E-08  0.423E-04    0.78      14.5  T
   4   -453.6473071  0.687180E-09  0.260E-04    0.78      23.6  T
   5   -453.6473072 -0.332263E-07  0.840E-05    0.78      73.0  T
   6   -453.6473072 -0.549556E-08  0.261E-05    0.78     234.6  T
     SCC iter.                  ...        0 min,  1.752 sec
     gradient                   ...        0 min,  0.662 sec
 * total energy  :  -445.8608307 Eh     change       -0.1176008E-03 Eh
   gradient norm :     0.0072525 Eh/α   predicted    -0.3967579E-03 ( 237.38%)
   displ. norm   :     0.2905809 α      lambda       -0.7180621E-03
   maximum displ.:     0.1733174 α      in ANC's #20, #52, #33, ...

........................................................................
.............................. CYCLE   51 ..............................
........................................................................
   1   -453.6487758 -0.453649E+03  0.108E-03    0.78       0.0  T
   2   -453.6487759 -0.896572E-07  0.723E-04    0.78       8.5  T
   3   -453.6487760 -0.875899E-07  0.442E-04    0.78      13.9  T
   4   -453.6487760  0.859751E-08  0.254E-04    0.78      24.1  T
   5   -453.6487760 -0.440052E-07  0.116E-04    0.78      53.0  T
   6   -453.6487760 -0.817829E-08  0.299E-05    0.78     205.0  T
     SCC iter.                  ...        0 min,  1.686 sec
     gradient                   ...        0 min,  0.707 sec
 * total energy  :  -445.8609690 Eh     change       -0.1383024E-03 Eh
   gradient norm :     0.0076943 Eh/α   predicted    -0.3893508E-03 ( 181.52%)
   displ. norm   :     0.2926825 α      lambda       -0.1038268E-02
   maximum displ.:     0.1607511 α      in ANC's #20, #38, #52, ...

........................................................................
.............................. CYCLE   52 ..............................
........................................................................
   1   -453.6532080 -0.453653E+03  0.194E-03    0.78       0.0  T
   2   -453.6532084 -0.398894E-06  0.105E-03    0.78       5.9  T
   3   -453.6532085 -0.491310E-07  0.668E-04    0.78       9.2  T
   4   -453.6532085 -0.444944E-07  0.410E-04    0.78      15.0  T
   5   -453.6532086 -0.901605E-07  0.156E-04    0.78      39.4  T
   6   -453.6532086 -0.132380E-07  0.477E-05    0.78     128.5  T
     SCC iter.                  ...        0 min,  1.724 sec
     gradient                   ...        0 min,  0.691 sec
 * total energy  :  -445.8613137 Eh     change       -0.3447132E-03 Eh
   gradient norm :     0.0069465 Eh/α   predicted    -0.5636092E-03 (  63.50%)
   displ. norm   :     0.2848362 α      lambda       -0.5067559E-03
   maximum displ.:     0.1806596 α      in ANC's #20, #52, #33, ...

........................................................................
.............................. CYCLE   53 ..............................
........................................................................
   1   -453.6540374 -0.453654E+03  0.777E-04    0.78       0.0  T
   2   -453.6540375 -0.844823E-07  0.404E-04    0.78      15.2  T
   3   -453.6540375 -0.269002E-07  0.238E-04    0.78      25.7  T
   4   -453.6540375 -0.183542E-08  0.143E-04    0.78      42.9  T
   5   -453.6540375 -0.758405E-08  0.652E-05    0.78      94.1  T
     SCC iter.                  ...        0 min,  1.398 sec
     gradient                   ...        0 min,  0.654 sec
 * total energy  :  -445.8615810 Eh     change       -0.2673160E-03 Eh
   gradient norm :     0.0055173 Eh/α   predicted    -0.2739363E-03 (   2.48%)
   displ. norm   :     0.4180837 α      lambda       -0.6674130E-03
   maximum displ.:     0.2614639 α      in ANC's #20, #52, #33, ...

........................................................................
.............................. CYCLE   54 ..............................
........................................................................
   1   -453.6540293 -0.453654E+03  0.147E-03    0.78       0.0  T
[...]
    22   6 C       23   6 C                                       1.3676701
    23   6 C       24   6 C                                       1.4221456
    21   6 C       25   7 N                                       1.3625482
    24   6 C       25   7 N                                       1.3706603
    24   6 C       26   6 C                                       1.3995604
    27   6 C       28   6 C                                       1.3975012
    28   6 C       29   6 C                                       1.3833199
    29   6 C       30   6 C                                       1.3974138
    30   6 C       31   7 N                                       1.3836986
    30   6 C       32   6 C                                       1.3973465
    27   6 C       33   6 C                                       1.3974303
    32   6 C       33   6 C                                       1.3834840
    26   6 C       34   6 C                                       1.4001536
    35   6 C       36   6 C                                       1.3486808
     1   6 C       37   6 C                                       1.3886902
    36   6 C       37   6 C                                       1.4517445 (max)
    34   6 C       38   7 N                                       1.3539685
    37   6 C       38   7 N                                       1.3559834
     1   6 C       39   1 H                                       1.0855128
     3   6 C       40   1 H                                       1.0784338
     4   6 C       41   1 H                                       1.0779337
     6   7 N       42   1 H                                       1.0145328
     9   6 C       43   1 H                                       1.0844740
    10   6 C       44   1 H                                       1.0845287
    12   7 N       45   1 H                                       1.0074997
    12   7 N       46   1 H                                       1.0075146
    13   6 C       47   1 H                                       1.0845801
    14   6 C       48   1 H                                       1.0846604
    16   6 C       49   1 H                                       1.0780103
    17   6 C       50   1 H                                       1.0783345
    22   6 C       51   1 H                                       1.0780940
    23   6 C       52   1 H                                       1.0777512
    25   7 N       53   1 H                                       1.0147139
    28   6 C       54   1 H                                       1.0844935
    29   6 C       55   1 H                                       1.0845671
    31   7 N       56   1 H                                       1.0074585
    31   7 N       57   1 H                                       1.0074399
    32   6 C       58   1 H                                       1.0845660
    33   6 C       59   1 H                                       1.0846444
    35   6 C       60   1 H                                       1.0782150
    36   6 C       61   1 H                                       1.0789183
    62   6 C       63   6 C                                       1.3892141
    63   6 C       64   6 C                                       1.4227480
    64   6 C       65   6 C                                       1.3669740
    65   6 C       66   6 C                                       1.4236122
    63   6 C       67   7 N                                       1.3664120
    66   6 C       67   7 N                                       1.3662099
    66   6 C       68   6 C                                       1.4005721
    69   6 C       70   6 C                                       1.3972077
    70   6 C       71   6 C                                       1.3833767
    71   6 C       72   6 C                                       1.3973327
    72   6 C       73   7 N                                       1.3840203
    72   6 C       74   6 C                                       1.3972389
    69   6 C       75   6 C                                       1.3970788
    74   6 C       75   6 C                                       1.3836715
    68   6 C       76   6 C                                       1.3971609
    76   6 C       77   6 C                                       1.4515970
    77   6 C       78   6 C                                       1.3493625
    76   6 C       79   7 N                                       1.3622772
    78   6 C       80   6 C                                       1.4497937
    79   7 N       80   6 C                                       1.3477921
    80   6 C       81   6 C                                       1.4105573
    81   6 C       82   6 C                                       1.4083681
    82   6 C       83   6 C                                       1.4197222
    83   6 C       84   6 C                                       1.3676866
    84   6 C       85   6 C                                       1.4221782
    82   6 C       86   7 N                                       1.3625756
    85   6 C       86   7 N                                       1.3706750
    85   6 C       87   6 C                                       1.3995084
    88   6 C       89   6 C                                       1.3975039
    89   6 C       90   6 C                                       1.3833081
    90   6 C       91   6 C                                       1.3974060
    91   6 C       92   7 N                                       1.3836646
    91   6 C       93   6 C                                       1.3973592
    88   6 C       94   6 C                                       1.3973926
    93   6 C       94   6 C                                       1.3835010
    87   6 C       95   6 C                                       1.4002113
    96   6 C       97   6 C                                       1.3486613
    62   6 C       98   6 C                                       1.3886511
    97   6 C       98   6 C                                       1.4517176
    95   6 C       99   7 N                                       1.3539131
    98   6 C       99   7 N                                       1.3560755
    62   6 C      100   1 H                                       1.0855139
    64   6 C      101   1 H                                       1.0784343
    65   6 C      102   1 H                                       1.0779430
    67   7 N      103   1 H                                       1.0145470
    70   6 C      104   1 H                                       1.0844720
    71   6 C      105   1 H                                       1.0845287
    73   7 N      106   1 H                                       1.0075195
    73   7 N      107   1 H                                       1.0075320
    74   6 C      108   1 H                                       1.0845808
    75   6 C      109   1 H                                       1.0846594
    77   6 C      110   1 H                                       1.0779935
    78   6 C      111   1 H                                       1.0783153
    83   6 C      112   1 H                                       1.0781051
    84   6 C      113   1 H                                       1.0777574
    86   7 N      114   1 H                                       1.0147191
    89   6 C      115   1 H                                       1.0844932
    90   6 C      116   1 H                                       1.0845652
    92   7 N      117   1 H                                       1.0074448
    92   7 N      118   1 H                                       1.0074255
    93   6 C      119   1 H                                       1.0845687
    94   6 C      120   1 H                                       1.0846437
    96   6 C      121   1 H                                       1.0782072
    97   6 C      122   1 H                                       1.0789165
   123   6 C      124   6 C                                       1.2251121
   125   6 C      126   6 C                                       1.2311455
   127   6 C      128   6 C                                       1.2313160
   129   6 C      130   6 C                                       1.2252672
   131   6 C      132   6 C                                       1.2254557
   133   6 C      134   6 C                                       1.2314779
   135   6 C      136   6 C                                       1.2314958
   137   6 C      138   6 C                                       1.2254651
   139   6 C      140   6 C                                       1.2253340
   141   6 C      142   6 C                                       1.2312388
   143   6 C      144   6 C                                       1.2311930
   145   6 C      146   6 C                                       1.2250909
   147   6 C      148   6 C                                       1.4091551
   148   6 C      149   6 C                                       1.4183515
   149   6 C      150   6 C                                       1.3686770
   150   6 C      151   6 C                                       1.4208639
   148   6 C      152   7 N                                       1.3626979
   151   6 C      152   7 N                                       1.3697158
   151   6 C      153   6 C                                       1.4013266
   154   6 C      155   6 C                                       1.3973885
   155   6 C      156   6 C                                       1.3832307
   156   6 C      157   6 C                                       1.3974631
   157   6 C      158   7 N                                       1.3832941
   157   6 C      159   6 C                                       1.3974268
   154   6 C      160   6 C                                       1.3972838
   159   6 C      160   6 C                                       1.3834675
   153   6 C      161   6 C                                       1.3965409
   161   6 C      162   6 C                                       1.4516076
   162   6 C      163   6 C                                       1.3495224
   161   6 C      164   7 N                                       1.3620668
   163   6 C      165   6 C                                       1.4489096
   164   7 N      165   6 C                                       1.3479688
   165   6 C      166   6 C                                       1.4101118
   166   6 C      167   6 C                                       1.4090588
   167   6 C      168   6 C                                       1.4182685
   168   6 C      169   6 C                                       1.3686107
   169   6 C      170   6 C                                       1.4209955
   167   6 C      171   7 N                                       1.3625604
   170   6 C      171   7 N                                       1.3697718
   170   6 C      172   6 C                                       1.4012335
   173   6 C      174   6 C                                       1.3973685
   174   6 C      175   6 C                                       1.3834072
   175   6 C      176   6 C                                       1.3974126
   176   6 C      177   7 N                                       1.3833676
   176   6 C      178   6 C                                       1.3974522
   173   6 C      179   6 C                                       1.3973336
   178   6 C      179   6 C                                       1.3832777
   172   6 C      180   6 C                                       1.3967570
   180   6 C      181   6 C                                       1.4515442
   181   6 C      182   6 C                                       1.3495965
   147   6 C      183   6 C                                       1.4099204
   182   6 C      183   6 C                                       1.4489206
   180   6 C      184   7 N                                       1.3618490
   183   6 C      184   7 N                                       1.3483617
   149   6 C      185   1 H                                       1.0780489
   150   6 C      186   1 H                                       1.0777126
   152   7 N      187   1 H                                       1.0145149
   155   6 C      188   1 H                                       1.0844647
   156   6 C      189   1 H                                       1.0845092
   158   7 N      190   1 H                                       1.0074278
   158   7 N      191   1 H                                       1.0073590
   159   6 C      192   1 H                                       1.0845483
   160   6 C      193   1 H                                       1.0846237
   162   6 C      194   1 H                                       1.0779630
   163   6 C      195   1 H                                       1.0783216
   168   6 C      196   1 H                                       1.0780477
   169   6 C      197   1 H                                       1.0776951
   171   7 N      198   1 H                                       1.0145029
   174   6 C      199   1 H                                       1.0846361
   175   6 C      200   1 H                                       1.0845426
   177   7 N      201   1 H                                       1.0074030
   177   7 N      202   1 H                                       1.0073814
   178   6 C      203   1 H                                       1.0845118
   179   6 C      204   1 H                                       1.0844511
   181   6 C      205   1 H                                       1.0779851
   182   6 C      206   1 H                                       1.0783399
   207   6 C      208   6 C                                       1.4090275
   208   6 C      209   6 C                                       1.4182648
   209   6 C      210   6 C                                       1.3686111
   210   6 C      211   6 C                                       1.4209619
   208   6 C      212   7 N                                       1.3625529
   211   6 C      212   7 N                                       1.3697126
   211   6 C      213   6 C                                       1.4012079
   214   6 C      215   6 C                                       1.3972561
   215   6 C      216   6 C                                       1.3833222
   216   6 C      217   6 C                                       1.3974433
   217   6 C      218   7 N                                       1.3834441
   217   6 C      219   6 C                                       1.3973881
   214   6 C      220   6 C                                       1.3973587
   219   6 C      220   6 C                                       1.3834011
   213   6 C      221   6 C                                       1.3966197
   221   6 C      222   6 C                                       1.4515298
   222   6 C      223   6 C                                       1.3495389
   221   6 C      224   7 N                                       1.3619572
   223   6 C      225   6 C                                       1.4489951
   224   7 N      225   6 C                                       1.3482514
   225   6 C      226   6 C                                       1.4100316
   226   6 C      227   6 C                                       1.4090522
   227   6 C      228   6 C                                       1.4183490
   228   6 C      229   6 C                                       1.3686754
   229   6 C      230   6 C                                       1.4209022
   227   6 C      231   7 N                                       1.3627401
   230   6 C      231   7 N                                       1.3697414
   230   6 C      232   6 C                                       1.4013146
   233   6 C      234   6 C                                       1.3972336
   234   6 C      235   6 C                                       1.3835115
   235   6 C      236   6 C                                       1.3974048
   236   6 C      237   7 N                                       1.3832935
   236   6 C      238   6 C                                       1.3974667
   233   6 C      239   6 C                                       1.3974102
   238   6 C      239   6 C                                       1.3832073
   232   6 C      240   6 C                                       1.3965848
   240   6 C      241   6 C                                       1.4516314
   241   6 C      242   6 C                                       1.3495032
   207   6 C      243   6 C                                       1.4101148
   242   6 C      243   6 C                                       1.4488988
   240   6 C      244   7 N                                       1.3620785
   243   6 C      244   7 N                                       1.3480016
   209   6 C      245   1 H                                       1.0780484
   210   6 C      246   1 H                                       1.0776968
   212   7 N      247   1 H                                       1.0145096
   215   6 C      248   1 H                                       1.0844516
   216   6 C      249   1 H                                       1.0845137
   218   7 N      250   1 H                                       1.0074200
   218   7 N      251   1 H                                       1.0074080
   219   6 C      252   1 H                                       1.0845471
   220   6 C      253   1 H                                       1.0846381
   222   6 C      254   1 H                                       1.0779726
   223   6 C      255   1 H                                       1.0783245
   228   6 C      256   1 H                                       1.0780592
   229   6 C      257   1 H                                       1.0777234
   231   7 N      258   1 H                                       1.0145215
   234   6 C      259   1 H                                       1.0846212
   235   6 C      260   1 H                                       1.0845489
   237   7 N      261   1 H                                       1.0074261
   237   7 N      262   1 H                                       1.0073497 (min)
   238   6 C      263   1 H                                       1.0845029
   239   6 C      264   1 H                                       1.0844589
   241   6 C      265   1 H                                       1.0779529
   242   6 C      266   1 H                                       1.0783202

 * 4 distinct bonds (by element types)

   Z      Z             #   av. dist./Å        max./Å        min./Å
   1 H    6 C          66     1.0814575     1.0855139     1.0776951
   6 C    6 C         138     1.3856947     1.4517445     1.2250909
   1 H    7 N          24     1.0098155     1.0147191     1.0073497
   6 C    7 N          40     1.3652642     1.3840203     1.3477921


optimized geometry written to: xtbopt.xyz


           -------------------------------------------------
          | TOTAL ENERGY             -445.865116512459 Eh   |
          | GRADIENT NORM               0.000496107163 Eh/α |
          | HOMO-LUMO GAP               0.768571246355 eV   |
           -------------------------------------------------

------------------------------------------------------------------------
 * finished run on 2022/07/29 at 22:27:19.008     
------------------------------------------------------------------------
 total:
 * wall-time:     0 d,  0 h,  5 min, 12.738 sec
 *  cpu-time:     0 d,  0 h,  5 min, 10.936 sec
 * ratio c/w:     0.994 speedup
 SCF:
 * wall-time:     0 d,  0 h,  0 min, 16.644 sec
 *  cpu-time:     0 d,  0 h,  0 min, 16.554 sec
 * ratio c/w:     0.995 speedup
 ANC optimizer:
 * wall-time:     0 d,  0 h,  4 min, 55.788 sec
 *  cpu-time:     0 d,  0 h,  4 min, 54.108 sec
 * ratio c/w:     0.994 speedup

