      -----------------------------------------------------------      
     |                   =====================                   |     
     |                           x T B                           |     
     |                   =====================                   |     
     |                         S. Grimme                         |     
     |          Mulliken Center for Theoretical Chemistry        |     
     |                    University of Bonn                     |     
      -----------------------------------------------------------      

   * xtb version 6.5.1 (b24c23e) compiled by 'conda@728c89f4b128' on 2022-07-12

   xtb is free software: you can redistribute it and/or modify it under
   the terms of the GNU Lesser General Public License as published by
   the Free Software Foundation, either version 3 of the License, or
   (at your option) any later version.
   
   xtb is distributed in the hope that it will be useful,
   but WITHOUT ANY WARRANTY; without even the implied warranty of
   MERCHANTABILITY or FITNESS FOR A PARTICULAR PURPOSE.  See the
   GNU Lesser General Public License for more details.
   
   Cite this work as:
   * C. Bannwarth, E. Caldeweyher, S. Ehlert, A. Hansen, P. Pracht,
     J. Seibert, S. Spicher, S. Grimme, WIREs Comput. Mol. Sci., 2020, 11,
     e01493. DOI: 10.1002/wcms.1493
   
   for GFN2-xTB:
   * C. Bannwarth, S. Ehlert and S. Grimme., J. Chem. Theory Comput., 2019,
     15, 1652-1671. DOI: 10.1021/acs.jctc.8b01176
   for GFN1-xTB:
   * S. Grimme, C. Bannwarth, P. Shushkov, J. Chem. Theory Comput., 2017,
     13, 1989-2009. DOI: 10.1021/acs.jctc.7b00118
   for GFN0-xTB:
   * P. Pracht, E. Caldeweyher, S. Ehlert, S. Grimme, ChemRxiv, 2019, preprint.
     DOI: 10.26434/chemrxiv.8326202.v1
   for GFN-FF:
   * S. Spicher and S. Grimme, Angew. Chem. Int. Ed., 2020, 59, 15665-15673.
     DOI: 10.1002/anie.202004239
   
   for ALPB and GBSA implicit solvation:
   * S. Ehlert, M. Stahn, S. Spicher, S. Grimme, J. Chem. Theory Comput.,
     2021, 17, 4250-4261. DOI: 10.1021/acs.jctc.1c00471
   
   for DFT-D4:
   * E. Caldeweyher, C. Bannwarth and S. Grimme, J. Chem. Phys., 2017,
     147, 034112. DOI: 10.1063/1.4993215
   * E. Caldeweyher, S. Ehlert, A. Hansen, H. Neugebauer, S. Spicher,
     C. Bannwarth and S. Grimme, J. Chem. Phys., 2019, 150, 154122.
     DOI: 10.1063/1.5090222
   * E. Caldeweyher, J.-M. Mewes, S. Ehlert and S. Grimme, Phys. Chem. Chem. Phys.
     2020, 22, 8499-8512. DOI: 10.1039/D0CP00502A
   
   for sTDA-xTB:
   * S. Grimme and C. Bannwarth, J. Chem. Phys., 2016, 145, 054103.
     DOI: 10.1063/1.4959605
   
   in the mass-spec context:
   * V. Asgeirsson, C. Bauer and S. Grimme, Chem. Sci., 2017, 8, 4879.
     DOI: 10.1039/c7sc00601b
   * J. Koopman and S. Grimme, ACS Omega 2019, 4, 12, 15120-15133.
     DOI: 10.1021/acsomega.9b02011
   
   for metadynamics refer to:
   * S. Grimme, J. Chem. Theory Comput., 2019, 155, 2847-2862
     DOI: 10.1021/acs.jctc.9b00143
   
   for SPH calculations refer to:
   * S. Spicher and S. Grimme, J. Chem. Theory Comput., 2021, 17, 1701-1714
     DOI: 10.1021/acs.jctc.0c01306
   
   with help from (in alphabetical order)
   P. Atkinson, C. Bannwarth, F. Bohle, G. Brandenburg, E. Caldeweyher
   M. Checinski, S. Dohm, S. Ehlert, S. Ehrlich, I. Gerasimov, C. Hölzer
   A. Katbashev, J. Koopman, C. Lavigne, S. Lehtola, F. März, M. Müller,
   F. Musil, H. Neugebauer, J. Pisarek, C. Plett, P. Pracht, F. Pultar,
   J. Seibert, P. Shushkov, S. Spicher, M. Stahn, M. Steiner, T. Strunk,
   J. Stückrath, T. Rose, and J. Unsleber
   
 * started run on 2022/07/29 at 22:27:19.023     

           -------------------------------------------------
          |                Calculation Setup                |
           -------------------------------------------------

          program call               : xtb xtbopt.xyz --gfn 1 --vipea
          hostname                   : cx3-6-25.cx3.hpc.ic.ac.uk
          coordinate file            : xtbopt.xyz
          omp threads                :                     1

   ID    Z sym.   atoms
    1    6 C      1-5, 7-11, 13-17, 19-24, 26-30, 32-37, 62-66, 68-72, 74-78,
                  80-85, 87-91, 93-98, 123-151, 153-157, 159-163, 165-170,
                  172-176, 178-183, 207-211, 213-217, 219-223, 225-230,
                  232-236, 238-243
    2    7 N      6, 12, 18, 25, 31, 38, 67, 73, 79, 86, 92, 99, 152, 158,
                  164, 171, 177, 184, 212, 218, 224, 231, 237, 244
    3    1 H      39-61, 100-122, 185-206, 245-266

           -------------------------------------------------
          |                 I P E A - x T B                 |
           -------------------------------------------------

        Reference                      10.1039/c7sc00601b
      * Hamiltonian:
        H0-scaling (s, p, d)           2.150000    2.300000    2.000000
        zeta-weighting                 0.000000
      * Dispersion:
        s8                             2.400000
        a1                             0.630000
        a2                             5.000000
        s9                             0.000000
      * Repulsion:
        kExp                           1.500000
        rExp                           1.000000
      * Coulomb:
        alpha                          1.000000
        third order                    atomic
        anisotropic                    false
      * Halogen bond correction:
        rad-scale                      1.300000
        damping                        0.440000


          ...................................................
          :                      SETUP                      :
          :.................................................:
          :  # basis functions                1060          :
          :  # atomic orbitals                1060          :
          :  # shells                          708          :
          :  # electrons                       818          :
          :  # halogen bonds                     0          :
          :  max. iterations                   250          :
          :  Hamiltonian                  GFN1-xTB          :
          :  restarted?                      false          :
          :  GBSA solvation                  false          :
          :  PC potential                    false          :
          :  electronic temp.          300.0000000     K    :
          :  accuracy                    1.0000000          :
          :  -> integral cutoff          0.2500000E+02      :
          :  -> integral neglect         0.1000000E-07      :
          :  -> SCF convergence          0.1000000E-05 Eh   :
          :  -> wf. convergence          0.2000000E-04 e    :
          :  Broyden damping             0.4000000          :
          ...................................................

 iter      E             dE          RMSdq      gap      omega  full diag
   1   -515.3002727 -0.515300E+03  0.103E+01    0.36       0.0  T
   2   -516.4895352 -0.118926E+01  0.641E+00    1.19       1.0  T
   3   -510.0471257  0.644241E+01  0.456E+00    0.41       1.0  T
   4   -517.6556039 -0.760848E+01  0.139E+00    1.13       1.0  T
   5   -518.7965891 -0.114099E+01  0.309E-01    0.98       1.0  T
   6   -518.8503764 -0.537873E-01  0.117E-01    1.00       1.0  T
   7   -518.8550768 -0.470045E-02  0.670E-02    1.00       1.0  T
   8   -518.8571866 -0.210977E-02  0.296E-02    0.99       1.0  T
   9   -518.8573365 -0.149868E-03  0.232E-02    0.99       1.0  T
  10   -518.8575169 -0.180372E-03  0.926E-03    0.99       1.0  T
  11   -518.8575440 -0.271351E-04  0.400E-03    0.99       1.5  T
  12   -518.8575513 -0.732963E-05  0.118E-03    0.99       5.2  T
  13   -518.8575519 -0.565777E-06  0.579E-04    0.99      10.6  T
  14   -518.8575520 -0.129708E-06  0.275E-04    0.99      22.3  T
  15   -518.8575520 -0.316307E-07  0.109E-04    0.99      56.0  T
  16   -518.8575520 -0.604393E-08  0.367E-05    0.99     167.1  T

   *** convergence criteria satisfied after 16 iterations ***

         #    Occupation            Energy/Eh            Energy/eV
      -------------------------------------------------------------
         1        2.0000           -1.0356246             -28.1808
       ...           ...                  ...                  ...
       403        2.0000           -0.3815277             -10.3819
       404        2.0000           -0.3809235             -10.3655
       405        2.0000           -0.3808697             -10.3640
       406        2.0000           -0.3658975              -9.9566
       407        2.0000           -0.3623242              -9.8593
       408        2.0000           -0.3575393              -9.7291
       409        2.0000           -0.3527598              -9.5991 (HOMO)
       410                         -0.3162883              -8.6066 (LUMO)
       411                         -0.3090187              -8.4088
       412                         -0.3018794              -8.2146
       413                         -0.2988909              -8.1332
       414                         -0.2958916              -8.0516
       ...                                ...                  ...
      1060                        542.9112766           14773.3678
      -------------------------------------------------------------
                  HL-Gap            0.0364715 Eh            0.9924 eV
             Fermi-level           -0.3345212 Eh           -9.1028 eV

 SCC (total)                   0 d,  0 h,  0 min, 10.819 sec
 SCC setup                      ...        0 min,  0.011 sec (  0.105%)
 Dispersion                     ...        0 min,  0.013 sec (  0.122%)
 classical contributions        ...        0 min,  0.004 sec (  0.035%)
 integral evaluation            ...        0 min,  0.763 sec (  7.053%)
 iterations                     ...        0 min,  8.377 sec ( 77.434%)
 molecular gradient             ...        0 min,  1.541 sec ( 14.242%)
 printout                       ...        0 min,  0.109 sec (  1.009%)

         :::::::::::::::::::::::::::::::::::::::::::::::::::::
         ::                     SUMMARY                     ::
         :::::::::::::::::::::::::::::::::::::::::::::::::::::
         :: total energy            -507.875240823558 Eh    ::
         :: gradient norm              0.090765215484 Eh/a0 ::
         :: HOMO-LUMO gap              0.992439795961 eV    ::
         ::.................................................::
         :: SCC energy              -518.857552049907 Eh    ::
         :: -> electrostatic           0.405385786027 Eh    ::
         :: repulsion energy          11.202906806508 Eh    ::
         :: dispersion energy         -0.220595580160 Eh    ::
         :: halogen bond corr.         0.000000000000 Eh    ::
         :: add. restraining           0.000000000000 Eh    ::
         :: total charge               0.000000000056 e     ::
         :::::::::::::::::::::::::::::::::::::::::::::::::::::

           ------------------------------------------------- 
          |        vertical delta SCC IP calculation        |
           ------------------------------------------------- 
   1   -518.4788960 -0.518479E+03  0.750E-02    0.99       0.0  T
   2   -518.4754355  0.346043E-02  0.865E-02    0.91       1.0  T
   3   -518.4834041 -0.796856E-02  0.406E-02    0.98       1.0  T
   4   -518.4833998  0.432615E-05  0.350E-02    0.96       1.0  T
   5   -518.4825999  0.799852E-03  0.348E-02    0.96       1.0  T
   6   -518.4844578 -0.185792E-02  0.158E-02    0.97       1.0  T
   7   -518.4847330 -0.275197E-03  0.963E-03    0.96       1.0  T
   8   -518.4847876 -0.545608E-04  0.388E-03    0.96       1.6  T
   9   -518.4847962 -0.856723E-05  0.107E-03    0.97       5.7  T
  10   -518.4847967 -0.565619E-06  0.434E-04    0.96      14.1  T
  11   -518.4847968 -0.911406E-07  0.211E-04    0.97      29.0  T
  12   -518.4847968 -0.278712E-07  0.802E-05    0.97      76.4  T
  13   -518.4847968 -0.202419E-08  0.391E-05    0.97     156.7  T
     SCC iter.                  ...        0 min,  5.962 sec
     gradient                   ...        0 min,  1.670 sec
------------------------------------------------------------------------
empirical IP shift (eV):    4.8455
delta SCC IP (eV):    5.2977
------------------------------------------------------------------------
           ------------------------------------------------- 
          |        vertical delta SCC EA calculation        |
           ------------------------------------------------- 
   1   -519.1322218 -0.519132E+03  0.136E-01    0.22       0.0  T
   2   -519.1351985 -0.297663E-02  0.128E-01    0.06       1.0  T
   3   -519.1477686 -0.125702E-01  0.740E-02    0.16       1.0  T
   4   -519.1508279 -0.305930E-02  0.512E-02    0.11       1.0  T
   5   -519.1513448 -0.516809E-03  0.291E-02    0.11       1.0  T
   6   -519.1510031  0.341696E-03  0.274E-02    0.12       1.0  T
   7   -519.1508722  0.130836E-03  0.194E-02    0.12       1.0  T
   8   -519.1515237 -0.651508E-03  0.828E-03    0.12       1.0  T
   9   -519.1516501 -0.126392E-03  0.211E-03    0.11       2.9  T
  10   -519.1516528 -0.266779E-05  0.825E-04    0.11       7.4  T
  11   -519.1516532 -0.450222E-06  0.351E-04    0.11      17.5  T
  12   -519.1516533 -0.540156E-07  0.157E-04    0.11      39.0  T
  13   -519.1516533 -0.123842E-07  0.619E-05    0.11      99.1  T
     SCC iter.                  ...        0 min,  6.608 sec
     gradient                   ...        0 min,  1.753 sec
------------------------------------------------------------------------
empirical EA shift (eV):    4.8455
delta SCC EA (eV):    3.1574
------------------------------------------------------------------------
           -------------------------------------------------
          |                Property Printout                |
           -------------------------------------------------

    * Orbital Energies and Occupations

         #    Occupation            Energy/Eh            Energy/eV
      -------------------------------------------------------------
         1        2.0000           -0.9980274             -27.1577
       ...           ...                  ...                  ...
       398        2.0000           -0.3471521              -9.4465
       399        2.0000           -0.3465911              -9.4312
       400        2.0000           -0.3458652              -9.4115
       401        2.0000           -0.3452975              -9.3960
       402        2.0000           -0.3450836              -9.3902
       403        2.0000           -0.3440124              -9.3611
       404        2.0000           -0.3383669              -9.2074
       405        2.0000           -0.3381114              -9.2005
       406        2.0000           -0.3266809              -8.8894
       407        2.0000           -0.3248406              -8.8394
       408        2.0000           -0.3170311              -8.6269
       409        2.0000           -0.3095783              -8.4241
       410        0.9017           -0.2727513              -7.4219 (HOMO)
       411        0.0980           -0.2685371              -7.3073 (LUMO)
       412        0.0002           -0.2627632              -7.1502
       413        0.0000           -0.2597764              -7.0689
       414        0.0000           -0.2594127              -7.0590
       415        0.0000           -0.2565280              -6.9805
       416                         -0.2524254              -6.8688
       417                         -0.2521729              -6.8620
       418                         -0.2292418              -6.2380
       419                         -0.2223509              -6.0505
       420                         -0.2197191              -5.9789
       421                         -0.2181877              -5.9372
       ...                                ...                  ...
      1060                        542.9523759           14774.4862
      -------------------------------------------------------------
                  HL-Gap            0.0042142 Eh            0.1147 eV
             Fermi-level           -0.2809079 Eh           -7.6439 eV

  Mulliken/CM5 charges         n(s)   n(p)   n(d)
     1C    -0.02709 -0.06793   1.085  2.942  0.000
     2C     0.05996  0.12034   1.104  2.836  0.000
     3C    -0.03862 -0.08392   1.079  2.959  0.000
     4C    -0.03432 -0.07930   1.075  2.959  0.000
     5C     0.06053  0.12441   1.100  2.840  0.000
     6N    -0.16129 -0.51416   1.312  3.849  0.000
     7C     0.00827  0.01399   1.092  2.900  0.000
     8C    -0.00672 -0.01528   1.071  2.936  0.000
     9C    -0.02505 -0.07817   1.079  2.946  0.000
    10C    -0.04065 -0.08918   1.068  2.973  0.000
    11C     0.05769  0.10812   1.102  2.840  0.000
    12N    -0.30726 -0.76134   1.331  3.976  0.000
    13C    -0.04165 -0.09017   1.067  2.975  0.000
    14C    -0.02689 -0.07992   1.077  2.950  0.000
    15C     0.05674  0.12468   1.116  2.827  0.000
    16C    -0.03911 -0.08514   1.084  2.955  0.000
    17C    -0.04061 -0.08604   1.089  2.951  0.000
    18N    -0.28760 -0.47422   1.293  3.994  0.000
    19C     0.06279  0.13367   1.129  2.808  0.000
    20C     0.01358  0.02075   1.082  2.904  0.000
    21C     0.06502  0.12998   1.109  2.826  0.000
    22C    -0.03598 -0.08040   1.078  2.958  0.000
    23C    -0.03409 -0.07910   1.074  2.960  0.000
    24C     0.05985  0.12306   1.098  2.842  0.000
    25N    -0.15848 -0.51059   1.315  3.844  0.000
    26C     0.00733  0.01310   1.091  2.901  0.000
    27C    -0.00678 -0.01531   1.071  2.936  0.000
    28C    -0.02578 -0.07891   1.079  2.946  0.000
    29C    -0.04131 -0.08984   1.067  2.974  0.000
    30C     0.05768  0.10817   1.102  2.840  0.000
    31N    -0.30685 -0.76102   1.331  3.976  0.000
    32C    -0.04113 -0.08966   1.067  2.974  0.000
    33C    -0.02623 -0.07928   1.077  2.949  0.000
    34C     0.05824  0.12761   1.119  2.822  0.000
    35C    -0.03941 -0.08543   1.086  2.954  0.000
    36C    -0.04304 -0.08941   1.090  2.953  0.000
    37C     0.05668  0.12231   1.124  2.819  0.000
    38N    -0.29082 -0.47781   1.293  3.998  0.000
    39H     0.02292  0.08194   0.977  0.000  0.000
    40H     0.03371  0.09038   0.966  0.000  0.000
    41H     0.02468  0.08342   0.975  0.000  0.000
    42H     0.16164  0.36996   0.838  0.000  0.000
    43H     0.01987  0.07784   0.980  0.000  0.000
    44H     0.02753  0.08653   0.972  0.000  0.000
    45H     0.16305  0.35396   0.837  0.000  0.000
    46H     0.16378  0.35469   0.836  0.000  0.000
    47H     0.02640  0.08538   0.974  0.000  0.000
    48H     0.01926  0.07720   0.981  0.000  0.000
    49H     0.01640  0.07517   0.984  0.000  0.000
    50H     0.02096  0.07902   0.979  0.000  0.000
    51H     0.03098  0.08911   0.969  0.000  0.000
    52H     0.02554  0.08437   0.974  0.000  0.000
    53H     0.16028  0.36857   0.840  0.000  0.000
    54H     0.01859  0.07658   0.981  0.000  0.000
    55H     0.02637  0.08537   0.974  0.000  0.000
    56H     0.16305  0.35398   0.837  0.000  0.000
    57H     0.16331  0.35425   0.837  0.000  0.000
    58H     0.02745  0.08643   0.973  0.000  0.000
    59H     0.02037  0.07836   0.980  0.000  0.000
    60H     0.01543  0.07412   0.985  0.000  0.000
    61H     0.02381  0.08022   0.976  0.000  0.000
    62C    -0.02710 -0.06794   1.085  2.942  0.000
    63C     0.05995  0.12033   1.104  2.836  0.000
    64C    -0.03864 -0.08393   1.079  2.959  0.000
    65C    -0.03434 -0.07932   1.075  2.959  0.000
    66C     0.06051  0.12440   1.100  2.840  0.000
    67N    -0.16129 -0.51417   1.312  3.849  0.000
    68C     0.00829  0.01400   1.092  2.900  0.000
    69C    -0.00669 -0.01525   1.071  2.936  0.000
    70C    -0.02508 -0.07821   1.079  2.946  0.000
    71C    -0.04067 -0.08920   1.068  2.973  0.000
    72C     0.05765  0.10807   1.102  2.840  0.000
    73N    -0.30732 -0.76136   1.331  3.976  0.000
    74C    -0.04163 -0.09015   1.067  2.975  0.000
    75C    -0.02687 -0.07990   1.077  2.950  0.000
    76C     0.05672  0.12464   1.116  2.827  0.000
    77C    -0.03914 -0.08517   1.084  2.955  0.000
    78C    -0.04062 -0.08605   1.089  2.951  0.000
    79N    -0.28761 -0.47422   1.293  3.994  0.000
    80C     0.06282  0.13372   1.129  2.808  0.000
    81C     0.01352  0.02069   1.082  2.904  0.000
    82C     0.06501  0.12996   1.109  2.826  0.000
    83C    -0.03597 -0.08040   1.078  2.958  0.000
    84C    -0.03410 -0.07911   1.074  2.960  0.000
    85C     0.05986  0.12306   1.098  2.842  0.000
    86N    -0.15851 -0.51062   1.315  3.844  0.000
    87C     0.00732  0.01309   1.091  2.901  0.000
    88C    -0.00677 -0.01531   1.071  2.936  0.000
    89C    -0.02578 -0.07891   1.079  2.946  0.000
    90C    -0.04131 -0.08984   1.067  2.974  0.000
    91C     0.05768  0.10817   1.102  2.840  0.000
    92N    -0.30686 -0.76105   1.331  3.976  0.000
    93C    -0.04115 -0.08968   1.067  2.974  0.000
    94C    -0.02624 -0.07930   1.077  2.949  0.000
    95C     0.05825  0.12762   1.119  2.822  0.000
    96C    -0.03943 -0.08544   1.086  2.954  0.000
    97C    -0.04305 -0.08942   1.090  2.953  0.000
    98C     0.05666  0.12228   1.124  2.819  0.000
    99N    -0.29084 -0.47781   1.293  3.998  0.000
   100H     0.02289  0.08191   0.977  0.000  0.000
   101H     0.03368  0.09035   0.966  0.000  0.000
   102H     0.02465  0.08338   0.975  0.000  0.000
   103H     0.16165  0.36998   0.838  0.000  0.000
   104H     0.01982  0.07778   0.980  0.000  0.000
   105H     0.02745  0.08645   0.973  0.000  0.000
   106H     0.16302  0.35392   0.837  0.000  0.000
   107H     0.16370  0.35460   0.836  0.000  0.000
   108H     0.02641  0.08539   0.974  0.000  0.000
   109H     0.01928  0.07722   0.981  0.000  0.000
   110H     0.01638  0.07517   0.984  0.000  0.000
   111H     0.02095  0.07904   0.979  0.000  0.000
   112H     0.03096  0.08907   0.969  0.000  0.000
   113H     0.02555  0.08438   0.974  0.000  0.000
   114H     0.16028  0.36856   0.840  0.000  0.000
   115H     0.01859  0.07658   0.981  0.000  0.000
   116H     0.02638  0.08537   0.974  0.000  0.000
   117H     0.16306  0.35400   0.837  0.000  0.000
   118H     0.16329  0.35423   0.837  0.000  0.000
   119H     0.02739  0.08638   0.973  0.000  0.000
   120H     0.02034  0.07832   0.980  0.000  0.000
   121H     0.01541  0.07411   0.985  0.000  0.000
   122H     0.02378  0.08020   0.976  0.000  0.000
   123C    -0.02033 -0.02197   1.091  2.929  0.000
   124C    -0.02380 -0.02457   1.060  2.964  0.000
   125C    -0.02056 -0.02066   1.075  2.945  0.000
   126C    -0.01984 -0.01985   1.077  2.943  0.000
   127C    -0.02253 -0.02254   1.075  2.948  0.000
   128C    -0.01758 -0.01767   1.078  2.940  0.000
   129C    -0.02617 -0.02691   1.058  2.968  0.000
   130C    -0.01725 -0.01884   1.095  2.922  0.000
   131C    -0.01896 -0.02054   1.093  2.926  0.000
   132C    -0.02519 -0.02593   1.059  2.966  0.000
   133C    -0.01938 -0.01947   1.076  2.943  0.000
   134C    -0.02147 -0.02148   1.076  2.946  0.000
   135C    -0.02153 -0.02154   1.076  2.946  0.000
   136C    -0.01932 -0.01942   1.077  2.943  0.000
   137C    -0.02523 -0.02597   1.059  2.966  0.000
   138C    -0.01890 -0.02049   1.093  2.926  0.000
   139C    -0.01737 -0.01896   1.095  2.922  0.000
   140C    -0.02623 -0.02698   1.058  2.968  0.000
   141C    -0.01768 -0.01777   1.078  2.940  0.000
   142C    -0.02260 -0.02261   1.075  2.948  0.000
   143C    -0.01994 -0.01995   1.077  2.943  0.000
   144C    -0.02066 -0.02076   1.075  2.945  0.000
   145C    -0.02388 -0.02465   1.060  2.964  0.000
   146C    -0.02043 -0.02207   1.091  2.929  0.000
   147C     0.01047  0.01769   1.079  2.910  0.000
   148C     0.06448  0.12942   1.109  2.827  0.000
   149C    -0.03823 -0.08266   1.076  2.962  0.000
   150C    -0.03471 -0.07970   1.074  2.960  0.000
   151C     0.05827  0.12157   1.095  2.846  0.000
   152N    -0.15801 -0.51038   1.314  3.844  0.000
   153C     0.01070  0.01634   1.093  2.896  0.000
   154C    -0.00606 -0.01467   1.071  2.935  0.000
   155C    -0.02475 -0.07791   1.079  2.945  0.000
   156C    -0.04083 -0.08937   1.067  2.974  0.000
   157C     0.05782  0.10837   1.102  2.840  0.000
   158N    -0.30712 -0.76142   1.331  3.976  0.000
   159C    -0.04134 -0.08987   1.067  2.975  0.000
   160C    -0.02599 -0.07905   1.077  2.949  0.000
   161C     0.05569  0.12361   1.114  2.830  0.000
   162C    -0.03944 -0.08549   1.084  2.955  0.000
   163C    -0.04181 -0.08725   1.089  2.953  0.000
   164N    -0.28739 -0.47361   1.293  3.995  0.000
   165C     0.06235  0.13323   1.129  2.809  0.000
   166C     0.01177  0.01900   1.081  2.908  0.000
   167C     0.06456  0.12952   1.109  2.827  0.000
   168C    -0.03766 -0.08210   1.077  2.961  0.000
   169C    -0.03461 -0.07961   1.074  2.961  0.000
   170C     0.05850  0.12179   1.096  2.846  0.000
   171N    -0.15772 -0.51011   1.314  3.844  0.000
   172C     0.01050  0.01613   1.093  2.896  0.000
   173C    -0.00607 -0.01468   1.071  2.935  0.000
   174C    -0.02592 -0.07900   1.077  2.949  0.000
   175C    -0.04122 -0.08976   1.067  2.975  0.000
   176C     0.05778  0.10833   1.102  2.840  0.000
   177N    -0.30705 -0.76134   1.331  3.976  0.000
   178C    -0.04094 -0.08948   1.067  2.974  0.000
   179C    -0.02486 -0.07800   1.079  2.946  0.000
   180C     0.05568  0.12365   1.114  2.830  0.000
   181C    -0.03950 -0.08554   1.084  2.955  0.000
   182C    -0.04220 -0.08763   1.088  2.954  0.000
   183C     0.06220  0.13301   1.129  2.809  0.000
   184N    -0.28787 -0.47404   1.293  3.995  0.000
   185H     0.02859  0.08668   0.971  0.000  0.000
   186H     0.02381  0.08267   0.976  0.000  0.000
   187H     0.16041  0.36838   0.840  0.000  0.000
   188H     0.01939  0.07739   0.981  0.000  0.000
   189H     0.02671  0.08571   0.973  0.000  0.000
   190H     0.16322  0.35416   0.837  0.000  0.000
   191H     0.16289  0.35386   0.837  0.000  0.000
   192H     0.02649  0.08548   0.974  0.000  0.000
   193H     0.01997  0.07795   0.980  0.000  0.000
   194H     0.01508  0.07392   0.985  0.000  0.000
   195H     0.01938  0.07739   0.981  0.000  0.000
   196H     0.02930  0.08739   0.971  0.000  0.000
   197H     0.02410  0.08301   0.976  0.000  0.000
   198H     0.16037  0.36834   0.840  0.000  0.000
   199H     0.02010  0.07810   0.980  0.000  0.000
   200H     0.02670  0.08569   0.973  0.000  0.000
   201H     0.16305  0.35400   0.837  0.000  0.000
   202H     0.16289  0.35385   0.837  0.000  0.000
   203H     0.02652  0.08552   0.973  0.000  0.000
   204H     0.01926  0.07725   0.981  0.000  0.000
   205H     0.01481  0.07361   0.985  0.000  0.000
   206H     0.01869  0.07670   0.981  0.000  0.000
   207C     0.01175  0.01897   1.081  2.908  0.000
   208C     0.06455  0.12951   1.109  2.827  0.000
   209C    -0.03769 -0.08212   1.077  2.961  0.000
   210C    -0.03463 -0.07962   1.074  2.961  0.000
   211C     0.05849  0.12179   1.096  2.846  0.000
   212N    -0.15771 -0.51010   1.314  3.844  0.000
   213C     0.01052  0.01615   1.093  2.896  0.000
   214C    -0.00604 -0.01466   1.071  2.935  0.000
   215C    -0.02488 -0.07804   1.079  2.946  0.000
   216C    -0.04096 -0.08949   1.067  2.974  0.000
   217C     0.05775  0.10827   1.102  2.840  0.000
   218N    -0.30712 -0.76137   1.331  3.976  0.000
   219C    -0.04121 -0.08974   1.067  2.974  0.000
   220C    -0.02591 -0.07898   1.077  2.949  0.000
   221C     0.05567  0.12362   1.114  2.830  0.000
   222C    -0.03953 -0.08557   1.084  2.955  0.000
   223C    -0.04219 -0.08763   1.088  2.954  0.000
   224N    -0.28789 -0.47404   1.293  3.995  0.000
   225C     0.06224  0.13306   1.129  2.809  0.000
   226C     0.01043  0.01765   1.079  2.910  0.000
   227C     0.06448  0.12941   1.109  2.827  0.000
   228C    -0.03822 -0.08264   1.076  2.962  0.000
   229C    -0.03471 -0.07970   1.074  2.960  0.000
   230C     0.05827  0.12157   1.095  2.846  0.000
   231N    -0.15804 -0.51038   1.314  3.844  0.000
   232C     0.01071  0.01634   1.093  2.896  0.000
   233C    -0.00605 -0.01467   1.071  2.935  0.000
   234C    -0.02601 -0.07907   1.077  2.949  0.000
   235C    -0.04136 -0.08989   1.067  2.975  0.000
   236C     0.05781  0.10836   1.102  2.840  0.000
   237N    -0.30713 -0.76144   1.331  3.976  0.000
   238C    -0.04082 -0.08936   1.067  2.974  0.000
   239C    -0.02475 -0.07792   1.079  2.945  0.000
   240C     0.05569  0.12361   1.114  2.830  0.000
   241C    -0.03945 -0.08550   1.084  2.955  0.000
   242C    -0.04183 -0.08727   1.089  2.953  0.000
   243C     0.06235  0.13323   1.129  2.809  0.000
   244N    -0.28741 -0.47361   1.293  3.995  0.000
   245H     0.02928  0.08736   0.971  0.000  0.000
   246H     0.02407  0.08297   0.976  0.000  0.000
   247H     0.16038  0.36835   0.840  0.000  0.000
   248H     0.01923  0.07721   0.981  0.000  0.000
   249H     0.02646  0.08546   0.974  0.000  0.000
   250H     0.16296  0.35391   0.837  0.000  0.000
   251H     0.16284  0.35379   0.837  0.000  0.000
   252H     0.02669  0.08568   0.973  0.000  0.000
   253H     0.02013  0.07812   0.980  0.000  0.000
   254H     0.01480  0.07361   0.985  0.000  0.000
   255H     0.01870  0.07672   0.981  0.000  0.000
   256H     0.02858  0.08666   0.971  0.000  0.000
   257H     0.02383  0.08269   0.976  0.000  0.000
   258H     0.16041  0.36837   0.840  0.000  0.000
   259H     0.01993  0.07790   0.980  0.000  0.000
   260H     0.02644  0.08543   0.974  0.000  0.000
   261H     0.16322  0.35416   0.837  0.000  0.000
   262H     0.16286  0.35383   0.837  0.000  0.000
   263H     0.02672  0.08573   0.973  0.000  0.000
   264H     0.01939  0.07740   0.981  0.000  0.000
   265H     0.01507  0.07392   0.985  0.000  0.000
   266H     0.01936  0.07737   0.981  0.000  0.000

Wiberg/Mayer (AO) data.
largest (>0.10) Wiberg bond orders for each atom

 ---------------------------------------------------------------------------
     #   Z sym  total        # sym  WBO       # sym  WBO       # sym  WBO
 ---------------------------------------------------------------------------
     1   6 C    3.801 --    37 C    1.382     2 C    1.369    39 H    0.996
     2   6 C    3.924 --     1 C    1.369     3 C    1.242     6 N    1.230
     3   6 C    3.831 --     4 C    1.592     2 C    1.242    40 H    0.994
     4   6 C    3.823 --     3 C    1.592     5 C    1.256    41 H    1.000
     5   6 C    3.893 --     7 C    1.338     4 C    1.256     6 N    1.226
     6   7 N    3.243 --     2 C    1.230     5 C    1.226    42 H    0.961
     7   6 C    3.841 --    15 C    1.367     5 C    1.338     8 C    1.054
     8   6 C    3.875 --    14 C    1.408     9 C    1.408     7 C    1.054
     9   6 C    3.871 --    10 C    1.467     8 C    1.408    43 H    0.990
    10   6 C    3.872 --     9 C    1.467    11 C    1.376    44 H    0.989
    11   6 C    3.973 --    13 C    1.376    10 C    1.376    12 N    1.149
    12   7 N    3.060 --    11 C    1.149    45 H    0.971    46 H    0.971
    13   6 C    3.871 --    14 C    1.465    11 C    1.376    47 H    0.989
    14   6 C    3.867 --    13 C    1.465     8 C    1.408    48 H    0.990
    15   6 C    3.920 --     7 C    1.367    18 N    1.351    16 C    1.165
    16   6 C    3.837 --    17 C    1.687    15 C    1.165    49 H    0.999
    17   6 C    3.847 --    16 C    1.687    19 C    1.169    50 H    1.000
    18   7 N    2.562 --    19 C    1.416    15 C    1.351
    19   6 C    3.940 --    18 N    1.416    20 C    1.280    17 C    1.169
    20   6 C    3.833 --    19 C    1.280    21 C    1.280   123 C    1.228
    21   6 C    3.901 --    20 C    1.280    22 C    1.271    25 N    1.251
    22   6 C    3.826 --    23 C    1.577    21 C    1.271    51 H    0.999
    23   6 C    3.814 --    22 C    1.577    24 C    1.263    52 H    0.999
    24   6 C    3.889 --    26 C    1.339    23 C    1.263    25 N    1.219
    25   7 N    3.257 --    21 C    1.251    24 C    1.219    53 H    0.960
    26   6 C    3.826 --    34 C    1.357    24 C    1.339    27 C    1.057
    27   6 C    3.875 --    28 C    1.407    33 C    1.407    26 C    1.057
    28   6 C    3.869 --    29 C    1.467    27 C    1.407    54 H    0.990
    29   6 C    3.871 --    28 C    1.467    30 C    1.375    55 H    0.989
    30   6 C    3.972 --    32 C    1.376    29 C    1.375    31 N    1.149
    31   7 N    3.060 --    30 C    1.149    56 H    0.971    57 H    0.971
    32   6 C    3.871 --    33 C    1.466    30 C    1.376    58 H    0.989
    33   6 C    3.866 --    32 C    1.466    27 C    1.407    59 H    0.989
    34   6 C    3.941 --    38 N    1.378    26 C    1.357    35 C    1.156
    35   6 C    3.842 --    36 C    1.703    34 C    1.156    60 H    1.000
    36   6 C    3.859 --    35 C    1.703    37 C    1.149    61 H    0.994
    37   6 C    3.967 --     1 C    1.382    38 N    1.375    36 C    1.149
    38   7 N    2.544 --    34 C    1.378    37 C    1.375
    39   1 H    1.035 --     1 C    0.996
    40   1 H    1.018 --     3 C    0.994
    41   1 H    1.037 --     4 C    1.000
    42   1 H    1.085 --     6 N    0.961
    43   1 H    1.054 --     9 C    0.990
    44   1 H    1.023 --    10 C    0.989
    45   1 H    1.028 --    12 N    0.971
    46   1 H    1.028 --    12 N    0.971
    47   1 H    1.022 --    13 C    0.989
    48   1 H    1.050 --    14 C    0.990
    49   1 H    1.039 --    16 C    0.999
    50   1 H    1.035 --    17 C    1.000
    51   1 H    1.031 --    22 C    0.999
    52   1 H    1.037 --    23 C    0.999
    53   1 H    1.089 --    25 N    0.960
    54   1 H    1.054 --    28 C    0.990
    55   1 H    1.023 --    29 C    0.989
    56   1 H    1.029 --    31 N    0.971
    57   1 H    1.028 --    31 N    0.971
    58   1 H    1.022 --    32 C    0.989
    59   1 H    1.051 --    33 C    0.989
    60   1 H    1.039 --    35 C    1.000
    61   1 H    1.021 --    36 C    0.994
    62   6 C    3.801 --    98 C    1.382    63 C    1.369   100 H    0.997
    63   6 C    3.924 --    62 C    1.369    64 C    1.243    67 N    1.230
    64   6 C    3.833 --    65 C    1.592    63 C    1.243   101 H    0.994
    65   6 C    3.823 --    64 C    1.592    66 C    1.256   102 H    1.000
    66   6 C    3.893 --    68 C    1.338    65 C    1.256    67 N    1.226
    67   7 N    3.243 --    63 C    1.230    66 C    1.226   103 H    0.961
    68   6 C    3.841 --    76 C    1.368    66 C    1.338    69 C    1.054
    69   6 C    3.875 --    75 C    1.409    70 C    1.408    68 C    1.054
    70   6 C    3.872 --    71 C    1.467    69 C    1.408   104 H    0.990
    71   6 C    3.872 --    70 C    1.467    72 C    1.376   105 H    0.989
    72   6 C    3.973 --    74 C    1.377    71 C    1.376    73 N    1.149
    73   7 N    3.060 --    72 C    1.149   106 H    0.971   107 H    0.971
    74   6 C    3.871 --    75 C    1.465    72 C    1.377   108 H    0.989
    75   6 C    3.867 --    74 C    1.465    69 C    1.409   109 H    0.990
    76   6 C    3.920 --    68 C    1.368    79 N    1.350    77 C    1.165
    77   6 C    3.837 --    78 C    1.687    76 C    1.165   110 H    0.999
    78   6 C    3.847 --    77 C    1.687    80 C    1.169   111 H    1.000
    79   7 N    2.562 --    80 C    1.416    76 C    1.350
    80   6 C    3.940 --    79 N    1.416    81 C    1.280    78 C    1.169
    81   6 C    3.833 --    82 C    1.280    80 C    1.280   146 C    1.228
    82   6 C    3.901 --    81 C    1.280    83 C    1.271    86 N    1.251
    83   6 C    3.826 --    84 C    1.577    82 C    1.271   112 H    0.999
    84   6 C    3.814 --    83 C    1.577    85 C    1.263   113 H    0.999
    85   6 C    3.889 --    87 C    1.340    84 C    1.263    86 N    1.219
    86   7 N    3.257 --    82 C    1.251    85 C    1.219   114 H    0.960
    87   6 C    3.826 --    95 C    1.356    85 C    1.340    88 C    1.057
    88   6 C    3.875 --    89 C    1.407    94 C    1.407    87 C    1.057
    89   6 C    3.869 --    90 C    1.467    88 C    1.407   115 H    0.990
    90   6 C    3.871 --    89 C    1.467    91 C    1.375   116 H    0.989
    91   6 C    3.973 --    93 C    1.376    90 C    1.375    92 N    1.149
    92   7 N    3.060 --    91 C    1.149   117 H    0.971   118 H    0.971
    93   6 C    3.871 --    94 C    1.466    91 C    1.376   119 H    0.989
    94   6 C    3.866 --    93 C    1.466    88 C    1.407   120 H    0.990
    95   6 C    3.941 --    99 N    1.378    87 C    1.356    96 C    1.156
    96   6 C    3.842 --    97 C    1.703    95 C    1.156   121 H    1.000
    97   6 C    3.859 --    96 C    1.703    98 C    1.149   122 H    0.994
    98   6 C    3.967 --    62 C    1.382    99 N    1.375    97 C    1.149
    99   7 N    2.544 --    95 C    1.378    98 C    1.375
   100   1 H    1.035 --    62 C    0.997
   101   1 H    1.018 --    64 C    0.994
   102   1 H    1.037 --    65 C    1.000
   103   1 H    1.085 --    67 N    0.961
   104   1 H    1.055 --    70 C    0.990
   105   1 H    1.023 --    71 C    0.989
   106   1 H    1.028 --    73 N    0.971
   107   1 H    1.028 --    73 N    0.971
   108   1 H    1.022 --    74 C    0.989
   109   1 H    1.050 --    75 C    0.990
   110   1 H    1.039 --    77 C    0.999
   111   1 H    1.035 --    78 C    1.000
   112   1 H    1.031 --    83 C    0.999
   113   1 H    1.037 --    84 C    0.999
   114   1 H    1.089 --    86 N    0.960
   115   1 H    1.054 --    89 C    0.990
   116   1 H    1.023 --    90 C    0.989
   117   1 H    1.029 --    92 N    0.971
   118   1 H    1.028 --    92 N    0.971
   119   1 H    1.022 --    93 C    0.989
   120   1 H    1.051 --    94 C    0.990
   121   1 H    1.039 --    96 C    1.000
   122   1 H    1.021 --    97 C    0.994
   123   6 C    3.752 --   124 C    2.453    20 C    1.228   126 C    0.165
   124   6 C    3.805 --   123 C    2.453   125 C    1.370
   125   6 C    3.799 --   126 C    2.334   124 C    1.370   128 C    0.159
   126   6 C    3.836 --   125 C    2.334   127 C    1.398   123 C    0.165
   127   6 C    3.833 --   128 C    2.332   126 C    1.398   130 C    0.164
   128   6 C    3.801 --   127 C    2.332   129 C    1.373   125 C    0.159
   129   6 C    3.801 --   130 C    2.447   128 C    1.373
   130   6 C    3.754 --   129 C    2.447   147 C    1.233   127 C    0.164
   131   6 C    3.752 --   132 C    2.443   166 C    1.236   134 C    0.164
   132   6 C    3.801 --   131 C    2.443   133 C    1.376
   133   6 C    3.800 --   134 C    2.327   132 C    1.376   136 C    0.158
   134   6 C    3.833 --   133 C    2.327   135 C    1.403   131 C    0.164
   135   6 C    3.833 --   136 C    2.327   134 C    1.403   138 C    0.164
   136   6 C    3.800 --   135 C    2.327   137 C    1.376   133 C    0.158
   137   6 C    3.801 --   138 C    2.443   136 C    1.376
   138   6 C    3.752 --   137 C    2.443   207 C    1.236   135 C    0.164
   139   6 C    3.754 --   140 C    2.447   226 C    1.233   142 C    0.164
   140   6 C    3.801 --   139 C    2.447   141 C    1.373
   141   6 C    3.801 --   142 C    2.332   140 C    1.373   144 C    0.159
   142   6 C    3.833 --   141 C    2.332   143 C    1.399   139 C    0.164
   143   6 C    3.835 --   144 C    2.334   142 C    1.399   146 C    0.165
   144   6 C    3.799 --   143 C    2.334   145 C    1.370   141 C    0.159
   145   6 C    3.804 --   146 C    2.453   144 C    1.370
   146   6 C    3.752 --   145 C    2.453    81 C    1.228   143 C    0.165
   147   6 C    3.817 --   183 C    1.276   148 C    1.273   130 C    1.233
   148   6 C    3.903 --   149 C    1.275   147 C    1.273   152 N    1.253
   149   6 C    3.823 --   150 C    1.570   148 C    1.275   185 H    0.999
   150   6 C    3.816 --   149 C    1.570   151 C    1.270   186 H    0.999
   151   6 C    3.883 --   153 C    1.332   150 C    1.270   152 N    1.218
   152   7 N    3.248 --   148 C    1.253   151 C    1.218   187 H    0.962
   153   6 C    3.831 --   161 C    1.372   151 C    1.332   154 C    1.056
   154   6 C    3.875 --   160 C    1.408   155 C    1.408   153 C    1.056
   155   6 C    3.871 --   156 C    1.467   154 C    1.408   188 H    0.990
   156   6 C    3.871 --   155 C    1.467   157 C    1.375   189 H    0.989
   157   6 C    3.973 --   159 C    1.376   156 C    1.375   158 N    1.149
   158   7 N    3.060 --   157 C    1.149   191 H    0.971   190 H    0.971
   159   6 C    3.870 --   160 C    1.466   157 C    1.376   192 H    0.989
   160   6 C    3.866 --   159 C    1.466   154 C    1.408   193 H    0.990
   161   6 C    3.920 --   153 C    1.372   164 N    1.347   162 C    1.166
   162   6 C    3.837 --   163 C    1.686   161 C    1.166   194 H    1.000
   163   6 C    3.846 --   162 C    1.686   165 C    1.171   195 H    1.000
   164   7 N    2.545 --   165 C    1.419   161 C    1.347
   165   6 C    3.941 --   164 N    1.419   166 C    1.275   163 C    1.171
   166   6 C    3.817 --   165 C    1.275   167 C    1.273   131 C    1.236
   167   6 C    3.902 --   168 C    1.276   166 C    1.273   171 N    1.253
   168   6 C    3.823 --   169 C    1.569   167 C    1.276   196 H    0.999
   169   6 C    3.815 --   168 C    1.569   170 C    1.270   197 H    0.999
   170   6 C    3.883 --   172 C    1.331   169 C    1.270   171 N    1.219
   171   7 N    3.249 --   167 C    1.253   170 C    1.219   198 H    0.962
   172   6 C    3.831 --   180 C    1.374   170 C    1.331   173 C    1.056
   173   6 C    3.875 --   179 C    1.408   174 C    1.407   172 C    1.056
   174   6 C    3.866 --   175 C    1.466   173 C    1.407   199 H    0.990
   175   6 C    3.870 --   174 C    1.466   176 C    1.376   200 H    0.989
   176   6 C    3.973 --   175 C    1.376   178 C    1.375   177 N    1.149
   177   7 N    3.060 --   176 C    1.149   202 H    0.971   201 H    0.971
   178   6 C    3.871 --   179 C    1.467   176 C    1.375   203 H    0.989
   179   6 C    3.871 --   178 C    1.467   173 C    1.408   204 H    0.990
   180   6 C    3.921 --   172 C    1.374   184 N    1.346   181 C    1.165
   181   6 C    3.838 --   182 C    1.686   180 C    1.165   205 H    1.000
   182   6 C    3.846 --   181 C    1.686   183 C    1.170   206 H    1.000
   183   6 C    3.942 --   184 N    1.419   147 C    1.276   182 C    1.170
   184   7 N    2.544 --   183 C    1.419   180 C    1.346
   185   1 H    1.031 --   149 C    0.999
   186   1 H    1.038 --   150 C    0.999
   187   1 H    1.086 --   152 N    0.962
   188   1 H    1.055 --   155 C    0.990
   189   1 H    1.023 --   156 C    0.989
   190   1 H    1.028 --   158 N    0.971
   191   1 H    1.028 --   158 N    0.971
   192   1 H    1.022 --   159 C    0.989
   193   1 H    1.050 --   160 C    0.990
   194   1 H    1.039 --   162 C    1.000
   195   1 H    1.035 --   163 C    1.000
   196   1 H    1.031 --   168 C    0.999
   197   1 H    1.037 --   169 C    0.999
   198   1 H    1.086 --   171 N    0.962
   199   1 H    1.051 --   174 C    0.990
   200   1 H    1.022 --   175 C    0.989
   201   1 H    1.029 --   177 N    0.971
   202   1 H    1.028 --   177 N    0.971
   203   1 H    1.023 --   178 C    0.989
   204   1 H    1.055 --   179 C    0.990
   205   1 H    1.040 --   181 C    1.000
   206   1 H    1.035 --   182 C    1.000
   207   6 C    3.817 --   243 C    1.275   208 C    1.273   138 C    1.236
   208   6 C    3.902 --   209 C    1.276   207 C    1.273   212 N    1.253
   209   6 C    3.823 --   210 C    1.569   208 C    1.276   245 H    0.999
   210   6 C    3.815 --   209 C    1.569   211 C    1.270   246 H    0.999
   211   6 C    3.883 --   213 C    1.331   210 C    1.270   212 N    1.219
   212   7 N    3.249 --   208 C    1.253   211 C    1.219   247 H    0.962
   213   6 C    3.831 --   221 C    1.374   211 C    1.331   214 C    1.055
   214   6 C    3.875 --   215 C    1.408   220 C    1.408   213 C    1.055
   215   6 C    3.871 --   216 C    1.466   214 C    1.408   248 H    0.990
   216   6 C    3.871 --   215 C    1.466   217 C    1.376   249 H    0.989
   217   6 C    3.973 --   219 C    1.376   216 C    1.376   218 N    1.149
   218   7 N    3.060 --   217 C    1.149   251 H    0.971   250 H    0.971
   219   6 C    3.870 --   220 C    1.466   217 C    1.376   252 H    0.989
   220   6 C    3.866 --   219 C    1.466   214 C    1.408   253 H    0.990
   221   6 C    3.921 --   213 C    1.374   224 N    1.346   222 C    1.165
   222   6 C    3.838 --   223 C    1.686   221 C    1.165   254 H    1.000
   223   6 C    3.846 --   222 C    1.686   225 C    1.170   255 H    1.000
   224   7 N    2.544 --   225 C    1.419   221 C    1.346
   225   6 C    3.942 --   224 N    1.419   226 C    1.276   223 C    1.170
   226   6 C    3.816 --   225 C    1.276   227 C    1.273   139 C    1.233
   227   6 C    3.903 --   228 C    1.275   226 C    1.273   231 N    1.253
   228   6 C    3.823 --   229 C    1.570   227 C    1.275   256 H    0.999
   229   6 C    3.816 --   228 C    1.570   230 C    1.270   257 H    0.999
   230   6 C    3.883 --   232 C    1.332   229 C    1.270   231 N    1.218
   231   7 N    3.248 --   227 C    1.253   230 C    1.218   258 H    0.962
   232   6 C    3.831 --   240 C    1.372   230 C    1.332   233 C    1.055
   233   6 C    3.875 --   234 C    1.408   239 C    1.408   232 C    1.055
   234   6 C    3.866 --   235 C    1.465   233 C    1.408   259 H    0.990
   235   6 C    3.870 --   234 C    1.465   236 C    1.376   260 H    0.989
   236   6 C    3.973 --   235 C    1.376   238 C    1.375   237 N    1.149
   237   7 N    3.060 --   236 C    1.149   262 H    0.971   261 H    0.971
   238   6 C    3.871 --   239 C    1.467   236 C    1.375   263 H    0.989
   239   6 C    3.871 --   238 C    1.467   233 C    1.408   264 H    0.990
   240   6 C    3.920 --   232 C    1.372   244 N    1.347   241 C    1.166
   241   6 C    3.837 --   242 C    1.686   240 C    1.166   265 H    1.000
   242   6 C    3.846 --   241 C    1.686   243 C    1.171   266 H    1.000
   243   6 C    3.941 --   244 N    1.419   207 C    1.275   242 C    1.171
   244   7 N    2.545 --   243 C    1.419   240 C    1.347
   245   1 H    1.031 --   209 C    0.999
   246   1 H    1.037 --   210 C    0.999
   247   1 H    1.086 --   212 N    0.962
   248   1 H    1.055 --   215 C    0.990
   249   1 H    1.023 --   216 C    0.989
   250   1 H    1.029 --   218 N    0.971
   251   1 H    1.028 --   218 N    0.971
   252   1 H    1.022 --   219 C    0.989
   253   1 H    1.050 --   220 C    0.990
   254   1 H    1.039 --   222 C    1.000
   255   1 H    1.035 --   223 C    1.000
   256   1 H    1.031 --   228 C    0.999
   257   1 H    1.038 --   229 C    0.999
   258   1 H    1.086 --   231 N    0.962
   259   1 H    1.050 --   234 C    0.990
   260   1 H    1.022 --   235 C    0.989
   261   1 H    1.028 --   237 N    0.971
   262   1 H    1.028 --   237 N    0.971
   263   1 H    1.023 --   238 C    0.989
   264   1 H    1.055 --   239 C    0.990
   265   1 H    1.039 --   241 C    1.000
   266   1 H    1.035 --   242 C    1.000
 ---------------------------------------------------------------------------

Topologies differ in total number of bonds
Writing topology from bond orders to xtbtopo.mol

 dipole moment from electron density (au)
     X       Y       Z   
-127.7726   2.0787   0.9533  total (Debye):  324.818


           -------------------------------------------------
          | TOTAL ENERGY             -508.169342083615 Eh   |
          | GRADIENT NORM               0.095329951788 Eh/α |
          | HOMO-LUMO GAP               0.114675276383 eV   |
           -------------------------------------------------
########################################################################
[WARNING] Runtime exception occurred
-1- restart_readRestart: Dimension missmatch in restart file.
########################################################################

------------------------------------------------------------------------
 * finished run on 2022/07/29 at 22:27:48.559     
------------------------------------------------------------------------
 total:
 * wall-time:     0 d,  0 h,  0 min, 29.536 sec
 *  cpu-time:     0 d,  0 h,  0 min, 29.361 sec
 * ratio c/w:     0.994 speedup
 SCF:
 * wall-time:     0 d,  0 h,  0 min, 28.763 sec
 *  cpu-time:     0 d,  0 h,  0 min, 28.596 sec
 * ratio c/w:     0.994 speedup

