286
 energy: -449.907045633269 gnorm: 42.799279152128 xtb: 6.5.1 (b24c23e)
Co          46.13240800000000        1.97555400000000        1.61702600000000
C           42.38131700000000        0.08207000000000       -0.04261400000000
C           43.03095000000000        0.93527100000000        0.75449300000000
C           42.36624299999999        1.85391000000000        1.67083400000000
C           43.29644800000000        2.56706900000000        2.27809900000000
C           44.60867900000000        2.14607900000000        1.76798400000000
N           44.44688100000000        1.10190300000000        0.80709300000000
C           45.79409199999999        2.67636800000000        2.13456300000000
C           45.82795500000000        3.78985200000000        3.11045500000000
C           45.34015300000000        5.05695800000000        2.75978500000000
C           45.38835200000000        6.10881100000000        3.67849300000000
C           45.92940900000000        5.91436000000000        4.95927400000000
N           45.96586400000000        7.01768100000000        5.88326800000000
C           46.50727600000000        6.92013600000000        7.23479000000000
C           46.42483000000000        4.64208000000000        5.30476200000000
C           46.37522799999999        3.59031200000000        4.38537800000000
C           47.09323100000000        2.19784900000000        1.59295100000000
C           48.37003299999999        2.89193200000000        1.80076700000000
C           49.31448700000000        2.18219600000000        1.21749600000000
N           47.24938900000000        1.10821100000000        0.90544400000000
C           48.64749699999999        1.02767700000000        0.62824800000000
C           49.25427800000000        0.01630500000000       -0.01397900000000
C           48.50365900000000       -1.11717100000000       -0.59847100000000
C           49.04539200000000       -2.28459700000000       -0.92186000000000
C           48.01332599999999       -3.07589000000000       -1.56327900000000
C           46.91036500000000       -2.33681600000000       -1.59357400000000
N           47.13003300000000       -1.06381100000000       -0.98389400000000
C           45.63981200000000       -2.75249300000000       -2.24119500000000
C           45.67836400000000       -3.85352000000000       -3.23440700000000
C           46.42408100000000       -3.71014300000000       -4.41307000000000
C           46.48111300000000       -4.75094300000000       -5.34441900000000
C           45.79522500000000       -5.95770600000000       -5.10720000000000
N           45.83396600000000       -7.04805400000000       -6.04638400000000
C           46.57069099999999       -7.00240800000000       -7.30510200000000
C           45.05765500000000       -6.09881000000000       -3.92122800000000
C           45.00195100000000       -5.05808500000000       -2.99038200000000
C           44.47104800000000       -2.15022200000000       -1.94881800000000
C           43.17067100000000       -2.44699200000000       -2.54736900000000
C           42.29837300000000       -1.67073700000000       -1.93380400000000
C           43.03312600000000       -0.87003300000000       -0.95588800000000
N           44.30000700000000       -1.14105100000000       -0.95578000000000
H           41.29771800000000        0.08504800000000       -0.02414500000000
H           41.30080200000000        1.94335500000000        1.83991700000000
H           43.09708400000000        3.32607500000000        3.02318100000000
H           44.92442400000000        5.22900500000000        1.77446800000000
H           45.00456900000000        7.07937100000000        3.39020400000000
H           45.58628499999999        7.94342400000000        5.58005500000000
H           47.57959000000000        6.63533500000000        7.19301500000000
H           45.93727499999999        6.16596600000000        7.81705000000000
H           46.42130400000000        7.90177200000000        7.74686200000000
H           46.85134200000000        4.45418500000000        6.28052200000000
H           46.76232600000000        2.61853800000000        4.66688500000000
H           48.52988999999999        3.82083500000000        2.33226700000000
H           50.36666100000000        2.43314500000000        1.19819000000000
H           50.07211900000000       -2.58735400000000       -0.76562600000000
H           48.13264400000000       -4.07345600000000       -1.96579000000000
H           46.95914200000000       -2.78941600000000       -4.61166900000000
H           47.06246599999999       -4.60592200000000       -6.24460000000000
H           45.30894899999999       -7.92457800000000       -5.82488600000000
H           46.18231900000000       -6.17930300000000       -7.94100700000000
H           46.44415500000000       -7.96131500000000       -7.85073100000000
H           47.65195900000000       -6.84891100000000       -7.10509900000000
H           44.52639400000000       -7.01966200000000       -3.71579900000000
H           44.43487200000000       -5.19150300000000       -2.07719800000000
H           42.94035599999999       -3.15261900000000       -3.33464500000000
H           41.23514600000000       -1.63900400000000       -2.13249300000000
Co         102.39550900000000       -2.00290600000000       -1.57013400000000
C          106.14660000000001        0.02990100000000       -0.08440700000000
C          105.49696699999998       -0.93416800000000       -0.74312200000000
C          106.16167399999999       -2.02887500000000       -1.43968100000000
C          105.23146900000000       -2.77711800000000       -2.00315000000000
C          103.91923799999999       -2.18743500000000       -1.70361100000000
N          104.08103600000000       -1.02185900000000       -0.89426100000000
C          102.73382499999998       -2.66089100000000       -2.14113500000000
C          102.69996200000000       -3.85622900000000       -3.01484900000000
C          103.18776400000000       -3.79049000000000       -4.32793900000000
C          103.13956500000000       -4.91657500000000       -5.15398600000000
C          102.59850800000000       -6.12406600000000       -4.68475500000000
N          102.56205299999999       -7.26653900000000       -5.55987600000000
C          102.02064100000000       -8.56421100000000       -5.16978000000000
C          102.10308700000000       -6.18361800000000       -3.36774600000000
C          102.15268900000000       -5.05689200000000       -2.54193000000000
C          101.43468600000000       -2.02791600000000       -1.79232600000000
C          100.15788300000000       -2.38217300000000       -2.42433900000000
C           99.21343000000000       -1.65809300000000       -1.85897400000000
N          101.27852700000000       -1.11921700000000       -0.87895700000000
C           99.88042000000000       -0.83112800000000       -0.86084800000000
C           99.27363800000001        0.01630500000000       -0.01397900000000
C          100.02425800000000        0.83403700000000        0.96464900000000
C           99.48252500000000        1.40436600000000        2.03338200000000
C          100.51459100000000        2.20298900000000        2.66565100000000
C          101.61755200000000        2.07128800000000        1.93777500000000
N          101.39788399999999        1.19853000000000        0.82847600000000
C          102.88810500000000        2.79400500000000        2.20212500000000
C          102.84955300000000        4.00352800000000        3.05990400000000
C          102.10383600000000        5.12250500000000        2.66279800000000
C          102.04680399999999        6.25851500000000        3.47530000000000
C          102.73269200000000        6.29032600000000        4.70474600000000
N          102.69395100000000        7.44479300000000        5.56389200000000
C          101.95722600000001        8.66322100000000        5.24469400000000
C          103.47026199999999        5.16372100000000        5.10122900000000
C          103.52596599999998        4.02821800000000        4.28869000000000
C          104.05686899999999        2.37725700000000        1.67816300000000
C          105.35724600000000        3.02614100000000        1.83717900000000
C          106.22954399999999        2.25798200000000        1.21350800000000
C          105.49479099999999        1.12891600000000        0.64547900000000
N          104.22790999999998        1.18794700000000        0.90998900000000
H          107.23019899999998        0.01122600000000       -0.08328400000000
H          107.22711500000000       -2.21340100000000       -1.49007600000000
H          105.43083300000001       -3.66986200000000       -2.58129100000000
H          103.60349200000000       -2.86645600000000       -4.71083700000000
H          103.52334799999998       -4.84700900000000       -6.16406400000000
H          102.94163200000000       -7.17262900000000       -6.52947300000000
H          100.94832700000001       -8.46129900000000       -4.90095700000000
H          102.59064199999999       -8.96788100000000       -4.30673300000000
H          102.10661300000000       -9.27813600000000       -6.01602800000000
H          101.67657500000000       -7.09486700000000       -2.97146800000000
H          101.76559100000000       -5.11957500000000       -1.53214700000000
H           99.99802699999999       -3.10355200000000       -3.21488600000000
H           98.16125599999999       -1.69400900000000       -2.10808900000000
H           98.45579700000000        1.31795700000000        2.36293400000000
H          100.39527300000000        2.81346900000000        3.55135200000000
H          101.56877400000000        5.11541700000000        1.72092300000000
H          101.46545099999999        7.10536200000000        3.13735400000000
H          103.21896800000000        7.41989000000000        6.46762600000000
H          102.34559700000000        9.10420400000000        4.30266800000000
H          102.08376199999999        9.40493600000000        6.06143900000000
H          100.87595799999998        8.43454500000000        5.13853600000000
H          104.00152300000001        5.16417100000000        6.04471600000000
H          104.09304500000000        3.16615000000000        4.61815000000000
H          105.58756099999999        3.94841400000000        2.35402000000000
H          107.29277099999999        2.44495900000000        1.13918600000000
C           51.63833999999999        0.03150600000000       -0.00334500000000
C           53.09656700000000        0.00966900000000       -0.02121900000000
C           54.23049499999999       -0.01108400000000       -0.02270900000000
C           55.59187699999999       -0.02367400000000       -0.02490100000000
C           56.86609499999999       -0.01336800000000       -0.02966600000000
C           58.05455799999999        0.00543100000000       -0.03582200000000
C           59.40691899999999        0.03021500000000       -0.01995400000000
C           60.50718600000000        0.03150600000000       -0.00334500000000
C           69.76536000000000        0.03150600000000       -0.00334500000000
C           71.22358600000000        0.00966900000000       -0.02121900000000
C           72.35751399999998       -0.01108400000000       -0.02270900000000
C           73.71889600000000       -0.02367400000000       -0.02490100000000
C           74.99311499999999       -0.01336800000000       -0.02966600000000
C           76.18157699999999        0.00543100000000       -0.03582200000000
C           77.53393799999999        0.03021500000000       -0.01995400000000
C           78.63420499999999        0.03150600000000       -0.00334500000000
C           87.89238000000000        0.03150600000000       -0.00334500000000
C           89.35060599999998        0.00966900000000       -0.02121900000000
C           90.48453400000000       -0.01108400000000       -0.02270900000000
C           91.84591600000000       -0.02367400000000       -0.02490100000000
C           93.12013500000000       -0.01336800000000       -0.02966600000000
C           94.30859700000001        0.00543100000000       -0.03582200000000
C           95.66095799999999        0.03021500000000       -0.01995400000000
C           96.76122500000000        0.03150600000000       -0.00334500000000
Co          65.52482700000000       -2.02626900000000       -1.59290600000000
C           61.76117400000000       -0.02237200000000        0.01481100000000
C           62.41813700000000       -0.98095200000000       -0.66359900000000
C           61.77644999999999       -2.08687300000000       -1.37825500000000
C           62.71541899999999       -2.79732300000000       -1.97068000000000
C           64.01461700000000       -2.18996900000000       -1.66733300000000
N           63.83627300000000       -1.04148200000000       -0.83534700000000
C           65.19829500000000       -2.63200700000000       -2.13889000000000
C           65.22470199999999       -3.80407900000000       -3.03856700000000
C           65.30920000000000       -5.09756200000000       -2.50755800000000
C           65.33910500000000       -6.20536400000000       -3.35902000000000
C           65.28766100000000       -6.03725700000000       -4.75237300000000
N           65.31950600000000       -7.19807000000000       -5.60342300000000
C           65.26968900000000       -7.13065300000000       -7.06016800000000
C           65.20610600000001       -4.73336200000000       -5.28023100000000
C           65.17476600000001       -3.62620400000000       -4.42742100000000
C           66.49872000000001       -2.00146200000000       -1.80230400000000
C           67.77314900000000       -2.37413200000000       -2.42898900000000
C           68.72621400000000       -1.66837700000000       -1.85531600000000
N           66.66482700000000       -1.10564300000000       -0.87973600000000
C           68.06723200000000       -0.84042000000000       -0.85325500000000
C           68.68236099999999       -0.02237200000000        0.01481100000000
C           67.93362000000000        0.77999200000000        1.00569900000000
C           68.47084000000000        1.32182600000000        2.09141700000000
C           67.43781100000000        2.11056700000000        2.73380400000000
C           66.33987999999999        1.99931100000000        1.99487100000000
N           66.56250199999999        1.15238100000000        0.86822900000000
C           65.08041500000000        2.73903100000000        2.24930100000000
C           65.13860699999999        3.96532600000000        3.08135800000000
C           64.47881200000000        4.01918800000000        4.31793300000000
C           64.54911800000001        5.17157400000000        5.10624600000000
C           65.28707900000001        6.28905000000000        4.67039600000000
N           65.37675700000000        7.49162900000000        5.45693600000000
C           64.73242900000000        7.65553000000000        6.75587700000000
C           65.95300400000001        6.22472900000000        3.43646300000000
C           65.88354099999999        5.07166300000000        2.65007600000000
C           63.90579300000000        2.33261100000000        1.73033600000000
C           62.62578500000000        3.01980600000000        1.86672800000000
C           61.73704400000000        2.26324200000000        1.25660600000000
C           62.43782300000000        1.09082000000000        0.72118300000000
N           63.70604900000000        1.12692900000000        0.99195700000000
H           60.71875900000000       -2.30719100000000       -1.43556700000000
H           62.53068800000000       -3.67507100000000       -2.57653600000000
H           65.35089900000000       -5.24697100000000       -1.43530100000000
H           65.40253900000000       -7.19812000000000       -2.93091800000000
H           65.38166800000000       -8.14475600000000       -5.16511400000000
H           64.32656200000000       -6.64242700000000       -7.38460100000000
H           66.14230900000000       -6.56008600000000       -7.44239600000000
H           65.30278500000000       -8.15596400000000       -7.48599400000000
H           65.16662100000001       -4.56307200000000       -6.34748100000000
H           65.11344300000000       -2.62981600000000       -4.84846900000000
H           67.92665599999999       -3.10020400000000       -3.21624100000000
H           69.77963300000000       -1.72390100000000       -2.09496600000000
H           69.49459400000001        1.22240600000000        2.42629800000000
H           67.55462600000000        2.70747100000000        3.62894300000000
H           63.91273700000000        3.16626700000000        4.67221000000000
H           64.02761300000000        5.18107300000000        6.05336600000000
H           65.92929700000001        8.29750900000000        5.08573400000000
H           65.12127099999999        6.89861900000000        7.46894900000000
H           64.94874600000000        8.66731400000000        7.15953100000000
H           63.63304400000000        7.54544000000000        6.64889700000000
H           66.52915299999999        7.07055800000000        3.08242600000000
H           66.40612700000000        5.04264900000000        1.70164400000000
H           62.41973200000000        3.96298900000000        2.35527700000000
H           60.68395200000000        2.49409800000000        1.17121300000000
Co          83.65184600000001       -2.02626900000000       -1.59290600000000
C           79.88819400000000       -0.02237200000000        0.01481100000000
C           80.54515700000000       -0.98095200000000       -0.66359900000000
C           79.90346899999999       -2.08687300000000       -1.37825500000000
C           80.84243799999999       -2.79732300000000       -1.97068000000000
C           82.14163599999999       -2.18996900000000       -1.66733300000000
N           81.96329299999999       -1.04148200000000       -0.83534700000000
C           83.32531500000000       -2.63200700000000       -2.13889000000000
C           83.35172199999998       -3.80407900000000       -3.03856700000000
C           83.43621999999999       -5.09756200000000       -2.50755800000000
C           83.46612499999999       -6.20536400000000       -3.35902000000000
C           83.41468100000000       -6.03725700000000       -4.75237300000000
N           83.44652499999999       -7.19807000000000       -5.60342300000000
C           83.39670900000000       -7.13065300000000       -7.06016800000000
C           83.33312599999999       -4.73336200000000       -5.28023100000000
C           83.30178600000001       -3.62620400000000       -4.42742100000000
C           84.62573999999999       -2.00146200000000       -1.80230400000000
C           85.90016799999999       -2.37413200000000       -2.42898900000000
C           86.85323299999999       -1.66837700000000       -1.85531600000000
N           84.79184700000000       -1.10564300000000       -0.87973600000000
C           86.19425099999998       -0.84042000000000       -0.85325500000000
C           86.80938100000000       -0.02237200000000        0.01481100000000
C           86.06064000000001        0.77999200000000        1.00569900000000
C           86.59786000000000        1.32182600000000        2.09141700000000
C           85.56483100000000        2.11056700000000        2.73380400000000
C           84.46689900000000        1.99931100000000        1.99487100000000
N           84.68952099999998        1.15238100000000        0.86822900000000
C           83.20743500000000        2.73903100000000        2.24930100000000
C           83.26562600000000        3.96532600000000        3.08135800000000
C           82.60583199999999        4.01918800000000        4.31793300000000
C           82.67613700000000        5.17157400000000        5.10624600000000
C           83.41409899999999        6.28905000000000        4.67039600000000
N           83.50377700000000        7.49162900000000        5.45693600000000
C           82.85944899999998        7.65553000000000        6.75587700000000
C           84.08002399999999        6.22472900000000        3.43646300000000
C           84.01056100000000        5.07166300000000        2.65007600000000
C           82.03281200000001        2.33261100000000        1.73033600000000
C           80.75280500000000        3.01980600000000        1.86672800000000
C           79.86406400000000        2.26324200000000        1.25660600000000
C           80.56484300000000        1.09082000000000        0.72118300000000
N           81.83306899999999        1.12692900000000        0.99195700000000
H           78.84577800000000       -2.30719100000000       -1.43556700000000
H           80.65770799999999       -3.67507100000000       -2.57653600000000
H           83.47791800000000       -5.24697100000000       -1.43530100000000
H           83.52955900000001       -7.19812000000000       -2.93091800000000
H           83.50868699999999       -8.14475600000000       -5.16511400000000
H           82.45358200000000       -6.64242700000000       -7.38460100000000
H           84.26932900000000       -6.56008600000000       -7.44239600000000
H           83.42980500000000       -8.15596400000000       -7.48599400000000
H           83.29364099999998       -4.56307200000000       -6.34748100000000
H           83.24046299999999       -2.62981600000000       -4.84846900000000
H           86.05367600000000       -3.10020400000000       -3.21624100000000
H           87.90665299999999       -1.72390100000000       -2.09496600000000
H           87.62161300000000        1.22240600000000        2.42629800000000
H           85.68164600000000        2.70747100000000        3.62894300000000
H           82.03975699999999        3.16626700000000        4.67221000000000
H           82.15463300000000        5.18107300000000        6.05336600000000
H           84.05631699999999        8.29750900000000        5.08573400000000
H           83.24829099999999        6.89861900000000        7.46894900000000
H           83.07576599999999        8.66731400000000        7.15953100000000
H           81.76006400000000        7.54544000000000        6.64889700000000
H           84.65617299999998        7.07055800000000        3.08242600000000
H           84.53314600000000        5.04264900000000        1.70164400000000
H           80.54675200000000        3.96298900000000        2.35527700000000
H           78.81097200000001        2.49409800000000        1.17121300000000
286
 energy: -471.376180853093 gnorm: 11.307989297696 xtb: 6.5.1 (b24c23e)
Co          46.08636094522511        1.85460942721146        1.54643364921463
C           42.38135370208621        0.08145214046156       -0.04320510638617
C           43.03133459229850        0.93553498267557        0.75480815459243
C           42.36603162518387        1.85348375308712        1.67044893988911
C           43.29702164015966        2.56734074486327        2.27832731364827
C           44.60153525367185        2.14561074547318        1.76785544129229
N           44.44629130397242        1.10240170481974        0.80752215616398
C           45.74643653268306        2.77656790109624        2.20904284932561
C           45.82745494645631        3.79064352585577        3.11093818360869
C           45.34017563160450        5.05713497017936        2.76000759901642
C           45.38836529897797        6.10870889530405        3.67841711908561
C           45.92943750739327        5.91473697883427        4.95963313429051
N           45.96574823292794        7.01753925668744        5.88286106087882
C           46.50728346414305        6.92012308502054        7.23480048329587
C           46.42481178420195        4.64203507061377        5.30465234738473
C           46.37519272382558        3.59050568673641        4.38546218209797
C           47.19135964473018        2.22120111061203        1.59099581425419
C           48.37052337521734        2.89222879407444        1.80090256812416
C           49.31475191895856        2.18185733357603        1.21722164895282
N           47.25180675558198        1.10516812585501        0.90309336840054
C           48.64777757110158        1.02789275429781        0.62838224626026
C           49.25404190067402        0.01561562160483       -0.01433487694116
C           48.50353577383095       -1.11600344568472       -0.59812315757901
C           49.04544395221065       -2.28574161978602       -0.92233425753106
C           48.01449084558258       -3.07613395867309       -1.56307453786681
C           46.90951151300168       -2.33596242190411       -1.59353969960411
N           47.13021309964675       -1.06421769164044       -0.98409550361509
C           45.64032667358184       -2.75240792645057       -2.24102938712097
C           45.67842760688707       -3.85351904885914       -3.23435473098149
C           46.42404178319572       -3.71033166608561       -4.41309446620903
C           46.48105621983844       -4.75092713060601       -5.34432064243038
C           45.79525921646486       -5.95799074223903       -5.10748842430637
N           45.83381129696070       -7.04797928382533       -6.04605270604331
C           46.57069116046989       -7.00239828793434       -7.30509265644820
C           45.05768020513066       -6.09871050935850       -3.92119590667513
C           45.00199602847665       -5.05812288218679       -2.99055914942895
C           44.47078589253267       -2.14997607483303       -1.94862227506628
C           43.17095343044753       -2.44716346948901       -2.54748815226550
C           42.29801837247459       -1.67048902033915       -1.93361493903200
C           43.03257328020279       -0.86971896722684       -0.95562140230663
N           44.30026382857933       -1.14139487567943       -0.95608142258965
H           41.29771825922830        0.08505121093070       -0.02416651262859
H           41.30082490847139        1.94330689615060        1.83987282284864
H           43.09718983432688        3.32608648447844        3.02317626691858
H           44.92441877112711        5.22899084978046        1.77446904751794
H           45.00457119926845        7.07938296904268        3.39021209734545
H           45.58641765269372        7.94306680782380        5.58013554828210
H           47.57946402946914        6.63535620586573        7.19304241624459
H           45.93736165383890        6.16604802627388        7.81699696879481
H           46.42130121843105        7.90163459711626        7.74675127393808
H           46.85134373486483        4.45419758369718        6.28053059510328
H           46.76232062778796        2.61852329285722        4.66688186718578
H           48.52978094121717        3.82085022929059        2.33229789308233
H           50.36665851621923        2.43305938540094        1.19813619381059
H           50.07210700158505       -2.58736301193550       -0.76562846615270
H           48.13266541672556       -4.07344983006316       -1.96576462603509
H           46.95913689882723       -2.78941619289086       -4.61166087434792
H           47.06246628622020       -4.60593593842115       -6.24461759315939
H           45.30913557069165       -7.92423625696139       -5.82494006639759
H           46.18238812055875       -6.17939166353139       -7.94094941250808
H           46.44415397426637       -7.96118234751343       -7.85062303394926
H           47.65184190427919       -6.84891532360593       -7.10514741952136
H           44.52639448095864       -7.01968028776124       -3.71580747850633
H           44.43487720693430       -5.19149461028014       -2.07719601422575
H           42.94043796335328       -3.15262048438541       -3.33463207671541
H           41.23513824939376       -1.63895765082092       -2.13244962904130
Co         102.44155842738333       -1.90760586339246       -1.46749435723177
C          106.14656275562567        0.03061404983356       -0.08393197278314
C          105.49658552043658       -0.93453404540739       -0.74331299060502
C          106.16188653057883       -2.02840115030833       -1.43934509032084
C          105.23088566783130       -2.77740204930635       -2.00336934381974
C          103.92639033802098       -2.18720674263859       -1.70317837774379
N          104.08161246098955       -1.02239537882772       -0.89465939370210
C          102.78146270876920       -2.75543699485482       -2.22266245138291
C          102.70046536780970       -3.85687551582469       -3.01551712255309
C          103.18774069384959       -3.79074549430594       -4.32806179161666
C          103.13955117732993       -4.91647949188251       -5.15390316794287
C          102.59847971868314       -6.12449683167247       -4.68504285992894
N          102.56216825312772       -7.26611210655321       -5.55982769585571
C          102.02063425919602       -8.56421796101598       -5.16976515346256
C          102.10310502622968       -6.18350140728434       -3.36772728314049
C          102.15272471264362       -5.05701433023631       -2.54210063127364
C          101.33655883451910       -2.03111399928683       -1.81555573048072
C          100.15740039452440       -2.38237112473231       -2.42460013295998
C           99.21316248874984       -1.65774406552686       -1.85869217036160
N          101.27613283349964       -1.11626555455739       -0.87651073731960
C           99.88014528697137       -0.83130667878314       -0.86103241993241
C           99.27381997682032        0.01680575901709       -0.01336484323106
C          100.02438501759194        0.83343905362398        0.96357531387734
C           99.48247242706098        1.40507839759029        2.03439046673726
C          100.51342839724171        2.20284156842403        2.66593381514514
C          101.61840577685246        2.07106920078333        1.93695318620943
N          101.39770901186017        1.19881515279584        0.82883239706866
C          102.88758916295220        2.79382763625859        2.20207861374579
C          102.84948981698285        4.00347606452939        3.05991337828475
C          102.10387416090963        5.12257124849412        2.66297712575412