194
 energy: -321.112221935351 gnorm: 1.791959481798 xtb: 6.5.1 (b24c23e)
C           24.62304500000000        0.02885100000000        0.00031100000000
C           25.34790000000000       -1.02508300000000        0.89159400000000
C           24.73244900000000       -2.01225900000000        1.62767900000000
C           25.75387600000000       -2.71639700000000        2.31547200000000
C           26.95955300000000       -2.12894600000000        1.98202400000000
N           26.70257300000000       -1.12543100000000        1.08214100000000
C           28.38760600000000       -2.51430700000000        2.55229200000000
C           28.43710800000000       -3.46159500000000        3.69104800000000
C           28.68649500000000       -4.81999300000000        3.47270600000000
C           28.73910100000000       -5.71058500000000        4.54914100000000
C           28.58454900000000       -5.25028200000000        5.85963300000000
N           28.54589000000000       -6.16150100000000        6.92970100000000
C           28.26096200000000       -3.90575000000000        6.06849100000000
C           28.20959200000000       -3.01143100000000        4.99496600000000
C           29.51625600000000       -1.95728600000000        2.03465300000000
C           30.82555100000000       -2.23766600000000        2.58739500000000
C           31.72707800000000       -1.54130800000000        1.90523700000000
N           29.70929500000000       -1.07966200000000        0.99928400000000
C           31.04346000000000       -0.78977000000000        0.87107400000000
C           31.71336600000000        0.01519000000000        0.00323700000000
C           30.93883400000000        0.79522300000000       -1.14330400000000
C           31.49321400000000        1.28838400000000       -2.30817100000000
C           30.46815900000000        1.95583200000000       -3.02233500000000
C           29.31146000000000        1.83988100000000       -2.28222100000000
N           29.59769600000000        1.09435800000000       -1.16223100000000
C           27.89441100000000        2.44272500000000       -2.66188400000000
C           27.84463000000000        3.52448800000000       -3.67018500000000
C           27.62481400000000        3.22457900000000       -5.01828100000000
C           27.57574100000000        4.24704800000000       -5.97012700000000
C           27.69887900000000        5.58417400000000       -5.58277800000000
N           27.73868300000000        6.60031800000000       -6.55371200000000
C           27.98886700000000        5.87506000000000       -4.24595100000000
C           28.04069400000000        4.85506800000000       -3.29061000000000
C           26.77224199999999        1.96775500000000       -2.06124000000000
C           25.44697300000000        2.48021400000000       -2.36209600000000
C           24.56339500000000        1.80946200000000       -1.62931300000000
C           25.28862000000000        0.85023000000000       -0.83314900000000
N           26.61108000000000        0.99064300000000       -1.11837200000000
H           23.54404400000000        0.09452800000000        0.06957400000000
H           23.66978700000000       -2.19641100000000        1.67489600000000
H           25.62185699999999       -3.54533100000000        2.99565900000000
H           27.40634300000000       -0.54754700000000        0.62918200000000
H           28.83432200000000       -5.17312100000000        2.45544800000000
H           28.91279300000000       -6.76247400000000        4.34747400000000
H           28.77436400000000       -5.71906300000000        7.81425400000000
H           29.11159000000000       -6.98502000000000        6.75003400000000
H           28.05480200000000       -3.53254900000000        7.06643000000000
H           27.98509200000000       -1.95982100000000        5.16120500000000
H           31.04161400000000       -2.88594100000000        3.41746700000000
H           32.78327700000000       -1.55460400000000        2.10151100000000
H           32.52467600000000        1.19224800000000       -2.61002400000000
H           30.56453800000000        2.46632600000000       -3.96857800000000
H           28.90897400000000        0.77764200000000       -0.48470000000000
H           27.49927900000000        2.18607800000000       -5.31515400000000
H           27.43144400000000        3.98242800000000       -7.01207800000000
H           27.19147600000000        6.36375600000000       -7.37410400000000
H           27.48794400000000        7.50431800000000       -6.16762000000000
H           28.16850700000000        6.89673600000000       -3.92723300000000
H           28.23879600000000        5.08459000000000       -2.24581100000000
H           25.21533500000000        3.26666300000000       -3.05740500000000
H           23.49837700000000        1.95294500000000       -1.62507800000000
C           65.45894100000000        0.01547100000000        0.01720500000000
C           64.73408700000000        0.64164800000000       -1.21286200000000
C           65.34953800000000        1.13204400000000       -2.34239700000000
C           64.32811100000001        1.64026400000000       -3.18535800000000
C           63.12243399999999        1.45024100000000       -2.53714600000000
N           63.37941399999999        0.80414300000000       -1.35418800000000
C           61.69438000000000        1.91707800000000       -3.04288500000000
C           61.64487900000000        2.80857600000000       -4.22582600000000
C           61.39549199999999        2.28489000000000       -5.49809700000000
C           61.34288500000000        3.12871100000000       -6.61157500000000
C           61.49743800000000        4.50979600000000       -6.46368600000000
N           61.53609599999999        5.34269400000000       -7.59578400000000
C           61.82102500000000        5.02107500000000       -5.20274000000000
C           61.87239500000000        4.18094000000000       -4.08630200000000
C           60.56573100000000        1.54079000000000       -2.38210500000000
C           59.25643600000000        2.01461300000000       -2.78164000000000
C           58.35490900000000        1.51009700000000       -1.94754300000000
N           60.37269199999999        0.73397400000000       -1.29065700000000
C           59.03852599999999        0.67557300000000       -0.97910500000000
C           58.36862099999999        0.01519000000000        0.00323700000000
C           59.14315300000000       -0.92219700000000        1.02515300000000
C           58.58877300000000       -1.94313300000000        1.77202300000000
C           59.61382800000000       -2.48542600000000        2.58530800000000
C           60.77052700000000       -1.79154900000000        2.30291300000000
N           60.48429000000000       -0.87210200000000        1.32067100000000
C           62.18757600000000       -2.02303300000000        2.97669400000000
C           62.23735700000000       -2.75674300000000        4.26065300000000
C           62.45717300000000       -4.13769300000000        4.27750700000000
C           62.50624599999999       -4.83003000000000        5.49081800000000
C           62.38310800000000       -4.14670200000000        6.70367000000000
N           62.34330400000000       -4.85906900000000        7.91519600000000
C           62.09312000000000       -2.77878800000000        6.68061400000000
C           62.04129199999999       -2.08248200000000        5.46891300000000
C           63.30974499999999       -1.54715300000000        2.37677000000000
C           64.63501400000000       -1.72262800000000        2.94451800000000
C           65.51859200000000       -1.16296700000000        2.12375000000000
C           64.79336600000001       -0.60768800000000        1.00765500000000
N           63.47090600000000       -0.85316600000000        1.20966700000000
H           66.53794300000000        0.09793600000000        0.06527100000000
H           66.41220000000000        1.13582500000000       -2.53246800000000
H           64.46013000000001        2.11249500000000       -4.14805400000000
H           62.67564399999999        0.49559500000000       -0.68791500000000
H           61.24766500000000        1.21379100000000       -5.60882700000000
H           61.16919299999999        2.69146400000000       -7.58930400000000
H           61.30762299999999        6.30507300000000       -7.36772000000000
H           60.97039699999999        4.97917300000000       -8.35625400000000
H           62.02718500000000        6.07796500000000       -5.06804500000000
H           62.09689500000000        4.58363700000000       -3.10072800000000
H           59.04037300000000        2.67412500000000       -3.60281200000000
H           57.29870999999999        1.69810700000000       -2.00544400000000
H           57.55730999999999       -2.25898100000000        1.74758400000000
H           59.51744800000000       -3.28958000000000        3.29897300000000
H           61.17301300000000       -0.28513000000000        0.85718300000000
H           62.58270699999999       -4.66454700000000        3.33461700000000
H           62.65054200000000       -5.90489100000000        5.47189800000000
H           62.89051099999999       -5.71183500000000        7.87283900000000
H           62.59404199999999       -4.27617500000000        8.70672400000000
H           61.91348000000000       -2.23452300000000        7.60212300000000
H           61.84319000000000       -1.01288700000000        5.45301500000000
H           64.86665200000000       -2.21931000000000        3.86932200000000
H           66.58360999999999       -1.12597900000000        2.26244800000000
C           37.79240400000000        0.01629300000000        0.01172700000000
C           36.58346499999999        0.00283800000000        0.00328000000000
C           35.16193600000000        0.01165700000000       -0.00870300000000
C           33.95026699999999        0.01909600000000        0.00216000000000
C           39.20900900000000        0.00961800000000        0.01226000000000
C           40.42970500000000        0.01909600000000        0.00216000000000
C           53.49726999999999        0.01629300000000        0.01172700000000
C           52.28833100000000        0.00283800000000        0.00328000000000
C           50.86680199999999        0.01165700000000       -0.00870300000000
C           49.65513200000000        0.01909600000000        0.00216000000000
C           54.91387400000000        0.00961800000000        0.01226000000000
C           56.13456999999999        0.01909600000000        0.00216000000000
C           41.46475900000000       -0.03470600000000       -0.00701400000000
C           42.25740400000000       -0.62086400000000        1.23361700000000
C           41.74891199999999       -1.43129700000000        2.22844700000000
C           42.78552600000000       -1.64381100000000        3.17302000000000
C           43.89654500000000       -0.96293400000000        2.72155100000000
N           43.58669800000000       -0.40778500000000        1.50519400000000
C           45.28626999999999       -0.83177000000000        3.46933200000000
C           45.28041200000000       -0.92442300000000        4.94800800000000
C           45.73997900000000       -2.07830200000000        5.59177800000000
C           45.73130300000000       -2.16038400000000        6.98751200000000
C           45.30168900000000       -1.07773500000000        7.76001300000000
N           45.20818000000000       -1.19870400000000        9.15735200000000
C           44.77220300000000        0.04290700000000        7.11370300000000
C           44.78046100000000        0.12963200000000        5.71799600000000
C           46.42099799999999       -0.59447800000000        2.75931700000000
C           47.70796900000000       -0.40527800000000        3.39668300000000
C           48.61564500000000       -0.18633300000000        2.45151800000000
N           46.62896299999999       -0.46642300000000        1.41365400000000
C           47.95333800000000       -0.22457500000000        1.16323000000000
C           48.61744400000000       -0.03470600000000       -0.00701400000000
C           47.82478600000000       -0.08434800000000       -1.37821000000000
C           48.33309100000000       -0.43749500000000       -2.61189000000000
C           47.29649700000000       -0.26031500000000       -3.56375200000000
C           46.18567299999999        0.18803400000000       -2.88048800000000
N           46.49562400000000        0.21901400000000       -1.54382700000000
C           44.79597900000000        0.60342600000000       -3.51594100000000
C           44.80165999999999        1.10074600000000       -4.91152700000000
C           45.29928400000000        2.37381500000000       -5.20389500000000
C           45.30714400000000        2.84382500000000       -6.52094600000000
C           44.77961300000000        2.06726500000000       -7.55661500000000
N           44.87288000000000        2.50655900000000       -8.88862800000000
C           44.35235200000000        0.76705700000000       -7.27311800000000
C           44.34399300000000        0.29281600000000       -5.95787600000000
C           43.66127599999999        0.54167700000000       -2.76985200000000
C           42.37428599999999        0.96658700000000       -3.28114600000000
C           41.46658699999999        0.79516300000000       -2.32624200000000
C           42.12889800000000        0.25231000000000       -1.15727500000000
N           43.45332599999999        0.12902100000000       -1.48263900000000
H           40.73944699999999       -1.80943700000000        2.28350400000000
H           42.72319900000000       -2.21097300000000        4.08974400000000
H           44.24868000000000        0.05054300000000        0.88565900000000
H           46.10052000000000       -2.91097400000000        4.99181100000000
H           46.07286900000000       -3.07638000000000        7.45792400000000
H           45.90060400000000       -1.83848200000000        9.53184000000000
H           45.22260800000000       -0.29564100000000        9.61946100000000
H           44.35476800000000        0.86633600000000        7.68373000000000
H           44.39128699999999        1.01400300000000        5.21849200000000
H           47.90340900000000       -0.42559600000000        4.45382800000000
H           49.65988400000000       -0.00859400000000        2.63256700000000
H           49.34242500000000       -0.76379600000000       -2.81149500000000
H           47.35867600000000       -0.42054900000000       -4.62976300000000
H           45.83372700000000        0.39643100000000       -0.79380600000000
H           45.68687799999999        2.99072000000000       -4.39625400000000
H           45.72273700000000        3.82600700000000       -6.72044900000000
H           44.18176900000000        2.06437800000000       -9.48519800000000
H           44.85624400000000        3.51859700000000       -8.95780000000000
H           44.01235400000000        0.10970300000000       -8.06639700000000
H           43.98520700000000       -0.70950100000000       -5.73446400000000
H           42.17887200000000        1.36446900000000       -4.26078400000000
H           40.42231499999999        1.02965400000000       -2.42267800000000
194
 energy: -321.588832991564 gnorm: 0.446186046861 xtb: 6.5.1 (b24c23e)
C           24.63735456239626        0.01142458128672        0.01504976765294
C           25.34334264602787       -1.01407037434387        0.88184926564352
C           24.73524300586664       -2.01479423664409        1.63165559750415
C           25.75101742476414       -2.71410663594545        2.31557476772486
C           26.97447579156800       -2.13102758135539        1.98560613629355
N           26.70285441017880       -1.12478906983565        1.08267578043733
C           28.36542476059849       -2.50599686249350        2.54100290868688
C           28.43316209900540       -3.45977511591135        3.68765958082039
C           28.68680267037993       -4.81925292345422        3.47448467728049
C           28.74041626080336       -5.70862090871439        4.54694048567738
C           28.57892447495905       -5.25061653401424        5.85849437035777
N           28.54902826550577       -6.15860803897870        6.92734825841554
C           28.26218330768954       -3.90357126383226        6.06655586463491
C           28.20943989160406       -3.01337729468605        4.99466611992301
C           29.51925196410659       -1.95313449648313        2.03090509290911
C           30.82690054014964       -2.24060270823175        2.59115645648154
C           31.73324267259048       -1.54204370856273        1.90663720204109
N           29.70606622056038       -1.07452454592609        0.99496787362140
C           31.04904617019231       -0.78878693094307        0.87110865663227
C           31.71612228710005        0.02426427858130       -0.01669246981621
C           30.94985568204611        0.78575451246833       -1.13119612628223
C           31.49244072206304        1.29222883899345       -2.30947493719650
C           30.47145299259941        1.95543074167343       -3.01992097604527
C           29.29734364648789        1.84333371475397       -2.28316038331910
N           29.59969227505157        1.09454888012637       -1.16040639204166
C           27.91621141094218        2.43171506205144       -2.65359499557617
C           27.84878119893811        3.52112797592330       -3.66876614771958
C           27.62476826612877        3.22633289014492       -5.01791393925375
C           27.57442061629934        4.24496649039376       -5.96813940939118
C           27.70451368406706        5.58306803952432       -5.58288927309693
N           27.73563738785828        6.59805299566122       -6.55063567992704
C           27.98759974704736        5.87323569502852       -4.24368464542450
C           28.04067649331645        4.85466324577437       -3.29258700184736
C           26.77004369219270        1.96562340496245       -2.05723301483789
C           25.44579799886733        2.48438539483909       -2.36610724852333
C           24.55906949114209        1.81182491300243       -1.63102115340853
C           25.29302952896174        0.85251533507756       -0.83450759820472
N           26.61739873170244        0.98713376791825       -1.11545714454687
H           23.55003171135417        0.08953285563851        0.07232816596764
H           23.67132119173730       -2.19750338365925        1.67581707382598
H           25.62100838832304       -3.54445404215653        2.99477252140640
H           27.40570647063148       -0.54811977481550        0.62972108123470
H           28.83398656231158       -5.17346100303747        2.45714464995225
H           28.91318266540049       -6.76193393201501        4.34817305596404
H           28.77390537785070       -5.72017539743085        7.81303270399569
H           29.11050016940008       -6.98379463554780        6.75066408008506
H           28.05565877352522       -3.53320838524789        7.06618159009801
H           27.98520482346817       -1.96175608440295        5.16173981434218
H           31.04004434994485       -2.88839237145627        3.42003954869299
H           32.78754381531412       -1.55277997273750        2.09992942605142
H           32.52401062857934        1.19311806651188       -2.61046002877567
H           30.56551565257766        2.46551293681666       -3.96756907062684
H           28.91024549293109        0.77791615715307       -0.48514487575599
H           27.49963939499021        2.18784922475229       -5.31558294300414
H           27.43090099996004        3.98315543332715       -7.01170169349443
H           27.19244741536424        6.36442529323322       -7.37313684209755
H           27.48843351052908        7.50320974622253       -6.16856658112035
H           28.16771028173785        6.89640532665207       -3.92783542299337
H           28.23878297120420        5.08501130199231       -2.24778098217026
H           25.21670885842452        3.26944004422552       -3.06028992014146
H           23.49513950675929        1.95249677906630       -1.62432458939085
C           65.44463018907712        0.02582716903447       -0.00313589115530
C           64.73864494449974        0.63468381589644       -1.19990889780814
C           65.34674404029099        1.13533516738254       -2.34577634491179
C           64.33097118693162        1.64088795720946       -3.18315179645929
C           63.10751101501898        1.45324915747350       -2.53999286058193
N           63.37913155808147        0.80481140296728       -1.35368617965821
C           61.71656449381359        1.90799301356664       -3.03220818423078
C           61.64882523486012        2.80569392622219       -4.22327875938812
C           61.39518465851121        2.28679087237697       -5.49778271719308
C           61.34156928646892        3.12701955300096       -6.60915903674225
C           61.50306321988536        4.50860850348338       -6.46374714635217
N           61.53295833467823        5.34106903711640       -7.59243246559916
C           61.81980334170810        5.01969027143467       -5.20017653865752
C           61.87254622259143        4.18020131388371       -4.08812781460684
C           60.56274056909795        1.53809816736911       -2.37720094427406
C           59.25508971561671        2.01760369485247       -2.78536515184773
C           58.34875469857369        1.51129409988340       -1.94858975838817
N           60.37592538343768        0.73095227413603       -1.28466741528849
C           59.03295808060418        0.67583007010138       -0.97820739380124
C           58.36571718908959       -0.00201400803352        0.01649293617664
C           59.13207547377113       -0.91255084590147        1.01315942227403
C           58.58953717834157       -1.94352266578300        1.77606714996028
C           59.61052691957769       -2.48316566668183        2.58436217881677
C           60.78464001813123       -1.79166894071811        2.30648534729948
N           60.48227597647657       -0.87026761639985        1.32042683553817
C           62.16576870440991       -2.01748683999907        2.96407782132279
C           62.23320539154290       -2.75613192325761        4.25705701916090
C           62.45721984105489       -4.13693687884684        4.27913061896842
C           62.50756698284584       -4.82857183451823        5.48833469583712
C           62.37747262729689       -4.14706692915773        6.70262164510706
N           62.34635472736248       -4.85658841310043        7.91228226848011
C           62.09438767937945       -2.77699987051780        6.67831869757669
C           62.04130884462393       -2.08449828611521        5.46897131495031
C           63.31194472193910       -1.54374021650420        2.37377549162818
C           64.63618843026806       -1.72557676670189        2.94949674050038
C           65.52291769313027       -1.16408815359885        2.12644126825598
C           64.78895774291203       -0.60848810672190        1.01019174380269
N           63.46458698233282       -0.85113101999525        1.20558512173020
H           66.53195461282255        0.09947252220194        0.05977737195597
H           66.41066571801268        1.13647137676002       -2.53374256129493
H           64.46097894915154        2.11183270190104       -4.14699734720406
H           62.67627980672460        0.49598763615878       -0.68859687587652
H           61.24800063956159        1.21536489624419       -5.60954654525291
H           61.16880336084019        2.69226830262859       -7.58893940564614
H           61.30808208815626        6.30362990132349       -7.36852276017875
H           60.97148671354562        4.98006682106380       -8.35520598409534
H           62.02632844411009        6.07757245349510       -5.06863056560001
H           62.09678225776400        4.58371405944208       -3.10273475960377
H           59.04194279394057        2.67606915227337       -3.60578963570000
H           57.29444001009762        1.69697780112568       -2.00329666097039
H           57.55797527115279       -2.25921014474422        1.74853110738594
H           59.51646981974235       -3.28878294196642        3.29794755216178
H           61.17173895074146       -0.28549897339925        0.85754786993671
H           62.58234613419876       -4.66455908247646        3.33643975949613
H           62.65108413779064       -5.90435652492928        5.47251902851117
H           62.88953613359045       -5.71074218147007        7.87326825613162
H           62.59355159988143       -4.27735097969176        8.70586293340256
H           61.91427665657775       -2.23518433773992        7.60193897533035
H           61.84320280069807       -1.01470698394522        5.45387625164718
H           64.86527756684850       -2.22148201975771        3.87268520492465
H           66.58684710172577       -1.12534836330877        2.26183875606847
C           37.78841320017582        0.01697396273544        0.01099386369712
C           36.56416708896105        0.00318159868221        0.00302112538108
C           35.15533555007966        0.01159987819831       -0.00823873372564
C           33.92407191424204        0.01904270096764        0.00134174504820
C           39.14046215456963        0.01061929743540        0.01495908188618
C           40.32307985415500        0.02059777429156        0.01890754516036
C           53.51677221786390        0.01605695472028        0.01164652204894
C           52.29258423758935        0.00355337123415        0.00422204387466
C           50.93873575543790        0.01393360005648       -0.01112325485977
C           49.75807611966600        0.02652620707305       -0.01246767395607
C           54.92354971243611        0.00978702970302        0.01215079750136
C           56.15755433881306        0.01814083275243        0.00289219948702
C           41.58527036867225       -0.04881333547179        0.00631947405260
C           42.27188822190053       -0.62271656128619        1.23040163086493
C           41.75136498616577       -1.42916643580835        2.23160713707668
C           42.78348755437909       -1.64110627507649        3.17318383228992
C           43.91068720597374       -0.96228770542127        2.72798867860789
N           43.59178644516827       -0.40665639409340        1.50942674574564
C           45.26697067482772       -0.83269204423714        3.45721469506749
C           45.27667945296580       -0.92602959125108        4.94428283825479
C           45.74042213665987       -2.07665872472921        5.59281264324244
C           45.73273235654204       -2.15988593591173        6.98454339168630
C           45.29651044149687       -1.07992049688228        7.75895181196302
N           45.21115930326030       -1.19714366102062        9.15387518050317
C           44.77338571729511        0.04388062044494        7.11079816983242
C           44.78016017127704        0.12779947120936        5.71903203562172
C           46.42153887699655       -0.59369555171497        2.76015152429710
C           47.70832835669013       -0.40597581295836        3.40377366856503
C           48.61746205109708       -0.18594543020640        2.45186392630715
N           46.61487758724745       -0.46707051007162        1.41276836195867
C           47.91329328721913       -0.22704821468229        1.18316998021254
C           48.49685497643957       -0.04227624676349       -0.02460687144273
C           47.81036117530065       -0.08726273884411       -1.37584734673356
C           48.33064001163437       -0.43428209361561       -2.61395489145586
C           47.29855430491893       -0.25776973844582       -3.56282962489160
C           46.17153073009744        0.19115897760297       -2.88614156998243
N           46.49053518251454        0.22170282684364       -1.54726181779338
C           44.81527461628972        0.59779802671404       -3.50515777611196
C           44.80538590596804        1.09780742151626       -4.90874179990202
C           45.29957935792538        2.37253998193873       -5.20556545618210
C           45.30596018523646        2.84357010598050       -6.51789686506249
C           44.78479686725108        2.06484765971413       -7.55650010900759
N           44.86989422116465        2.50661754980486       -8.88481751704387
C           44.35092344310387        0.76634384612144       -7.27019760458010
C           44.34355318282083        0.29472854957020       -5.95818440085530
C           43.66074543497946        0.54274243646079       -2.77036116639735
C           42.37396082913442        0.96874510839501       -3.28796354457921
C           41.46480496823372        0.79566249956929       -2.32639431222821
C           42.16908799344679        0.25792560761483       -1.17674256452213
N           43.46735978035757        0.12807085021829       -1.48205979060474
H           40.74070856424790       -1.80877336111442        2.28353641754439
H           42.72205248263604       -2.21056999044774        4.08872167233846
H           44.24873806260428        0.05023454672430        0.88676509441983
H           46.09984852271764       -2.91020987046776        4.99342161517299
H           46.07306904663863       -3.07552547111396        7.45818823812690
H           45.89936910978430       -1.83750022678913        9.53165105353234
H           45.22251259565584       -0.29720319395974        9.61915070547281
H           44.35574270676236        0.86595575227591        7.68393385009925
H           44.39154006143160        1.01288931248665        5.21996163210865
H           47.90235562936192       -0.42620669893825        4.45789150844484
H           49.66268282864746       -0.00787726191654        2.62912321027622
H           49.34115507332071       -0.76317367687760       -2.81126975292139
H           47.35982390920206       -0.42058293929409       -4.62866484215820
H           45.83366921258479        0.39658171923651       -0.79494665887405
H           45.68662762179687        2.99027471059459       -4.39804503003401
H           45.72176463022473        3.82573794631208       -6.72078564952617