      -----------------------------------------------------------      
     |                   =====================                   |     
     |                           x T B                           |     
     |                   =====================                   |     
     |                         S. Grimme                         |     
     |          Mulliken Center for Theoretical Chemistry        |     
     |                    University of Bonn                     |     
      -----------------------------------------------------------      

   * xtb version 6.5.1 (b24c23e) compiled by 'conda@728c89f4b128' on 2022-07-12

   xtb is free software: you can redistribute it and/or modify it under
   the terms of the GNU Lesser General Public License as published by
   the Free Software Foundation, either version 3 of the License, or
   (at your option) any later version.
   
   xtb is distributed in the hope that it will be useful,
   but WITHOUT ANY WARRANTY; without even the implied warranty of
   MERCHANTABILITY or FITNESS FOR A PARTICULAR PURPOSE.  See the
   GNU Lesser General Public License for more details.
   
   Cite this work as:
   * C. Bannwarth, E. Caldeweyher, S. Ehlert, A. Hansen, P. Pracht,
     J. Seibert, S. Spicher, S. Grimme, WIREs Comput. Mol. Sci., 2020, 11,
     e01493. DOI: 10.1002/wcms.1493
   
   for GFN2-xTB:
   * C. Bannwarth, S. Ehlert and S. Grimme., J. Chem. Theory Comput., 2019,
     15, 1652-1671. DOI: 10.1021/acs.jctc.8b01176
   for GFN1-xTB:
   * S. Grimme, C. Bannwarth, P. Shushkov, J. Chem. Theory Comput., 2017,
     13, 1989-2009. DOI: 10.1021/acs.jctc.7b00118
   for GFN0-xTB:
   * P. Pracht, E. Caldeweyher, S. Ehlert, S. Grimme, ChemRxiv, 2019, preprint.
     DOI: 10.26434/chemrxiv.8326202.v1
   for GFN-FF:
   * S. Spicher and S. Grimme, Angew. Chem. Int. Ed., 2020, 59, 15665-15673.
     DOI: 10.1002/anie.202004239
   
   for ALPB and GBSA implicit solvation:
   * S. Ehlert, M. Stahn, S. Spicher, S. Grimme, J. Chem. Theory Comput.,
     2021, 17, 4250-4261. DOI: 10.1021/acs.jctc.1c00471
   
   for DFT-D4:
   * E. Caldeweyher, C. Bannwarth and S. Grimme, J. Chem. Phys., 2017,
     147, 034112. DOI: 10.1063/1.4993215
   * E. Caldeweyher, S. Ehlert, A. Hansen, H. Neugebauer, S. Spicher,
     C. Bannwarth and S. Grimme, J. Chem. Phys., 2019, 150, 154122.
     DOI: 10.1063/1.5090222
   * E. Caldeweyher, J.-M. Mewes, S. Ehlert and S. Grimme, Phys. Chem. Chem. Phys.
     2020, 22, 8499-8512. DOI: 10.1039/D0CP00502A
   
   for sTDA-xTB:
   * S. Grimme and C. Bannwarth, J. Chem. Phys., 2016, 145, 054103.
     DOI: 10.1063/1.4959605
   
   in the mass-spec context:
   * V. Asgeirsson, C. Bauer and S. Grimme, Chem. Sci., 2017, 8, 4879.
     DOI: 10.1039/c7sc00601b
   * J. Koopman and S. Grimme, ACS Omega 2019, 4, 12, 15120-15133.
     DOI: 10.1021/acsomega.9b02011
   
   for metadynamics refer to:
   * S. Grimme, J. Chem. Theory Comput., 2019, 155, 2847-2862
     DOI: 10.1021/acs.jctc.9b00143
   
   for SPH calculations refer to:
   * S. Spicher and S. Grimme, J. Chem. Theory Comput., 2021, 17, 1701-1714
     DOI: 10.1021/acs.jctc.0c01306
   
   with help from (in alphabetical order)
   P. Atkinson, C. Bannwarth, F. Bohle, G. Brandenburg, E. Caldeweyher
   M. Checinski, S. Dohm, S. Ehlert, S. Ehrlich, I. Gerasimov, C. Hölzer
   A. Katbashev, J. Koopman, C. Lavigne, S. Lehtola, F. März, M. Müller,
   F. Musil, H. Neugebauer, J. Pisarek, C. Plett, P. Pracht, F. Pultar,
   J. Seibert, P. Shushkov, S. Spicher, M. Stahn, M. Steiner, T. Strunk,
   J. Stückrath, T. Rose, and J. Unsleber
   
 * started run on 2022/07/30 at 11:26:15.431     

           -------------------------------------------------
          |                Calculation Setup                |
           -------------------------------------------------

          program call               : xtb xtbopt.xyz --gfn 1 --vipea
          hostname                   : cx3-14-28.cx3.hpc.ic.ac.uk
          coordinate file            : xtbopt.xyz
          omp threads                :                     1

   ID    Z sym.   atoms
    1   30 Zn     1, 57, 125, 180
    2    6 C      2-6, 8-11, 13-29, 32-37, 58-62, 64-67, 69-85, 88-93,
                  113-124, 126-130, 132-135, 137-153, 156-161, 181-185,
                  187-190, 192-208, 211-216
    3    7 N      7, 12, 30, 31, 63, 68, 86, 87, 131, 136, 154, 155, 186,
                  191, 209, 210
    4    1 H      38-56, 94-112, 162-179, 217-234

           -------------------------------------------------
          |                 I P E A - x T B                 |
           -------------------------------------------------

        Reference                      10.1039/c7sc00601b
      * Hamiltonian:
        H0-scaling (s, p, d)           2.150000    2.300000    2.000000
        zeta-weighting                 0.000000
      * Dispersion:
        s8                             2.400000
        a1                             0.630000
        a2                             5.000000
        s9                             0.000000
      * Repulsion:
        kExp                           1.500000
        rExp                           1.000000
      * Coulomb:
        alpha                          1.000000
        third order                    atomic
        anisotropic                    false
      * Halogen bond correction:
        rad-scale                      1.300000
        damping                        0.440000


          ...................................................
          :                      SETUP                      :
          :.................................................:
          :  # basis functions                 944          :
          :  # atomic orbitals                 944          :
          :  # shells                          624          :
          :  # electrons                       722          :
          :  # halogen bonds                     0          :
          :  max. iterations                   250          :
          :  Hamiltonian                  GFN1-xTB          :
          :  restarted?                      false          :
          :  GBSA solvation                  false          :
          :  PC potential                    false          :
          :  electronic temp.          300.0000000     K    :
          :  accuracy                    1.0000000          :
          :  -> integral cutoff          0.2500000E+02      :
          :  -> integral neglect         0.1000000E-07      :
          :  -> SCF convergence          0.1000000E-05 Eh   :
          :  -> wf. convergence          0.2000000E-04 e    :
          :  Broyden damping             0.4000000          :
          ...................................................

 iter      E             dE          RMSdq      gap      omega  full diag
   1   -449.2188699 -0.449219E+03  0.104E+01    1.24       0.0  T
   2   -449.7440198 -0.525150E+00  0.663E+00    1.37       1.0  T
   3   -445.4957120  0.424831E+01  0.477E+00    0.86       1.0  T
   4   -451.2849799 -0.578927E+01  0.138E+00    1.44       1.0  T
   5   -452.2998714 -0.101489E+01  0.335E-01    1.11       1.0  T
   6   -452.3508932 -0.510218E-01  0.105E-01    1.15       1.0  T
   7   -452.3534480 -0.255476E-02  0.568E-02    1.14       1.0  T
   8   -452.3544684 -0.102045E-02  0.270E-02    1.15       1.0  T
   9   -452.3544540  0.143683E-04  0.172E-02    1.15       1.0  T
  10   -452.3545837 -0.129636E-03  0.590E-03    1.15       1.1  T
  11   -452.3545966 -0.128781E-04  0.283E-03    1.15       2.3  T
  12   -452.3546008 -0.424148E-05  0.653E-04    1.15      10.0  T
  13   -452.3546010 -0.170404E-06  0.276E-04    1.15      23.7  T
  14   -452.3546010 -0.330521E-07  0.610E-05    1.15     107.2  T
  15   -452.3546010 -0.111493E-08  0.312E-05    1.15     209.6  T

   *** convergence criteria satisfied after 15 iterations ***

         #    Occupation            Energy/Eh            Energy/eV
      -------------------------------------------------------------
         1        2.0000           -1.0118089             -27.5327
       ...           ...                  ...                  ...
       355        2.0000           -0.3904799             -10.6255
       356        2.0000           -0.3904790             -10.6255
       357        2.0000           -0.3891241             -10.5886
       358        2.0000           -0.3891231             -10.5886
       359        2.0000           -0.3834408             -10.4340
       360        2.0000           -0.3743485             -10.1865
       361        2.0000           -0.3669490              -9.9852 (HOMO)
       362                         -0.3247913              -8.8380 (LUMO)
       363                         -0.3157534              -8.5921
       364                         -0.3053978              -8.3103
       365                         -0.3050931              -8.3020
       366                         -0.3050928              -8.3020
       ...                                ...                  ...
       944                        536.2273527           14591.4890
      -------------------------------------------------------------
                  HL-Gap            0.0421578 Eh            1.1472 eV
             Fermi-level           -0.3458699 Eh           -9.4116 eV

 SCC (total)                   0 d,  0 h,  0 min,  7.205 sec
 SCC setup                      ...        0 min,  0.007 sec (  0.102%)
 Dispersion                     ...        0 min,  0.011 sec (  0.151%)
 classical contributions        ...        0 min,  0.004 sec (  0.050%)
 integral evaluation            ...        0 min,  0.707 sec (  9.806%)
 iterations                     ...        0 min,  4.924 sec ( 68.340%)
 molecular gradient             ...        0 min,  1.485 sec ( 20.604%)
 printout                       ...        0 min,  0.068 sec (  0.947%)

         :::::::::::::::::::::::::::::::::::::::::::::::::::::
         ::                     SUMMARY                     ::
         :::::::::::::::::::::::::::::::::::::::::::::::::::::
         :: total energy            -443.055043570592 Eh    ::
         :: gradient norm              0.064651468209 Eh/a0 ::
         :: HOMO-LUMO gap              1.147170802317 eV    ::
         ::.................................................::
         :: SCC energy              -452.354601007354 Eh    ::
         :: -> electrostatic           0.315976142696 Eh    ::
         :: repulsion energy           9.513095024239 Eh    ::
         :: dispersion energy         -0.213537587477 Eh    ::
         :: halogen bond corr.         0.000000000000 Eh    ::
         :: add. restraining           0.000000000000 Eh    ::
         :: total charge               0.000000000000 e     ::
         :::::::::::::::::::::::::::::::::::::::::::::::::::::

           ------------------------------------------------- 
          |        vertical delta SCC IP calculation        |
           ------------------------------------------------- 
   1   -451.9562133 -0.451956E+03  0.872E-02    1.15       0.0  T
   2   -451.9581913 -0.197802E-02  0.798E-02    1.10       1.0  T
   3   -451.9627610 -0.456962E-02  0.424E-02    1.13       1.0  T
   4   -451.9633302 -0.569251E-03  0.262E-02    1.13       1.0  T
   5   -451.9634075 -0.773014E-04  0.143E-02    1.13       1.0  T
   6   -451.9634141 -0.662393E-05  0.849E-03    1.12       1.0  T
   7   -451.9634077  0.648340E-05  0.568E-03    1.13       1.2  T
   8   -451.9634294 -0.217484E-04  0.403E-03    1.13       1.6  T
   9   -451.9634553 -0.258514E-04  0.114E-03    1.13       5.7  T
  10   -451.9634561 -0.842399E-06  0.603E-04    1.13      10.8  T
  11   -451.9634563 -0.179863E-06  0.193E-04    1.13      33.9  T
  12   -451.9634563 -0.157596E-07  0.765E-05    1.13      85.4  T
     SCC iter.                  ...        0 min,  3.923 sec
     gradient                   ...        0 min,  1.476 sec
------------------------------------------------------------------------
empirical IP shift (eV):    4.8455
delta SCC IP (eV):    5.7981
------------------------------------------------------------------------
           ------------------------------------------------- 
          |        vertical delta SCC EA calculation        |
           ------------------------------------------------- 
   1   -452.6291441 -0.452629E+03  0.157E-01    0.29       0.0  T
   2   -452.6421547 -0.130106E-01  0.135E-01    0.12       1.0  T
   3   -452.6522518 -0.100971E-01  0.764E-02    0.19       1.0  T
   4   -452.6537516 -0.149982E-02  0.514E-02    0.16       1.0  T
   5   -452.6540364 -0.284827E-03  0.290E-02    0.16       1.0  T
   6   -452.6541108 -0.743790E-04  0.178E-02    0.16       1.0  T
   7   -452.6542155 -0.104750E-03  0.866E-03    0.17       1.0  T
   8   -452.6542317 -0.161719E-04  0.562E-03    0.17       1.2  T
   9   -452.6542566 -0.248986E-04  0.383E-03    0.17       1.7  T
  10   -452.6542767 -0.200908E-04  0.919E-04    0.17       7.1  T
  11   -452.6542773 -0.570604E-06  0.312E-04    0.17      21.0  T
  12   -452.6542773 -0.365396E-07  0.133E-04    0.17      49.0  T
  13   -452.6542773 -0.662783E-08  0.551E-05    0.17     118.7  T
     SCC iter.                  ...        0 min,  4.046 sec
     gradient                   ...        0 min,  1.419 sec
------------------------------------------------------------------------
empirical EA shift (eV):    4.8455
delta SCC EA (eV):    3.3091
------------------------------------------------------------------------
           -------------------------------------------------
          |                Property Printout                |
           -------------------------------------------------

    * Orbital Energies and Occupations

         #    Occupation            Energy/Eh            Energy/eV
      -------------------------------------------------------------
         1        2.0000           -0.9673833             -26.3238
       ...           ...                  ...                  ...
       350        2.0000           -0.3696443             -10.0585
       351        2.0000           -0.3696314             -10.0582
       352        2.0000           -0.3659097              -9.9569
       353        2.0000           -0.3650801              -9.9343
       354        2.0000           -0.3464704              -9.4279
       355        2.0000           -0.3464702              -9.4279
       356        2.0000           -0.3436542              -9.3513
       357        2.0000           -0.3392752              -9.2321
       358        2.0000           -0.3392749              -9.2321
       359        2.0000           -0.3381825              -9.2024
       360        2.0000           -0.3273674              -8.9081
       361        2.0000           -0.3173797              -8.6363
       362        0.9615           -0.2751973              -7.4885 (HOMO)
       363        0.0385           -0.2690834              -7.3221 (LUMO)
       364        0.0000           -0.2623708              -7.1395
       365        0.0000           -0.2623607              -7.1392
       366        0.0000           -0.2590043              -7.0479
       367                         -0.2551899              -6.9441
       368                         -0.2551889              -6.9440
       369                         -0.2493812              -6.7860
       370                         -0.2241984              -6.1008
       371                         -0.2179398              -5.9304
       372                         -0.2117453              -5.7619
       373                         -0.2061145              -5.6087
       ...                                ...                  ...
       944                        536.2754198           14592.7969
      -------------------------------------------------------------
                  HL-Gap            0.0061139 Eh            0.1664 eV
             Fermi-level           -0.2842152 Eh           -7.7339 eV

  Mulliken/CM5 charges         n(s)   n(p)   n(d)
     1Zn    0.36537  0.69054   0.762  0.872  0.000
     2C    -0.02645 -0.06758   1.087  2.939  0.000
     3C     0.05661  0.11835   1.118  2.825  0.000
     4C    -0.03944 -0.08548   1.089  2.950  0.000
     5C    -0.03575 -0.08138   1.085  2.951  0.000
     6C     0.05723  0.12266   1.112  2.831  0.000
     7N    -0.23825 -0.48209   1.350  3.889  0.000
     8C     0.00874  0.01408   1.095  2.896  0.000
     9C     0.05637  0.12091   1.109  2.834  0.000
    10C    -0.03571 -0.08134   1.083  2.953  0.000
    11C    -0.03656 -0.08170   1.087  2.949  0.000
    12N    -0.23534 -0.47831   1.351  3.884  0.000
    13C     0.06180  0.12833   1.123  2.815  0.000
    14C     0.01524  0.02213   1.086  2.899  0.000
    15C     0.06177  0.12831   1.123  2.815  0.000
    16C    -0.03660 -0.08174   1.087  2.949  0.000
    17C    -0.03573 -0.08136   1.083  2.953  0.000
    18C     0.05636  0.12089   1.109  2.834  0.000
    19C     0.00872  0.01406   1.095  2.896  0.000
    20C     0.00641 -0.00238   1.087  2.907  0.000
    21C    -0.02315 -0.07658   1.078  2.945  0.000
    22C    -0.02832 -0.08411   1.087  2.942  0.000
    23C    -0.03006 -0.08589   1.087  2.943  0.000
    24C    -0.02779 -0.08359   1.087  2.941  0.000
    25C    -0.02250 -0.07592   1.078  2.944  0.000
    26C     0.05723  0.12265   1.112  2.831  0.000
    27C    -0.03576 -0.08139   1.085  2.951  0.000
    28C    -0.03944 -0.08548   1.089  2.950  0.000
    29C     0.05662  0.11835   1.118  2.825  0.000
    30N    -0.23827 -0.48210   1.350  3.889  0.000
    31N    -0.23535 -0.47831   1.351  3.884  0.000
    32C     0.00642 -0.00238   1.087  2.907  0.000
    33C    -0.02316 -0.07658   1.078  2.945  0.000
    34C    -0.02831 -0.08410   1.087  2.942  0.000
    35C    -0.03006 -0.08589   1.087  2.943  0.000
    36C    -0.02779 -0.08358   1.087  2.941  0.000
    37C    -0.02251 -0.07594   1.078  2.944  0.000
    38H     0.02401  0.08285   0.976  0.000  0.000
    39H     0.02964  0.08613   0.970  0.000  0.000
    40H     0.02192  0.08064   0.978  0.000  0.000
    41H     0.02324  0.08202   0.977  0.000  0.000
    42H     0.02779  0.08576   0.972  0.000  0.000
    43H     0.02776  0.08571   0.972  0.000  0.000
    44H     0.02321  0.08198   0.977  0.000  0.000
    45H     0.02085  0.07863   0.979  0.000  0.000
    46H     0.02731  0.08315   0.973  0.000  0.000
    47H     0.02737  0.08319   0.973  0.000  0.000
    48H     0.02829  0.08414   0.972  0.000  0.000
    49H     0.02194  0.07973   0.978  0.000  0.000
    50H     0.02191  0.08063   0.978  0.000  0.000
    51H     0.02964  0.08613   0.970  0.000  0.000
    52H     0.02084  0.07862   0.979  0.000  0.000
    53H     0.02731  0.08315   0.973  0.000  0.000
    54H     0.02738  0.08320   0.973  0.000  0.000
    55H     0.02831  0.08416   0.972  0.000  0.000
    56H     0.02196  0.07974   0.978  0.000  0.000
    57Zn    0.36537  0.69053   0.762  0.872  0.000
    58C    -0.02645 -0.06758   1.087  2.939  0.000
    59C     0.05661  0.11833   1.118  2.825  0.000
    60C    -0.03945 -0.08548   1.089  2.950  0.000
    61C    -0.03575 -0.08139   1.085  2.951  0.000
    62C     0.05724  0.12267   1.112  2.831  0.000
    63N    -0.23823 -0.48211   1.350  3.888  0.000
    64C     0.00874  0.01408   1.095  2.896  0.000
    65C     0.05637  0.12091   1.109  2.834  0.000
    66C    -0.03571 -0.08135   1.083  2.953  0.000
    67C    -0.03656 -0.08170   1.087  2.949  0.000
    68N    -0.23536 -0.47828   1.351  3.884  0.000
    69C     0.06180  0.12834   1.123  2.815  0.000
    70C     0.01524  0.02213   1.086  2.899  0.000
    71C     0.06177  0.12830   1.123  2.815  0.000
    72C    -0.03660 -0.08174   1.087  2.949  0.000
    73C    -0.03573 -0.08136   1.083  2.953  0.000
    74C     0.05636  0.12089   1.109  2.834  0.000
    75C     0.00872  0.01406   1.095  2.896  0.000
    76C     0.00641 -0.00239   1.087  2.907  0.000
    77C    -0.02315 -0.07657   1.078  2.945  0.000
    78C    -0.02832 -0.08411   1.087  2.942  0.000
    79C    -0.03006 -0.08589   1.087  2.943  0.000
    80C    -0.02780 -0.08359   1.087  2.941  0.000
    81C    -0.02251 -0.07593   1.078  2.944  0.000
    82C     0.05723  0.12266   1.112  2.831  0.000
    83C    -0.03576 -0.08139   1.085  2.951  0.000
    84C    -0.03944 -0.08547   1.089  2.950  0.000
    85C     0.05661  0.11835   1.118  2.825  0.000
    86N    -0.23828 -0.48207   1.350  3.889  0.000
    87N    -0.23532 -0.47832   1.351  3.884  0.000
    88C     0.00642 -0.00238   1.087  2.907  0.000
    89C    -0.02315 -0.07657   1.078  2.945  0.000
    90C    -0.02831 -0.08410   1.087  2.942  0.000
    91C    -0.03006 -0.08589   1.087  2.943  0.000
    92C    -0.02779 -0.08358   1.087  2.941  0.000
    93C    -0.02251 -0.07594   1.078  2.944  0.000
    94H     0.02401  0.08285   0.976  0.000  0.000
    95H     0.02964  0.08612   0.970  0.000  0.000
    96H     0.02192  0.08065   0.978  0.000  0.000
    97H     0.02324  0.08202   0.977  0.000  0.000
    98H     0.02781  0.08577   0.972  0.000  0.000
    99H     0.02775  0.08571   0.972  0.000  0.000
   100H     0.02321  0.08199   0.977  0.000  0.000
   101H     0.02086  0.07864   0.979  0.000  0.000
   102H     0.02731  0.08316   0.973  0.000  0.000
   103H     0.02737  0.08319   0.973  0.000  0.000
   104H     0.02829  0.08414   0.972  0.000  0.000
   105H     0.02192  0.07972   0.978  0.000  0.000
   106H     0.02191  0.08062   0.978  0.000  0.000
   107H     0.02964  0.08612   0.970  0.000  0.000
   108H     0.02084  0.07863   0.979  0.000  0.000
   109H     0.02731  0.08316   0.973  0.000  0.000
   110H     0.02738  0.08320   0.973  0.000  0.000
   111H     0.02831  0.08416   0.972  0.000  0.000
   112H     0.02195  0.07974   0.978  0.000  0.000
   113C    -0.02280 -0.02362   1.062  2.961  0.000
   114C    -0.02445 -0.02603   1.089  2.935  0.000
   115C    -0.02645 -0.02727   1.059  2.967  0.000
   116C    -0.02054 -0.02210   1.094  2.926  0.000
   117C    -0.02491 -0.02572   1.061  2.964  0.000
   118C    -0.02260 -0.02417   1.092  2.931  0.000
   119C    -0.02491 -0.02572   1.061  2.964  0.000
   120C    -0.02260 -0.02417   1.092  2.931  0.000
   121C    -0.02645 -0.02727   1.059  2.967  0.000
   122C    -0.02054 -0.02210   1.094  2.926  0.000
   123C    -0.02281 -0.02363   1.062  2.961  0.000
   124C    -0.02445 -0.02603   1.089  2.935  0.000
   125Zn    0.36613  0.68965   0.764  0.870  0.000
   126C     0.01083  0.01774   1.082  2.907  0.000
   127C     0.06143  0.12800   1.124  2.815  0.000
   128C    -0.03901 -0.08415   1.086  2.953  0.000
   129C    -0.03619 -0.08182   1.084  2.952  0.000
   130C     0.05446  0.11900   1.107  2.838  0.000
   131N    -0.23623 -0.47905   1.350  3.886  0.000
   132C     0.01089  0.01615   1.096  2.893  0.000
   133C     0.05465  0.11916   1.107  2.838  0.000
   134C    -0.03608 -0.08170   1.084  2.952  0.000
   135C    -0.03821 -0.08335   1.087  2.952  0.000
   136N    -0.23579 -0.47866   1.350  3.885  0.000
   137C     0.06157  0.12818   1.123  2.815  0.000
   138C     0.01250  0.01940   1.084  2.904  0.000
   139C     0.06155  0.12816   1.123  2.815  0.000
   140C    -0.03823 -0.08337   1.087  2.952  0.000
   141C    -0.03608 -0.08172   1.084  2.952  0.000
   142C     0.05466  0.11917   1.107  2.838  0.000
   143C     0.01087  0.01614   1.096  2.893  0.000
   144C     0.00708 -0.00175   1.087  2.906  0.000
   145C    -0.02243 -0.07586   1.078  2.944  0.000
   146C    -0.02813 -0.08392   1.087  2.942  0.000
   147C    -0.03021 -0.08604   1.087  2.943  0.000
   148C    -0.02798 -0.08378   1.087  2.941  0.000
   149C    -0.02231 -0.07574   1.078  2.944  0.000
   150C     0.05445  0.11898   1.107  2.838  0.000
   151C    -0.03620 -0.08183   1.084  2.952  0.000
   152C    -0.03904 -0.08418   1.086  2.953  0.000
   153C     0.06140  0.12797   1.124  2.815  0.000
   154N    -0.23623 -0.47906   1.350  3.886  0.000
   155N    -0.23580 -0.47867   1.351  3.885  0.000
   156C     0.00710 -0.00174   1.087  2.906  0.000
   157C    -0.02245 -0.07587   1.078  2.944  0.000
   158C    -0.02811 -0.08390   1.087  2.942  0.000
   159C    -0.03022 -0.08605   1.087  2.943  0.000
   160C    -0.02798 -0.08377   1.087  2.941  0.000
   161C    -0.02232 -0.07574   1.078  2.944  0.000
   162H     0.02472  0.08268   0.975  0.000  0.000
   163H     0.02122  0.07999   0.979  0.000  0.000
   164H     0.02161  0.08038   0.978  0.000  0.000
   165H     0.02579  0.08375   0.974  0.000  0.000
   166H     0.02576  0.08372   0.974  0.000  0.000
   167H     0.02161  0.08040   0.978  0.000  0.000
   168H     0.02125  0.07904   0.979  0.000  0.000
   169H     0.02707  0.08292   0.973  0.000  0.000
   170H     0.02654  0.08236   0.973  0.000  0.000
   171H     0.02738  0.08323   0.973  0.000  0.000
   172H     0.02152  0.07930   0.978  0.000  0.000
   173H     0.02118  0.07996   0.979  0.000  0.000
   174H     0.02469  0.08265   0.975  0.000  0.000
   175H     0.02128  0.07905   0.979  0.000  0.000
   176H     0.02709  0.08294   0.973  0.000  0.000
   177H     0.02653  0.08236   0.973  0.000  0.000
   178H     0.02736  0.08320   0.973  0.000  0.000
   179H     0.02153  0.07930   0.978  0.000  0.000
   180Zn    0.36614  0.68965   0.764  0.870  0.000
   181C     0.01249  0.01940   1.084  2.904  0.000
   182C     0.06155  0.12817   1.123  2.815  0.000
   183C    -0.03822 -0.08335   1.087  2.952  0.000
   184C    -0.03608 -0.08171   1.084  2.952  0.000
   185C     0.05466  0.11917   1.107  2.838  0.000
   186N    -0.23580 -0.47865   1.350  3.885  0.000
   187C     0.01087  0.01613   1.096  2.893  0.000
   188C     0.05446  0.11899   1.107  2.838  0.000
   189C    -0.03620 -0.08183   1.084  2.952  0.000
   190C    -0.03903 -0.08417   1.086  2.953  0.000
   191N    -0.23622 -0.47907   1.350  3.886  0.000
   192C     0.06140  0.12797   1.124  2.815  0.000
   193C     0.01084  0.01775   1.082  2.907  0.000
   194C     0.06141  0.12798   1.124  2.815  0.000
   195C    -0.03902 -0.08416   1.086  2.953  0.000
   196C    -0.03620 -0.08182   1.084  2.952  0.000
   197C     0.05446  0.11901   1.107  2.838  0.000
   198C     0.01089  0.01615   1.096  2.893  0.000
   199C     0.00709 -0.00174   1.087  2.906  0.000
   200C    -0.02232 -0.07574   1.078  2.944  0.000
   201C    -0.02799 -0.08378   1.087  2.941  0.000
   202C    -0.03021 -0.08604   1.087  2.943  0.000
   203C    -0.02811 -0.08391   1.087  2.942  0.000
   204C    -0.02244 -0.07586   1.078  2.944  0.000
   205C     0.05464  0.11914   1.107  2.838  0.000
   206C    -0.03607 -0.08170   1.084  2.952  0.000
   207C    -0.03822 -0.08336   1.087  2.952  0.000
   208C     0.06158  0.12820   1.123  2.815  0.000
   209N    -0.23578 -0.47869   1.351  3.885  0.000
   210N    -0.23624 -0.47903   1.350  3.886  0.000
   211C     0.00709 -0.00175   1.087  2.906  0.000
   212C    -0.02231 -0.07574   1.078  2.944  0.000
   213C    -0.02798 -0.08377   1.087  2.941  0.000
   214C    -0.03021 -0.08604   1.087  2.943  0.000
   215C    -0.02812 -0.08392   1.087  2.942  0.000
   216C    -0.02244 -0.07586   1.078  2.944  0.000
   217H     0.02578  0.08373   0.974  0.000  0.000
   218H     0.02161  0.08040   0.978  0.000  0.000
   219H     0.02120  0.07997   0.979  0.000  0.000
   220H     0.02470  0.08266   0.975  0.000  0.000
   221H     0.02471  0.08266   0.975  0.000  0.000
   222H     0.02120  0.07997   0.979  0.000  0.000
   223H     0.02152  0.07930   0.978  0.000  0.000
   224H     0.02736  0.08321   0.973  0.000  0.000
   225H     0.02653  0.08236   0.973  0.000  0.000
   226H     0.02709  0.08294   0.973  0.000  0.000
   227H     0.02128  0.07906   0.979  0.000  0.000
   228H     0.02161  0.08039   0.978  0.000  0.000
   229H     0.02578  0.08374   0.974  0.000  0.000
   230H     0.02153  0.07931   0.978  0.000  0.000
   231H     0.02738  0.08323   0.973  0.000  0.000
   232H     0.02654  0.08236   0.973  0.000  0.000
   233H     0.02707  0.08291   0.973  0.000  0.000
   234H     0.02125  0.07903   0.979  0.000  0.000

Wiberg/Mayer (AO) data.
largest (>0.10) Wiberg bond orders for each atom

 ---------------------------------------------------------------------------
     #   Z sym  total        # sym  WBO       # sym  WBO       # sym  WBO
 ---------------------------------------------------------------------------
     1  30 Zn   2.424 --    30 N    0.567     7 N    0.567    12 N    0.561
                            31 N    0.561
     2   6 C    3.805 --     3 C    1.388    29 C    1.388    38 H    0.998
     3   6 C    3.947 --     2 C    1.388     7 N    1.283     4 C    1.199
     4   6 C    3.849 --     5 C    1.645     3 C    1.199    39 H    0.994
     5   6 C    3.837 --     4 C    1.645     6 C    1.206    40 H    1.000
     6   6 C    3.918 --     8 C    1.367     7 N    1.279     5 C    1.206
     7   7 N    3.003 --     3 C    1.283     6 C    1.279     1 Zn   0.567
     8   6 C    3.838 --     6 C    1.367     9 C    1.365    32 C    1.047
     9   6 C    3.906 --     8 C    1.365    12 N    1.268    10 C    1.216
    10   6 C    3.827 --    11 C    1.626     9 C    1.216    41 H    0.999
    11   6 C    3.840 --    10 C    1.626    13 C    1.226    42 H    0.999
    12   7 N    3.014 --    13 C    1.311     9 C    1.268     1 Zn   0.561
    13   6 C    3.921 --    12 N    1.311    14 C    1.293    11 C    1.226
    14   6 C    3.827 --    15 C    1.293    13 C    1.293   114 C    1.227
    15   6 C    3.921 --    31 N    1.310    14 C    1.293    16 C    1.226
    16   6 C    3.840 --    17 C    1.625    15 C    1.226    43 H    0.999
    17   6 C    3.827 --    16 C    1.625    18 C    1.216    44 H    0.999
    18   6 C    3.906 --    19 C    1.365    31 N    1.268    17 C    1.216
    19   6 C    3.838 --    26 C    1.367    18 C    1.365    20 C    1.047
    20   6 C    3.896 --    21 C    1.425    25 C    1.425    19 C    1.047
    21   6 C    3.867 --    22 C    1.447    20 C    1.425    45 H    0.989
    22   6 C    3.911 --    21 C    1.447    23 C    1.442    46 H    0.982
    23   6 C    3.905 --    22 C    1.442    24 C    1.441    47 H    0.984
    24   6 C    3.911 --    25 C    1.447    23 C    1.441    48 H    0.982
    25   6 C    3.867 --    24 C    1.447    20 C    1.425    49 H    0.989
    26   6 C    3.918 --    19 C    1.367    30 N    1.279    27 C    1.206
    27   6 C    3.837 --    28 C    1.645    26 C    1.206    50 H    1.000
    28   6 C    3.849 --    27 C    1.645    29 C    1.199    51 H    0.994
    29   6 C    3.947 --     2 C    1.388    30 N    1.283    28 C    1.199
    30   7 N    3.003 --    29 C    1.283    26 C    1.279     1 Zn   0.567
    31   7 N    3.014 --    15 C    1.310    18 C    1.268     1 Zn   0.561
    32   6 C    3.896 --    37 C    1.426    33 C    1.425     8 C    1.047
    33   6 C    3.867 --    34 C    1.447    32 C    1.425    52 H    0.989
    34   6 C    3.911 --    33 C    1.447    35 C    1.442    53 H    0.982
    35   6 C    3.905 --    34 C    1.442    36 C    1.441    54 H    0.984
    36   6 C    3.911 --    37 C    1.447    35 C    1.441    55 H    0.982
    37   6 C    3.867 --    36 C    1.447    32 C    1.426    56 H    0.989
    38   1 H    1.033 --     2 C    0.998
    39   1 H    1.021 --     4 C    0.994
    40   1 H    1.038 --     5 C    1.000
    41   1 H    1.037 --    10 C    0.999
    42   1 H    1.030 --    11 C    0.999
    43   1 H    1.031 --    16 C    0.999
    44   1 H    1.037 --    17 C    0.999
    45   1 H    1.056 --    21 C    0.989
    46   1 H    1.035 --    22 C    0.982
    47   1 H    1.030 --    23 C    0.984
    48   1 H    1.035 --    24 C    0.982
    49   1 H    1.056 --    25 C    0.989
    50   1 H    1.038 --    27 C    1.000
    51   1 H    1.021 --    28 C    0.994
    52   1 H    1.056 --    33 C    0.989
    53   1 H    1.035 --    34 C    0.982
    54   1 H    1.030 --    35 C    0.984
    55   1 H    1.035 --    36 C    0.982
    56   1 H    1.056 --    37 C    0.989
    57  30 Zn   2.424 --    63 N    0.567    86 N    0.567    87 N    0.561
                            68 N    0.561
    58   6 C    3.805 --    59 C    1.388    85 C    1.388    94 H    0.998
    59   6 C    3.947 --    58 C    1.388    63 N    1.283    60 C    1.199
    60   6 C    3.849 --    61 C    1.645    59 C    1.199    95 H    0.994
    61   6 C    3.837 --    60 C    1.645    62 C    1.206    96 H    1.000
    62   6 C    3.918 --    64 C    1.367    63 N    1.279    61 C    1.206
    63   7 N    3.003 --    59 C    1.283    62 C    1.279    57 Zn   0.567
    64   6 C    3.838 --    62 C    1.367    65 C    1.365    88 C    1.047
    65   6 C    3.906 --    64 C    1.365    68 N    1.268    66 C    1.216
    66   6 C    3.827 --    67 C    1.626    65 C    1.216    97 H    0.999
    67   6 C    3.840 --    66 C    1.626    69 C    1.226    98 H    0.999
    68   7 N    3.014 --    69 C    1.311    65 C    1.268    57 Zn   0.561
    69   6 C    3.921 --    68 N    1.311    70 C    1.293    67 C    1.226
    70   6 C    3.827 --    71 C    1.293    69 C    1.293   124 C    1.227
    71   6 C    3.921 --    87 N    1.310    70 C    1.293    72 C    1.226
    72   6 C    3.840 --    73 C    1.625    71 C    1.226    99 H    0.999
    73   6 C    3.827 --    72 C    1.625    74 C    1.216   100 H    0.999
    74   6 C    3.906 --    75 C    1.365    87 N    1.268    73 C    1.216
    75   6 C    3.838 --    82 C    1.367    74 C    1.365    76 C    1.047
    76   6 C    3.896 --    77 C    1.425    81 C    1.425    75 C    1.047
    77   6 C    3.867 --    78 C    1.447    76 C    1.425   101 H    0.989
    78   6 C    3.911 --    77 C    1.447    79 C    1.442   102 H    0.982
    79   6 C    3.905 --    78 C    1.442    80 C    1.441   103 H    0.984
    80   6 C    3.911 --    81 C    1.447    79 C    1.441   104 H    0.982
    81   6 C    3.867 --    80 C    1.447    76 C    1.425   105 H    0.989
    82   6 C    3.918 --    75 C    1.367    86 N    1.279    83 C    1.206
    83   6 C    3.837 --    84 C    1.645    82 C    1.206   106 H    1.000
    84   6 C    3.849 --    83 C    1.645    85 C    1.199   107 H    0.994
    85   6 C    3.947 --    58 C    1.388    86 N    1.283    84 C    1.199
    86   7 N    3.003 --    85 C    1.283    82 C    1.279    57 Zn   0.567
    87   7 N    3.014 --    71 C    1.310    74 C    1.268    57 Zn   0.561
    88   6 C    3.896 --    93 C    1.425    89 C    1.425    64 C    1.047
    89   6 C    3.867 --    90 C    1.447    88 C    1.425   108 H    0.989
    90   6 C    3.911 --    89 C    1.447    91 C    1.442   109 H    0.982
    91   6 C    3.905 --    90 C    1.442    92 C    1.441   110 H    0.984
    92   6 C    3.911 --    93 C    1.447    91 C    1.441   111 H    0.982
    93   6 C    3.867 --    92 C    1.447    88 C    1.425   112 H    0.989
    94   1 H    1.033 --    58 C    0.998
    95   1 H    1.021 --    60 C    0.994
    96   1 H    1.038 --    61 C    1.000
    97   1 H    1.037 --    66 C    0.999
    98   1 H    1.030 --    67 C    0.999
    99   1 H    1.031 --    72 C    0.999
   100   1 H    1.037 --    73 C    0.999
   101   1 H    1.056 --    77 C    0.989
   102   1 H    1.035 --    78 C    0.982
   103   1 H    1.030 --    79 C    0.984
   104   1 H    1.035 --    80 C    0.982
   105   1 H    1.056 --    81 C    0.989
   106   1 H    1.038 --    83 C    1.000
   107   1 H    1.021 --    84 C    0.994
   108   1 H    1.056 --    89 C    0.989
   109   1 H    1.035 --    90 C    0.982
   110   1 H    1.030 --    91 C    0.984
   111   1 H    1.035 --    92 C    0.982
   112   1 H    1.056 --    93 C    0.989
   113   6 C    3.804 --   114 C    2.493   115 C    1.334
   114   6 C    3.801 --   113 C    2.493    14 C    1.227   116 C    0.179
   115   6 C    3.802 --   116 C    2.492   113 C    1.334
   116   6 C    3.803 --   115 C    2.492   126 C    1.229   114 C    0.179
   117   6 C    3.802 --   118 C    2.487   119 C    1.338
   118   6 C    3.801 --   117 C    2.487   138 C    1.232   120 C    0.178
   119   6 C    3.802 --   120 C    2.487   117 C    1.338
   120   6 C    3.801 --   119 C    2.487   181 C    1.232   118 C    0.178
   121   6 C    3.802 --   122 C    2.492   123 C    1.334
   122   6 C    3.803 --   121 C    2.492   193 C    1.229   124 C    0.179
   123   6 C    3.804 --   124 C    2.493   121 C    1.334
   124   6 C    3.801 --   123 C    2.493    70 C    1.227   122 C    0.179
   125  30 Zn   2.415 --   155 N    0.562   136 N    0.562   154 N    0.562
                           131 N    0.562
   126   6 C    3.814 --   127 C    1.289   153 C    1.289   116 C    1.229
   127   6 C    3.923 --   131 N    1.313   126 C    1.289   128 C    1.227
   128   6 C    3.837 --   129 C    1.623   127 C    1.227   162 H    1.000
   129   6 C    3.831 --   128 C    1.623   130 C    1.219   163 H    1.000
   130   6 C    3.904 --   132 C    1.368   131 N    1.264   129 C    1.219
   131   7 N    3.004 --   127 C    1.313   130 C    1.264   125 Zn   0.562
   132   6 C    3.835 --   130 C    1.368   133 C    1.366   156 C    1.046
   133   6 C    3.903 --   132 C    1.366   136 N    1.264   134 C    1.219
   134   6 C    3.831 --   135 C    1.622   133 C    1.219   164 H    1.000
   135   6 C    3.837 --   134 C    1.622   137 C    1.228   165 H    1.000
   136   7 N    3.005 --   137 C    1.313   133 C    1.264   125 Zn   0.562
   137   6 C    3.922 --   136 N    1.313   138 C    1.288   135 C    1.228
   138   6 C    3.814 --   137 C    1.288   139 C    1.288   118 C    1.232
   139   6 C    3.922 --   155 N    1.313   138 C    1.288   140 C    1.228
   140   6 C    3.837 --   141 C    1.622   139 C    1.228   166 H    1.000
   141   6 C    3.831 --   140 C    1.622   142 C    1.219   167 H    1.000
   142   6 C    3.903 --   143 C    1.366   155 N    1.265   141 C    1.219
   143   6 C    3.835 --   150 C    1.368   142 C    1.366   144 C    1.047
   144   6 C    3.896 --   145 C    1.426   149 C    1.426   143 C    1.047
   145   6 C    3.867 --   146 C    1.447   144 C    1.426   168 H    0.989
   146   6 C    3.911 --   145 C    1.447   147 C    1.442   169 H    0.982
   147   6 C    3.905 --   146 C    1.442   148 C    1.442   170 H    0.984
   148   6 C    3.911 --   149 C    1.447   147 C    1.442   171 H    0.982
   149   6 C    3.867 --   148 C    1.447   144 C    1.426   172 H    0.989
   150   6 C    3.904 --   143 C    1.368   154 N    1.264   151 C    1.219
   151   6 C    3.831 --   152 C    1.623   150 C    1.219   173 H    1.000
   152   6 C    3.837 --   151 C    1.623   153 C    1.227   174 H    1.000
   153   6 C    3.923 --   154 N    1.313   126 C    1.289   152 C    1.227
   154   7 N    3.004 --   153 C    1.313   150 C    1.264   125 Zn   0.562
   155   7 N    3.006 --   139 C    1.313   142 C    1.265   125 Zn   0.562
   156   6 C    3.896 --   157 C    1.426   161 C    1.426   132 C    1.046
   157   6 C    3.867 --   158 C    1.447   156 C    1.426   175 H    0.989
   158   6 C    3.911 --   157 C    1.447   159 C    1.442   176 H    0.982
   159   6 C    3.905 --   158 C    1.442   160 C    1.442   177 H    0.984
   160   6 C    3.911 --   161 C    1.447   159 C    1.442   178 H    0.982
   161   6 C    3.867 --   160 C    1.447   156 C    1.426   179 H    0.989
   162   1 H    1.031 --   128 C    1.000
   163   1 H    1.040 --   129 C    1.000
   164   1 H    1.040 --   134 C    1.000
   165   1 H    1.031 --   135 C    1.000
   166   1 H    1.031 --   140 C    1.000
   167   1 H    1.040 --   141 C    1.000
   168   1 H    1.056 --   145 C    0.989
   169   1 H    1.036 --   146 C    0.982
   170   1 H    1.030 --   147 C    0.984
   171   1 H    1.035 --   148 C    0.982
   172   1 H    1.056 --   149 C    0.989
   173   1 H    1.040 --   151 C    1.000
   174   1 H    1.031 --   152 C    1.000
   175   1 H    1.056 --   157 C    0.989
   176   1 H    1.036 --   158 C    0.982
   177   1 H    1.030 --   159 C    0.984
   178   1 H    1.035 --   160 C    0.982
   179   1 H    1.056 --   161 C    0.989
   180  30 Zn   2.415 --   209 N    0.562   191 N    0.562   186 N    0.562
                           210 N    0.562
   181   6 C    3.814 --   182 C    1.288   208 C    1.288   120 C    1.232
   182   6 C    3.922 --   186 N    1.313   181 C    1.288   183 C    1.228
   183   6 C    3.837 --   184 C    1.623   182 C    1.228   217 H    1.000
   184   6 C    3.831 --   183 C    1.623   185 C    1.219   218 H    1.000
   185   6 C    3.903 --   187 C    1.366   186 N    1.265   184 C    1.219
   186   7 N    3.005 --   182 C    1.313   185 C    1.265   180 Zn   0.562
   187   6 C    3.835 --   188 C    1.368   185 C    1.366   211 C    1.046
   188   6 C    3.904 --   187 C    1.368   191 N    1.264   189 C    1.219
   189   6 C    3.831 --   190 C    1.623   188 C    1.219   219 H    1.000
   190   6 C    3.837 --   189 C    1.623   192 C    1.227   220 H    1.000
   191   7 N    3.004 --   192 C    1.313   188 C    1.264   180 Zn   0.562
   192   6 C    3.923 --   191 N    1.313   193 C    1.289   190 C    1.227
   193   6 C    3.814 --   192 C    1.289   194 C    1.289   122 C    1.229
   194   6 C    3.923 --   210 N    1.313   193 C    1.289   195 C    1.227
   195   6 C    3.837 --   196 C    1.623   194 C    1.227   221 H    1.000
   196   6 C    3.831 --   195 C    1.623   197 C    1.219   222 H    1.000
   197   6 C    3.904 --   198 C    1.368   210 N    1.264   196 C    1.219
   198   6 C    3.835 --   197 C    1.368   205 C    1.366   199 C    1.046
   199   6 C    3.896 --   200 C    1.426   204 C    1.426   198 C    1.046
   200   6 C    3.867 --   201 C    1.447   199 C    1.426   223 H    0.989
   201   6 C    3.911 --   200 C    1.447   202 C    1.442   224 H    0.982
   202   6 C    3.905 --   201 C    1.442   203 C    1.442   225 H    0.984
   203   6 C    3.911 --   204 C    1.447   202 C    1.442   226 H    0.982
   204   6 C    3.867 --   203 C    1.447   199 C    1.426   227 H    0.989
   205   6 C    3.904 --   198 C    1.366   209 N    1.264   206 C    1.219
   206   6 C    3.831 --   207 C    1.622   205 C    1.219   228 H    1.000
   207   6 C    3.837 --   206 C    1.622   208 C    1.228   229 H    1.000
   208   6 C    3.922 --   209 N    1.313   181 C    1.288   207 C    1.228
   209   7 N    3.006 --   208 C    1.313   205 C    1.264   180 Zn   0.562
   210   7 N    3.004 --   194 C    1.313   197 C    1.264   180 Zn   0.562
   211   6 C    3.896 --   216 C    1.426   212 C    1.426   187 C    1.046
   212   6 C    3.867 --   213 C    1.447   211 C    1.426   230 H    0.989
   213   6 C    3.911 --   212 C    1.447   214 C    1.442   231 H    0.982
   214   6 C    3.905 --   215 C    1.442   213 C    1.442   232 H    0.984
   215   6 C    3.911 --   216 C    1.447   214 C    1.442   233 H    0.982
   216   6 C    3.867 --   215 C    1.447   211 C    1.426   234 H    0.989
   217   1 H    1.031 --   183 C    1.000
   218   1 H    1.040 --   184 C    1.000
   219   1 H    1.040 --   189 C    1.000
   220   1 H    1.031 --   190 C    1.000
   221   1 H    1.031 --   195 C    1.000
   222   1 H    1.040 --   196 C    1.000
   223   1 H    1.056 --   200 C    0.989
   224   1 H    1.035 --   201 C    0.982
   225   1 H    1.030 --   202 C    0.984
   226   1 H    1.036 --   203 C    0.982
   227   1 H    1.056 --   204 C    0.989
   228   1 H    1.040 --   206 C    1.000
   229   1 H    1.031 --   207 C    1.000
   230   1 H    1.056 --   212 C    0.989
   231   1 H    1.035 --   213 C    0.982
   232   1 H    1.030 --   214 C    0.984
   233   1 H    1.036 --   215 C    0.982
   234   1 H    1.056 --   216 C    0.989
 ---------------------------------------------------------------------------

Topologies differ in total number of bonds
Writing topology from bond orders to xtbtopo.mol

 dipole moment from electron density (au)
     X       Y       Z   
-119.9238  -0.0658   0.0002  total (Debye):  304.816


           -------------------------------------------------
          | TOTAL ENERGY             -443.354719874920 Eh   |
          | GRADIENT NORM               0.072819325571 Eh/α |
          | HOMO-LUMO GAP               0.166366761721 eV   |
           -------------------------------------------------
########################################################################
[WARNING] Runtime exception occurred
-1- restart_readRestart: Dimension missmatch in restart file.
########################################################################

------------------------------------------------------------------------
 * finished run on 2022/07/30 at 11:26:35.679     
------------------------------------------------------------------------
 total:
 * wall-time:     0 d,  0 h,  0 min, 20.248 sec
 *  cpu-time:     0 d,  0 h,  0 min, 20.135 sec
 * ratio c/w:     0.994 speedup
 SCF:
 * wall-time:     0 d,  0 h,  0 min, 19.637 sec
 *  cpu-time:     0 d,  0 h,  0 min, 19.531 sec
 * ratio c/w:     0.995 speedup

