234
 energy: -388.632036340260 gnorm: 1.536592064881 xtb: 6.5.1 (b24c23e)
Zn          42.45301599999999        0.07125000000000        0.01843800000000
C           39.11645300000000       -0.08482000000000        0.00802500000000
C           39.78056300000000       -1.23702400000000       -0.11980300000000
C           39.13088400000000       -2.53376500000000       -0.27019300000000
C           40.07271299999999       -3.45747800000000       -0.31758500000000
C           41.37754200000000       -2.79305700000000       -0.19811800000000
N           41.19925600000000       -1.38147800000000       -0.07768100000000
C           42.56774600000000       -3.42478400000000       -0.15293800000000
C           43.86137800000000       -2.70874600000000       -0.00247000000000
C           45.15192200000000       -3.38354400000000        0.18244200000000
C           46.08663700000000       -2.45706800000000        0.24023600000000
N           44.00199600000000       -1.41969100000000       -0.06243800000000
C           45.40150200000000       -1.17965500000000        0.08483500000000
C           45.99607500000000        0.02277300000000        0.01414600000000
C           45.23506100000000        1.28035700000000       -0.16476400000000
C           45.77202900000000        2.42542800000000       -0.56696800000000
C           44.72829400000000        3.43017800000000       -0.52491100000000
C           43.62227600000000        2.83373300000000       -0.09561700000000
C           42.33716800000000        3.53574700000000        0.15558600000000
C           42.35628800000000        5.01054800000000        0.31354700000000
C           41.69702499999999        5.83650000000000       -0.61270100000000
C           41.73572700000000        7.22661300000000       -0.46760400000000
C           42.43728200000000        7.80057200000000        0.59637100000000
C           43.10332600000000        6.98533900000000        1.51586900000000
C           43.06653099999999        5.59468600000000        1.37494600000000
C           41.17212000000000        2.86574400000000        0.24428900000000
C           39.85976100000000        3.44668100000000        0.52307200000000
C           38.99816800000000        2.44960800000000        0.47058800000000
C           39.75115000000000        1.23266000000000        0.17230500000000
N           41.01930100000000        1.46276800000000        0.03887200000000
N           43.85203500000000        1.44510700000000        0.15140600000000
C           42.60652700000000       -4.89969300000000       -0.24484500000000
C           42.50553800000000       -5.53184500000000       -1.49374100000000
C           42.54363000000000       -6.92709300000000       -1.57833300000000
C           42.68354600000000       -7.69562600000000       -0.41873300000000
C           42.78539399999999       -7.07004400000000        0.82751700000000
C           42.74701300000000       -5.67509300000000        0.91636900000000
H           38.03305200000000       -0.11342000000000        0.00503600000000
H           38.06655800000000       -2.72348200000000       -0.32471700000000
H           39.88728000000000       -4.51934400000000       -0.41537000000000
H           45.32934100000000       -4.44839500000000        0.25454700000000
H           47.14530700000000       -2.64155200000000        0.36508700000000
H           46.80136899999999        2.59311000000000       -0.85413000000000
H           44.84114400000000        4.47682100000000       -0.77632900000000
H           41.15816500000000        5.40318800000000       -1.44638200000000
H           41.22445499999999        7.85905200000000       -1.18175800000000
H           42.46718199999999        8.87684100000000        0.70666600000000
H           43.64912700000000        7.43109900000000        2.33734100000000
H           43.58762100000000        4.97279200000000        2.09256500000000
H           39.61491600000000        4.47889000000000        0.73601000000000
H           37.93089200000000        2.53107700000000        0.62946300000000
H           42.39746299999999       -4.94429500000000       -2.39720100000000
H           42.46506700000000       -7.41255600000000       -2.54245600000000
H           42.71318400000000       -8.77544500000000       -0.48587100000000
H           42.89399200000000       -7.66605300000000        1.72437400000000
H           42.82665000000000       -5.19880800000000        1.88587900000000
Zn          84.48338699999998       -0.02584400000000        0.01632900000000
C           87.81994999999999        0.13053100000000        0.01270300000000
C           87.15584100000000        1.28719900000000       -0.06497400000000
C           87.80552000000000        2.58924700000000       -0.15891500000000
C           86.86369099999999        3.51414700000000       -0.16615300000000
C           85.55886200000000        2.84516500000000       -0.07564900000000
N           85.73714799999999        1.42968800000000       -0.01661900000000
C           84.36865800000000        3.47433400000000       -0.00308100000000
C           83.07502500000000        2.75243800000000        0.11615400000000
C           81.78448200000000        3.41857000000000        0.33019200000000
C           80.84976699999999        2.49045900000000        0.34770200000000
N           82.93440699999999        1.46720300000000        0.00026900000000
C           81.53490200000000        1.22099800000000        0.13698000000000
C           80.94032799999999        0.02277300000000        0.01414600000000
C           81.70134299999999       -1.22585500000000       -0.21920200000000
C           81.16437500000001       -2.35238200000000       -0.67074800000000
C           82.20810999999999       -3.35801100000000       -0.67235800000000
C           83.31412700000000       -2.78076900000000       -0.21757100000000
C           84.59923600000000       -3.49302900000000        0.00291300000000
C           84.58011599999999       -4.97329700000000        0.09668600000000
C           85.23937900000000       -5.75825100000000       -0.86455300000000
C           85.20067699999998       -7.15335300000000       -0.77995400000000
C           84.49912200000000       -7.77297100000000        0.25809500000000
C           83.83307800000000       -6.99843300000000        1.21212500000000
C           83.86987299999998       -5.60297200000000        1.13172000000000
C           85.76428300000001       -2.82750900000000        0.12062400000000
C           87.07664300000000       -3.42000300000000        0.37391900000000
C           87.93823600000000       -2.42159200000000        0.36478000000000
C           87.18525400000000       -1.19284000000000        0.11962000000000
N           85.91710300000000       -1.41693600000000       -0.02367900000000
N           83.08436799999998       -1.40417900000000        0.08951600000000
C           84.32987699999998        4.95184300000000       -0.03085800000000
C           84.43086599999999        5.63762800000000       -1.25112700000000
C           84.39277300000001        7.03523300000000       -1.27505500000000
C           84.25285800000000        7.75269000000000       -0.08317800000000
C           84.15100900000000        7.07358300000000        1.13473300000000
C           84.18939100000000        5.67609000000000        1.16293000000000
H           88.90335200000000        0.15923400000000        0.01095900000000
H           88.86984600000000        2.78115300000000       -0.20515000000000
H           87.04912400000001        4.57925700000000       -0.21773800000000
H           81.60706300000000        4.47928600000000        0.44846700000000
H           79.79109600000000        2.66934700000000        0.48044600000000
H           80.13503499999999       -2.50743700000000       -0.96491900000000
H           82.09525900000000       -4.39275000000000       -0.96898700000000
H           85.77823799999999       -5.28914800000000       -1.67863200000000
H           85.71194900000000       -7.75418600000000       -1.52089600000000
H           84.46922099999999       -8.85301400000000        0.32155200000000
H           83.28727700000000       -7.47944300000000        2.01346700000000
H           83.34878300000000       -5.01282600000000        1.87566600000000
H           87.32148700000000       -4.46048500000000        0.54183600000000
H           89.00551099999998       -2.50988300000000        0.51996700000000
H           84.53894099999999        5.08986200000000       -2.17924700000000
H           84.47133700000001        7.56210200000000       -2.21718800000000
H           84.22321999999998        8.83440500000000       -0.10336500000000
H           84.04241200000000        7.63008700000000        2.05662500000000
H           84.10975400000000        5.15815600000000        2.11084500000000
C           49.44763700000000        0.03550500000000        0.01667100000000
C           48.19536600000000        0.01632400000000        0.01232200000000
C           50.76130500000000        0.03473900000000        0.01860300000000
C           52.26443900000000        0.01632400000000        0.01232200000000
C           62.72897100000000        0.03550500000000        0.01667100000000
C           61.47670100000000        0.01632400000000        0.01232200000000
C           64.04263899999999        0.03473900000000        0.01860300000000
C           65.54577300000000        0.01632400000000        0.01232200000000
C           76.01030500000000        0.03550500000000        0.01667100000000
C           74.75803500000001        0.01632400000000        0.01232200000000
C           77.32397400000001        0.03473900000000        0.01860300000000
C           78.82710700000000        0.01632400000000        0.01232200000000
Zn          56.75700400000000        0.07199000000000        0.02580900000000
C           53.38279699999999       -0.02496800000000       -0.01574700000000
C           54.04161800000000       -1.19804000000000       -0.02055600000000
C           53.39616999999999       -2.51272900000000       -0.00863400000000
C           54.33591599999999       -3.43541200000000       -0.01691400000000
C           55.63957900000000       -2.76549400000000       -0.03830300000000
N           55.46364400000000       -1.34697300000000       -0.03738300000000
C           56.82611000000000       -3.40474200000000       -0.05674700000000
C           58.13523300000000       -2.70865100000000       -0.08242600000000
C           59.42019500000000       -3.41224200000000       -0.18045500000000
C           60.37484100000000       -2.50804800000000       -0.17475000000000
N           58.29614999999999       -1.42190300000000       -0.01846000000000
C           59.70870200000000       -1.21467900000000       -0.07096000000000
C           60.33076799999999       -0.02496800000000       -0.01574700000000
C           59.60643900000000        1.26338800000000        0.09838500000000
C           60.20718600000000        2.43580500000000        0.25279700000000
C           59.17661700000000        3.44863200000000        0.29239200000000
C           58.00721300000000        2.83504700000000        0.15261900000000
C           56.70040199999999        3.54444900000000        0.11655600000000
C           56.70956499999999        5.02661800000000        0.13920400000000
C           56.34193100000000        5.71911900000000        1.30426000000000
C           56.36598000000000        7.11692500000000        1.32771800000000
C           56.76269599999999        7.82903100000000        0.19161200000000
C           57.13309900000000        7.14467000000000       -0.96994700000000
C           57.10889800000000        5.74656200000000       -0.99793500000000
C           55.51830199999999        2.89939200000000        0.06395800000000
C           54.20964300000000        3.54309900000000       -0.00134100000000
C           53.32395500000000        2.57173100000000       -0.04257400000000
C           54.05225200000000        1.29886400000000       -0.00558700000000
N           55.33701700000000        1.48190000000000        0.05536200000000
N           58.18621099999999        1.42208700000000        0.02818100000000
C           56.84789099999999       -4.88338700000000       -0.06285400000000
C           56.70722700000000       -5.58690800000000       -1.26924900000000
C           56.74488699999999       -6.98459900000000       -1.27357600000000
C           56.92404400000000       -7.68425900000000       -0.07646000000000
C           57.06445200000000       -6.98703200000000        1.12753700000000
C           57.02901500000000       -5.58943000000000        1.13581900000000
H           52.33589300000000       -2.72676200000000        0.00771500000000
H           54.14960900000000       -4.50173300000000       -0.00613700000000
H           59.57670000000000       -4.48023100000000       -0.25078800000000
H           61.43398400000000       -2.71821300000000       -0.23754100000000
H           61.26994400000000        2.61971500000000        0.33043700000000
H           59.34237299999999        4.51066200000000        0.40659000000000
H           56.04160099999999        5.17633700000000        2.19153800000000
H           56.08036000000000        7.64870900000000        2.22692700000000
H           56.78318000000000        8.91068600000000        0.21313700000000
H           57.44252900000000        7.69703000000000       -1.84782200000000
H           57.40257699999999        5.22516200000000       -1.90077900000000
H           53.98239599999999        4.60165700000000       -0.01934200000000
H           52.25381800000000        2.71706700000000       -0.09727400000000
H           56.57196300000000       -5.05284200000000       -2.20144200000000
H           56.63769900000000       -7.52564000000000       -2.20478400000000
H           56.95483500000000       -8.76573100000000       -0.08133400000000
H           57.20319100000000       -7.53050400000000        2.05344700000000
H           57.14244300000000       -5.05684500000000        2.07177000000000
Zn          70.03833899999998        0.07199000000000        0.02580900000000
C           66.66413100000000       -0.02496800000000       -0.01574700000000
C           67.32295200000000       -1.19804000000000       -0.02055600000000
C           66.67750400000000       -2.51272900000000       -0.00863400000000
C           67.61725000000000       -3.43541200000000       -0.01691400000000
C           68.92091400000000       -2.76549400000000       -0.03830300000000
N           68.74497899999999       -1.34697300000000       -0.03738300000000
C           70.10744500000000       -3.40474200000000       -0.05674700000000
C           71.41656700000000       -2.70865100000000       -0.08242600000000
C           72.70152899999998       -3.41224200000000       -0.18045500000000
C           73.65617499999999       -2.50804800000000       -0.17475000000000
N           71.57748500000000       -1.42190300000000       -0.01846000000000
C           72.99003599999999       -1.21467900000000       -0.07096000000000
C           73.61210199999998       -0.02496800000000       -0.01574700000000
C           72.88777399999999        1.26338800000000        0.09838500000000
C           73.48851999999999        2.43580500000000        0.25279700000000
C           72.45795099999999        3.44863200000000        0.29239200000000
C           71.28854699999998        2.83504700000000        0.15261900000000
C           69.98173600000000        3.54444900000000        0.11655600000000
C           69.99089900000000        5.02661800000000        0.13920400000000
C           69.62326499999999        5.71911900000000        1.30426000000000
C           69.64731499999999        7.11692500000000        1.32771800000000
C           70.04403100000000        7.82903100000000        0.19161200000000
C           70.41443300000000        7.14467000000000       -0.96994700000000
C           70.39023200000000        5.74656200000000       -0.99793500000000
C           68.79963600000001        2.89939200000000        0.06395800000000
C           67.49097700000000        3.54309900000000       -0.00134100000000
C           66.60529000000000        2.57173100000000       -0.04257400000000
C           67.33358600000000        1.29886400000000       -0.00558700000000
N           68.61835200000000        1.48190000000000        0.05536200000000
N           71.46754500000000        1.42208700000000        0.02818100000000
C           70.12922600000000       -4.88338700000000       -0.06285400000000
C           69.98856200000000       -5.58690800000000       -1.26924900000000
C           70.02622200000000       -6.98459900000000       -1.27357600000000
C           70.20537899999999       -7.68425900000000       -0.07646000000000
C           70.34578599999999       -6.98703200000000        1.12753700000000
C           70.31034900000000       -5.58943000000000        1.13581900000000
H           65.61722700000000       -2.72676200000000        0.00771500000000
H           67.43094300000000       -4.50173300000000       -0.00613700000000
H           72.85803400000000       -4.48023100000000       -0.25078800000000
H           74.71531800000000       -2.71821300000000       -0.23754100000000
H           74.55127899999999        2.61971500000000        0.33043700000000
H           72.62370700000000        4.51066200000000        0.40659000000000
H           69.32293500000000        5.17633700000000        2.19153800000000
H           69.36169500000000        7.64870900000000        2.22692700000000
H           70.06451400000000        8.91068600000000        0.21313700000000
H           70.72386399999999        7.69703000000000       -1.84782200000000
H           70.68391099999999        5.22516200000000       -1.90077900000000
H           67.26373000000000        4.60165700000000       -0.01934200000000
H           65.53515200000000        2.71706700000000       -0.09727400000000
H           69.85329700000000       -5.05284200000000       -2.20144200000000
H           69.91903300000000       -7.52564000000000       -2.20478400000000
H           70.23617000000000       -8.76573100000000       -0.08133400000000
H           70.48452599999999       -7.53050400000000        2.05344700000000
H           70.42377700000000       -5.05684500000000        2.07177000000000
234
 energy: -389.176417652128 gnorm: 0.678099466483 xtb: 6.5.1 (b24c23e)
Zn          42.45611651046714        0.06932119026789        0.01815615343479
C           39.11706490855839       -0.07154970515204        0.00974428434079
C           39.78617662685831       -1.23911303711026       -0.11981506608366
C           39.12979205803226       -2.52904603048360       -0.26974600172018
C           40.07957720340694       -3.45962017763795       -0.31744595362873
C           41.37552086075379       -2.78757416607593       -0.19801163348165
N           41.18387512065451       -1.39637265312457       -0.08019534556174
C           42.57984473710039       -3.42116028348405       -0.15171733169227
C           43.85666471537488       -2.72098895421700       -0.00316596022884
C           45.14313379275485       -3.39137594409464        0.18143204952257
C           46.08780943271822       -2.45260243731435        0.23992746376260
N           44.01358534661327       -1.41700979273873       -0.05981780114866
C           45.41174513474510       -1.17792585075345        0.08508659893676
C           46.01172441090592        0.03257643186871        0.01132137568413
C           45.23689678761823        1.26784562583778       -0.15725201521428
C           45.77405078663746        2.44366627708409       -0.57019460012418
C           44.74578548682682        3.43178379981911       -0.52788388949798
C           43.61353510579173        2.82433232677426       -0.08855821321509
C           42.34716167833824        3.53014032796337        0.15483343539655
C           42.36031154744946        5.01046342258484        0.31162754263264
C           41.69812273270789        5.83751849728593       -0.60951950558924
C           41.73731886377504        7.22420995750569       -0.46506451774837
C           42.43719807914319        7.79758446829026        0.59606391297329
C           43.10125219158007        6.98363985229922        1.51325351788317
C           43.06585105585427        5.59678130751516        1.37242050294040
C           41.17011454862423        2.86517059167613        0.24462422049918
C           39.86550523376572        3.44755395859996        0.52211323318364
C           38.99117327514374        2.44129254518162        0.46979078884702
C           39.73608593397491        1.22580026132461        0.17163328900148
N           41.01850222822895        1.47250008000236        0.04222238044041
N           43.86029749029314        1.44938489506348        0.14756498997668
C           42.60894893139452       -4.90227839461664       -0.24476283353555
C           42.50558122666793       -5.53430084489749       -1.49094818416620
C           42.54373793296850       -6.92567908702137       -1.57507693893408
C           42.68347212853342       -7.69263223122198       -0.41855440042420
C           42.78498017850463       -7.06836961447925        0.82452834165539
C           42.74741494630091       -5.67746957703098        0.91352600272841
H           38.03336346060088       -0.11064291669448        0.00569222543081
H           38.06655144322057       -2.71918899723711       -0.32443176604011
H           39.89252082242805       -4.51982244256430       -0.41531604385029
H           45.32508759760547       -4.45094760732358        0.25423993759560
H           47.14520861799915       -2.63654354212492        0.36489662469475
H           46.80190440128831        2.59618692013674       -0.85510986511400
H           44.84391352643114        4.47681787161533       -0.77745724729851
H           41.15900206124975        5.40286786058092       -1.44534910193530
H           41.22489998200945        7.85826153173701       -1.18124879948940
H           42.46719441571884        8.87616646179246        0.70655869528760
H           43.64862994585732        7.43049304910202        2.33670150116707
H           43.58693955051541        4.97281441084975        2.09149039878165
H           39.61985593740100        4.47877171258816        0.73535266576601
H           37.92883893571770        2.52748136783491        0.62908421077769
H           42.39769359462973       -4.94431239906503       -2.39580167874546
H           42.46513642016077       -7.41206418491565       -2.54172737077624
H           42.71318294599708       -8.77476982069183       -0.48583651799312
H           42.89385351286019       -7.66552920611362        1.72373414684479
H           42.82651104808556       -5.19874312242936        1.88456111596408
Zn          84.48036257640086       -0.02391954878611        0.01612575182649
C           87.81932090387441        0.11723086168225        0.01384197844272
C           87.15026703304224        1.28929260902952       -0.06489820542545
C           87.80661875863248        2.58451912770702       -0.15867266204043
C           86.85682630192277        3.51626988433814       -0.16592178537469
C           85.56091775800378        2.83960296929982       -0.07578544084854
N           85.75248475061169        1.44470670975069       -0.01848047931270
C           84.35639589240888        3.47060959413935       -0.00200425002442
C           83.07978436198296        2.76468990543784        0.11598279468840
C           81.79328517402907        3.42646934279235        0.32950775719232
C           80.84854327876771        2.48617499743584        0.34724466598819
N           82.92232826097423        1.46397513483466        0.00279599748391
C           81.52406302913585        1.21946611477023        0.13715039811464
C           80.92098630314155        0.01299138736612        0.01096673261938
C           81.69885873395053       -1.21383591986561       -0.21113708610986
C           81.16227768278688       -2.37056341859194       -0.67482016373595
C           82.19065049054440       -3.35947009488210       -0.67538246013446
C           83.32280094690630       -2.77160258032525       -0.21011305031747
C           84.58925851702170       -3.48739087613478        0.00241164059160
C           84.57608405915317       -4.97314492080610        0.09477268095845
C           85.23829540730243       -5.75940328636539       -0.86142427119235
C           85.19908213044428       -7.15106317852042       -0.77731092914119
C           84.49920568687158       -7.76996759314415        0.25791781884129
C           83.83515516823813       -6.99662551735702        1.20958591804867
C           83.87053477640903       -5.60495376364532        1.12911007306587
C           85.76627241939863       -2.82695230255969        0.12098522917925
C           87.07091726557383       -3.42083066766688        0.37292186292019
C           87.94522237223160       -2.41327610176325        0.36434860520102
C           87.20028825730139       -1.18598534276194        0.11924747590984
N           85.91789233546514       -1.42677236126117       -0.02075959098796
N           83.07578073825415       -1.40804601382889        0.08547929175688
C           84.32743192470028        4.95444126859210       -0.03065920262836
C           84.43082523523600        5.63995182199064       -1.24823893714927
C           84.39266474593600        7.03368000878399       -1.27185895559380
C           84.25293177191273        7.74968611032004       -0.08312894135025
C           84.15142582625187        7.07204406729758        1.13167111759653
C           84.18898693070321        5.67858341123920        1.16020474092837
H           88.90302556643701        0.15643486671743        0.01149137824302
H           88.86984318211941        2.77685097655369       -0.20505114976956
H           87.04387266790344        4.57971867557412       -0.21766233993447
H           81.61131706592265        4.48183797196454        0.44826851529472
H           79.79113249578010        2.66432636681157        0.48003159725414
H           80.13443263079313       -2.51047492153504       -0.96602580775722
H           82.09249921605114       -4.39267029027496       -0.97010670958718
H           85.77740039250503       -5.28887030664840       -1.67759084265150
H           85.71150049448002       -7.75340822970486       -1.52034923114743
H           84.46920843333663       -8.85232393857184        0.32147331890469
H           83.28777796168865       -7.47880127559038        2.01285020777173
H           83.34946502069222       -5.01280008456467        1.87459843195056
H           87.31654520715757       -4.46032876634702        0.54118213630352
H           89.00755017200727       -2.50627313131181        0.51974405240767
H           84.53870928761863        5.08981562647435       -2.17785179074249
H           84.47126711486099        7.56156893858686       -2.21647562621900
H           84.22322128333806        8.83371802583857       -0.10335964003858
H           84.04255118824869        7.62958203081087        2.05595749252630
H           84.10989355574618        5.15814573278539        2.10952954012981
C           49.43783687095819        0.03553104201777        0.01681487063191
C           48.17490176680173        0.01817114872221        0.01232871559928
C           50.78235465027229        0.03382833457291        0.01815481492924
C           52.13217638201215        0.02236567481588        0.01405334989408
C           62.77478587748322        0.03719123891983        0.01675868608103
C           61.54377263358447        0.02562166238426        0.01317151789776
C           64.07298743766614        0.03387585607273        0.01845374723182
C           65.41991698692023        0.02243223972624        0.01418779449231
C           76.06269763517567        0.03690953768854        0.01663708828400
C           74.83205114891724        0.02545606155341        0.01301101834442
C           77.39621392719519        0.03348322109631        0.01860190473349
C           78.79441898718456        0.01611467911750        0.01237672849020
Zn          56.76159114904571        0.07022163842930        0.02545449055201
C           53.41657193732223       -0.01286406086394       -0.01641102111943
C           54.06569484047434       -1.21579577508970       -0.02085044462146
C           53.39602031330198       -2.50402634406645       -0.00865152844614
C           54.34587984583263       -3.43888077718095       -0.01698927904832
C           55.63644720404114       -2.76311901260866       -0.03810004016908
N           55.45032348787797       -1.36442092823400       -0.03729582023958
C           56.83950492718294       -3.40291007746651       -0.05730170330339
C           58.12831783503157       -2.72816013061458       -0.08257354840714
C           59.40736153955694       -3.42247645641755       -0.18024772443484
C           60.37268953133845       -2.50014718661589       -0.17433838346837
N           58.30244933904203       -1.42380119827352       -0.01958785276593
C           59.68368346599179       -1.23278864524577       -0.07241494568853
C           60.27524422409591       -0.01437875075039       -0.01459305736968
C           59.58113310337381        1.26268087285157        0.09655496157149
C           60.20661059388929        2.45329030487819        0.25434236271135
C           59.19266290629823        3.45209165885610        0.29302452320860
C           57.99489319359428        2.82867058645386        0.15042643990797
C           56.71163690981116        3.53838060957438        0.11686802717270
C           56.71355822863501        5.02706213645908        0.13992440833395
C           56.34244189903678        5.72076589410333        1.30118165690782
C           56.36690301132996        7.11506169678513        1.32450441023096
C           56.76251586541031        7.82594391196828        0.19155744097862
C           57.13191064617259        7.14274540490220       -0.96693703868186