232
 energy: -347.721223622589 gnorm: 2.580334342771 xtb: 6.5.1 (b24c23e)
C           29.09780000000000       -0.01351900000000       -0.00911500000000
C           29.82298800000000       -1.39228900000000        0.03406700000000
C           29.20534400000000       -2.61818600000000        0.12769500000000
C           30.22726800000000       -3.60108800000000        0.09884000000000
C           31.43564900000000       -2.94129500000000       -0.01165400000000
N           31.17860400000000       -1.59375400000000       -0.01937800000000
C           32.86937000000000       -3.61137800000000       -0.13338000000000
C           32.92145000000000       -5.09726100000000       -0.28086700000000
C           32.85080900000000       -5.68951800000000       -1.56302300000000
C           32.74063900000000       -4.84359800000000       -2.80481300000000
C           32.88917800000000       -7.08872000000000       -1.68233300000000
C           33.00370700000000       -7.90776200000000       -0.55399800000000
C           33.00785800000000       -9.39918400000000       -0.69640500000000
C           33.05725000000000       -7.31699000000000        0.71288300000000
C           33.02274500000000       -5.92098500000000        0.86455900000000
C           33.09238700000000       -5.32430300000000        2.24615200000000
C           33.99563400000000       -2.84679500000000       -0.13037400000000
C           35.30854300000000       -3.43622600000000       -0.29113100000000
C           36.21002200000000       -2.46225800000000       -0.27537800000000
N           34.18521000000000       -1.49437900000000       -0.00487000000000
C           35.52231700000000       -1.19917800000000       -0.08691400000000
C           36.19399400000000       -0.01811800000000       -0.02018200000000
C           35.42198800000000        1.34982300000000        0.22923800000000
C           35.99239400000000        2.54012800000000        0.63848900000000
C           34.96493499999999        3.51211900000000        0.69680600000000
C           33.79029900000000        2.88842100000000        0.33498500000000
N           34.07124100000000        1.56464000000000        0.08489200000000
C           32.36287600000000        3.58011600000000        0.23028800000000
C           32.30542700000000        5.07125500000000        0.22437400000000
C           32.44060100000000        5.78111500000000       -0.99078000000000
C           32.63678500000000        5.05497900000000       -2.29603400000000
C           32.38112900000000        7.18474700000000       -0.98344600000000
C           32.19968900000000        7.89434300000000        0.20826900000000
C           32.09584900000000        9.38901700000000        0.19674500000000
C           32.05573200000000        7.18629100000000        1.40620500000000
C           32.11631500000000        5.78312100000000        1.43197900000000
C           31.95042000000000        5.06069100000000        2.74336200000000
C           31.24348600000000        2.81489500000000        0.13827200000000
C           29.91415200000000        3.39072300000000        0.03399900000000
C           29.03234900000000        2.39810700000000       -0.02468300000000
C           29.76300400000000        1.15579600000000        0.03189900000000
N           31.08682700000000        1.45650700000000        0.12100800000000
H           28.01674100000000       -0.01268700000000       -0.08390300000000
H           28.14203800000000       -2.78634500000000        0.19750300000000
H           30.09648900000000       -4.67173100000000        0.13969200000000
H           31.88406600000000       -0.86067000000000       -0.05432800000000
H           31.83927200000000       -4.22409800000000       -2.77333600000000
H           32.67235700000000       -5.46532100000000       -3.70429200000000
H           33.62389400000000       -4.20775500000000       -2.91747700000000
H           32.83064600000000       -7.53910700000000       -2.67006700000000
H           31.98324900000000       -9.78181300000000       -0.66273200000000
H           33.46652100000000       -9.70047900000000       -1.64396000000000
H           33.58680000000000       -9.86769200000000        0.10642200000000
H           33.12856500000000       -7.94591700000000        1.59669700000000
H           32.19117600000000       -4.74187700000000        2.46088300000000
H           33.16306500000000       -6.10417200000000        3.01229600000000
H           33.97725100000000       -4.68888900000000        2.34959600000000
H           35.52502900000000       -4.48268300000000       -0.41224200000000
H           37.26905200000000       -2.61259400000000       -0.37707300000000
H           37.03563900000000        2.70229500000000        0.86245600000000
H           35.07019600000000        4.55188700000000        0.96893200000000
H           33.37663300000000        0.85540500000000       -0.13742800000000
H           32.72062700000000        5.75754200000000       -3.13248000000000
H           33.55912600000000        4.46634500000000       -2.27683100000000
H           31.78393300000000        4.40206400000000       -2.50637900000000
H           32.47397400000000        7.72472500000000       -1.92236000000000
H           32.53907400000000        9.81613200000000        1.10184700000000
H           31.04562900000000        9.69069000000000        0.14128200000000
H           32.62929500000000        9.81511000000000       -0.65888700000000
H           31.89184600000000        7.72830400000000        2.33414400000000
H           31.93279600000000        5.76421400000000        3.58318700000000
H           31.00719900000000        4.50649100000000        2.76033500000000
H           32.78502100000000        4.37604500000000        2.92110400000000
H           29.68059500000000        4.44009100000000        0.01088000000000
H           27.96521500000000        2.49761100000000       -0.10334900000000
C           64.47383700000000       -0.02214800000000       -0.00889600000000
C           63.74864899999999        1.35703500000000       -0.03585000000000
C           64.36629200000000        2.58610600000000       -0.00465300000000
C           63.34436899999999        3.56627100000000       -0.08343100000000
C           62.13598700000000        2.90171400000000       -0.16024500000000
N           62.39303200000000        1.55552300000000       -0.09946600000000
C           60.70226600000000        3.56474400000000       -0.31587300000000
C           60.65018599999999        5.04121000000000       -0.53869400000000
C           60.72082800000000        5.56753100000000       -1.84929700000000
C           60.83099700000000        4.65958700000000       -3.04648500000000
C           60.68245800000000        6.95886000000000       -2.03957200000000
C           60.56792900000000        7.83419500000000       -0.95432600000000
C           60.56377799999999        9.31645100000000       -1.17235600000000
C           60.51438600000000        7.30858100000000        0.34094600000000
C           60.54889100000000        5.92208900000000        0.56338200000000
C           60.47924900000000        5.39640300000000        1.97351800000000
C           59.57600300000000        2.80130200000000       -0.27400900000000
C           58.26309299999999        3.38180000000000       -0.46451800000000
C           57.36161400000000        2.40989200000000       -0.39928000000000
N           59.38642600000000        1.45701300000000       -0.07992600000000
C           58.04931900000000        1.15802400000000       -0.14685900000000
C           57.37764200000000       -0.01811800000000       -0.02018200000000
C           58.14964800000000       -1.37161300000000        0.29844600000000
C           57.57924199999999       -2.53957700000000        0.76767000000000
C           58.60670100000000       -3.50734800000000        0.87531500000000
C           59.78133700000000       -2.90284700000000        0.48226100000000
N           59.50039599999999       -1.59348900000000        0.16520500000000
C           61.20875999999999       -3.59897000000000        0.41285700000000
C           61.26620900000000       -5.08848100000000        0.48274300000000
C           61.13103500000000       -5.85918800000000       -0.69475900000000
C           60.93485199999999       -5.20033500000000       -2.03523500000000
C           61.19050699999999       -7.26063400000000       -0.61609000000000
C           61.37194699999999       -7.90873900000000        0.61015200000000
C           61.47578700000000       -9.40206600000000        0.67461500000000
C           61.51590400000000       -7.14071300000000        1.77055000000000
C           61.45532200000000       -5.73804700000000        1.72497000000000
C           61.62121600000000       -4.94989500000000        2.99793800000000
C           62.32815100000000       -2.83941500000000        0.28206400000000
C           63.65748400000000       -3.41979800000000        0.20719500000000
C           64.53928700000000       -2.43144800000000        0.09813500000000
C           63.80863200000000       -1.18786700000000        0.09150000000000
N           62.48481000000000       -1.48366000000000        0.19577800000000
H           65.55489500000000       -0.02678000000000       -0.08354500000000
H           65.42959800000000        2.75759600000000        0.05651700000000
H           63.47514700000000        4.63760600000000       -0.09705000000000
H           61.68757000000000        0.82161000000000       -0.09710900000000
H           61.73236400000000        4.04248800000000       -2.98356100000000
H           60.89927900000000        5.23478700000000       -3.97640300000000
H           59.94774199999999        4.01883900000000       -3.12668400000000
H           60.74098999999999        7.35846000000000       -3.04892200000000
H           61.58838699999999        9.70029800000000       -1.15817500000000
H           60.10511500000000        9.56919400000000       -2.13400000000000
H           59.98483600000000        9.82516000000000       -0.39438000000000
H           60.44307200000000        7.98161800000000        1.19164900000000
H           61.38045999999999        4.82564400000000        2.21757400000000
H           60.40857099999999        6.21420600000000        2.69903200000000
H           59.59438500000000        4.76706900000000        2.10912500000000
H           58.04660699999999        4.42074900000000       -0.63866200000000
H           56.30258400000000        2.55486500000000       -0.50848500000000
H           56.53599800000000       -2.69015100000000        0.99959000000000
H           58.50144000000000       -4.53194000000000        1.19994000000000
H           60.19500299999999       -0.89647100000000       -0.09287700000000
H           60.85100900000000       -5.94450500000000       -2.83489000000000
H           60.01250999999999       -4.61148600000000       -2.04597600000000
H           61.78770400000000       -4.55895600000000       -2.27849400000000
H           61.09766200000000       -7.84763700000000       -1.52634400000000
H           61.03256200000000       -9.78262500000000        1.60025600000000
H           62.52600699999999       -9.70616800000000        0.63455600000000
H           60.94234099999999       -9.87109900000000       -0.15825400000000
H           61.67979000000000       -7.63486000000000        2.72483900000000
H           61.63884000000000       -5.60982200000000        3.87243600000000
H           62.56443700000000       -4.39554900000000        2.98672000000000
H           60.78661500000000       -4.25709900000000        3.14065100000000
H           63.89104100000000       -4.46898400000000        0.23744400000000
H           65.60642100000000       -2.53482200000000        0.02462900000000
C           39.44191800000000       -0.00568100000000       -0.01774000000000
C           38.18964800000000       -0.02486200000000       -0.02208800000000
C           40.75558600000000       -0.00644700000000       -0.01580700000000
C           42.25872000000000       -0.02486200000000       -0.02208800000000
C           52.65519300000000       -0.00568100000000       -0.01774000000000
C           51.40292200000000       -0.02486200000000       -0.02208800000000
C           53.96886100000000       -0.00644700000000       -0.01580700000000
C           55.47199400000000       -0.02486200000000       -0.02208800000000
C           43.19609400000000        0.03941300000000        0.04329600000000
C           43.98448200000000       -0.74558500000000        1.17330700000000
C           43.45697400000000       -1.24329300000000        2.34760000000000
C           44.49248700000000       -1.94631200000000        3.01324000000000
C           45.62401700000000       -1.84547900000000        2.23275100000000
N           45.32251500000000       -1.05606500000000        1.15040600000000
C           47.02308300000000       -2.53687400000000        2.51296000000000
C           47.03045300000000       -3.76891400000000        3.35643400000000
C           46.77066600000000       -5.02988200000000        2.77107400000000
C           46.48816400000000       -5.15869900000000        1.29674900000000
C           46.79022500000000       -6.18374300000000        3.57263700000000
C           47.05326800000000       -6.10737700000000        4.94427800000000
C           47.11467500000000       -7.35200600000000        5.77558100000000
C           47.32025800000000       -4.85899900000000        5.51621400000000
C           47.30179400000000       -3.68621800000000        4.74238600000000
C           47.60144200000000       -2.36422200000000        5.40016000000000
C           48.15566699999999       -2.03832000000000        1.94919200000000
C           49.44747700000000       -2.66518100000000        2.14080700000000
C           50.35628199999999       -1.96610500000000        1.47069300000000
N           48.36181200000000       -0.95507600000000        1.13934700000000
C           49.68953100000000       -0.85856100000000        0.81515400000000
C           50.35643100000000        0.03941300000000        0.04329600000000
C           49.56799099999999        1.22797700000000       -0.64838700000000
C           50.09248800000000        2.44245100000000       -1.04175900000000
C           49.05733599999999        3.16061200000000       -1.69196500000000
C           47.92808200000000        2.36932700000000       -1.66365900000000
N           48.23158700000000        1.22548500000000       -0.96758500000000
C           46.52910899999999        2.70245900000000       -2.33252100000000
C           46.52331899999999        3.64988600000000       -3.48659600000000
C           46.79284700000000        3.17845300000000       -4.79228300000000
C           47.07499099999999        1.72092000000000       -5.05120200000000
C           46.79605200000000        4.08169600000000       -5.86825000000000
C           46.52599299999999        5.44053200000000       -5.67269000000000
C           46.56602599999999        6.39528200000000       -6.82702100000000
C           46.27353500000000        5.90418500000000       -4.37728700000000
C           46.26483700000000        5.02572600000000       -3.28073300000000
C           45.97840800000000        5.56573800000000       -1.90376600000000
C           45.39706700000000        2.09805200000000       -1.88281900000000
C           44.10535100000000        2.34082500000000       -2.49067700000000
C           43.19703800000000        1.61677000000000       -1.84683900000000
C           43.86372300000000        0.87553900000000       -0.79474000000000
N           45.19201900000000        1.20220900000000       -0.86955900000000
H           42.43568100000000       -1.13664600000000        2.67953700000000
H           44.41686099999999       -2.48449300000000        3.94615800000000
H           45.99231300000000       -0.73083800000000        0.45883300000000
H           45.59734300000000       -4.58717700000000        1.02174900000000
H           47.34432800000000       -4.81534000000000        0.70957900000000
H           46.29955900000000       -6.20032500000000        1.01865200000000
H           46.60139200000000       -7.15132400000000        3.11449500000000
H           46.78647200000000       -7.15327900000000        6.80091400000000
H           46.45682300000000       -8.12680000000000        5.36917000000000
H           48.13905900000000       -7.73475200000000        5.80045800000000
H           47.54896300000000       -4.79161600000000        6.57687100000000
H           46.80294200000000       -1.64127400000000        5.20663600000000
H           47.67688700000000       -2.47190300000000        6.48826300000000
H           48.55567300000000       -1.96478500000000        5.04319200000000
H           49.64401800000000       -3.54840500000000        2.72261700000000
H           51.40470100000000       -2.19982500000000        1.43352800000000
H           51.11249700000000        2.76880400000000       -0.90268400000000
H           49.13286500000000        4.13606100000000       -2.14881800000000
H           47.56378000000000        0.50653600000000       -0.70345600000000
H           47.24690100000000        1.53378500000000       -6.11586500000000
H           46.22342900000000        1.10386800000000       -4.74973400000000
H           47.97429500000000        1.40026900000000       -4.51758500000000
H           47.00937900000000        3.71413000000000       -6.86909900000000
H           46.23744500000000        5.90599800000000       -7.75007600000000
H           47.58430000000000        6.76985300000000       -6.96647300000000
H           45.89755000000000        7.24558600000000       -6.65582800000000
H           46.07924100000000        6.96122300000000       -4.21303800000000
H           46.81649800000000        5.36997200000000       -1.22674200000000
H           45.83138600000000        6.65223100000000       -1.92689600000000
H           45.06263600000000        5.12505600000000       -1.49865100000000
H           43.90916900000000        2.99343300000000       -3.32273600000000
H           42.14887800000000        1.59960300000000       -2.08247900000000
232
 energy: -348.409750411926 gnorm: 0.592107777999 xtb: 6.5.1 (b24c23e)
C           29.10815333904278       -0.03148099913021       -0.00859801544383
C           29.81885318494326       -1.37976998349082        0.03398515220512
C           29.20740153198373       -2.62222106616819        0.12702031885556
C           30.22450333898524       -3.59999778412272        0.09825280718242
C           31.44832499588844       -2.94510093055756       -0.01237873232552
N           31.17893732704351       -1.59366172805491       -0.01981665636970
C           32.85202530830808       -3.60284780986752       -0.13197251052238
C           32.91922720789344       -5.09636180181255       -0.28037704058085
C           32.85089182893621       -5.69058212843415       -1.56084435372326
C           32.74049054665705       -4.84428034787871       -2.80511571677270
C           32.88954354879263       -7.08673950210513       -1.68046957259561
C           33.00283275183231       -7.90519965412063       -0.55370577224866
C           33.00905528710574       -9.39984977875564       -0.69655589077474
C           33.05738598597647       -7.31471539137793        0.71139955637900
C           33.02254020302023       -5.92168098906949        0.86230486727248
C           33.09233900601965       -5.32501343529199        2.24634393706058
C           33.99822345710811       -2.84338433843722       -0.13048025167535
C           35.30942196646621       -3.44021066471306       -0.29164025835405
C           36.21451472965582       -2.46330529611030       -0.27558069997791
N           34.18272720367118       -1.48951458659321       -0.00524648179663
C           35.52545521558768       -1.20040837308763       -0.08739070056507
C           36.20301769675302       -0.00219103358891       -0.01490347189783
C           35.43070381724251        1.33746815970545        0.22717782563970
C           35.99151982033068        2.54302088432962        0.63771952176454
C           34.96769095097146        3.51070838454971        0.69617753406296
C           33.77805519337329        2.89185880888405        0.33377357851683
N           34.07246584175829        1.56407505373623        0.08428726905832
C           32.38009900125112        3.57171891532908        0.23121236864299
C           32.30781983730356        5.07042980200226        0.22502632256721
C           32.44044758728203        5.78199124352281       -0.98853114704959
C           32.63682507040932        5.05567856243334       -2.29629910899289
C           32.38101756227793        7.18261045881481       -0.98176334148121
C           32.19900374219959        7.89170535503626        0.20809177250592
C           32.09694050018590        9.38971728462998        0.19676870747502
C           32.05614322779366        7.18417147658163        1.40457714548089
C           32.11627598090478        5.78408044216256        1.42979359943104
C           31.95084235642333        5.06139384822093        2.74372682630926
C           31.24115789625197        2.81224258688138        0.13737784758664
C           29.91325643165100        3.39529506751820        0.03413187975398
C           29.02888660586255        2.40026126350449       -0.02492390461497
C           29.76605339201901        1.15865856456524        0.03165086432846
N           31.09150796835355        1.45341154390025        0.12119242231448
H           28.02021819735249       -0.01589762119866       -0.08325290986433
H           28.14280647506851       -2.78723985911603        0.19748750804649
H           30.09586386171087       -4.67118452117768        0.13973318760088
H           31.88346854753551       -0.86137451985589       -0.05439630880155
H           31.84036336883311       -4.22357690024207       -2.77271433492145
H           32.67249773319208       -5.46558160660279       -3.70327704951628
H           33.62285324938595       -4.20731830633513       -2.91675778654337
H           32.83081390627125       -7.53852570814870       -2.66908858374986
H           31.98401750377153       -9.78187514255746       -0.66278578951842
H           33.46563650610332       -9.70019829594629       -1.64385262430352
H           33.58589861252284       -9.86739016821648        0.10647937769346
H           33.12862096779688       -7.94516618868839        1.59584596276925
H           32.19219050707847       -4.74124609480537        2.46027590925969
H           33.16301518366731       -6.10422449848153        3.01125732343373
H           33.97609822217367       -4.68838993650806        2.34907679795711
H           35.52408353870594       -4.48493229855841       -0.41239849293823
H           37.27172592082563       -2.61092319324533       -0.37712470662085
H           37.03519450836795        2.70263543679931        0.86227905458855
H           35.07082310643123        4.55106090528551        0.96883412260189
H           33.37751442471178        0.85592903012862       -0.13725514519110
H           32.72045555767572        5.75769566006573       -3.13146435146582
H           33.55798844819311        4.46575931353349       -2.27631756831355
H           31.78500524274081        4.40160778702088       -2.50564266583575
H           32.47403653222173        7.72406929471778       -1.92142644984717
H           32.53823602871287        9.81587455229435        1.10181241693374
H           31.04634146057887        9.69080712921122        0.14139814844613
H           32.62854337746917        9.81470172086733       -0.65890615374679
H           31.89221768283533        7.72765244950745        2.33328581094316
H           31.93263888241417        5.76436405377511        3.58215815977536
H           31.00829305075619        4.50601733656575        2.75992351787750
H           32.78403782765302        4.37548564873383        2.92025238537222
H           29.68142519310842        4.44257141308479        0.01095140162763
H           27.96310916191686        2.49699186495517       -0.10349101447926
C           64.46353988243716       -0.00434650823256       -0.00929113460100
C           63.75277619757423        1.34472755924649       -0.03528815127405
C           64.36427565187591        2.58994442765585       -0.00551314630032
C           63.34695483875507        3.56518515039708       -0.08396280267716
C           62.12358430713895        2.90547162678822       -0.16115473039675
N           62.39273361982390        1.55542701933429       -0.09992339429609
C           60.71918226920041        3.55626180179032       -0.31403640499038
C           60.65239193550826        5.04032646353418       -0.53817575203740
C           60.72074824555617        5.56870222172012       -1.84717594574821
C           60.83114442811083        4.66025205706974       -3.04682121729126
C           60.68209334173099        6.95697628342277       -2.03760956401565
C           60.56880278427428        7.83164806658326       -0.95390297961705
C           60.56258093800821        9.31710870140545       -1.17254020226943
C           60.51425245471692        7.30622969710379        0.33957763504755
C           60.54909929003099        5.92265785523480        0.56109635544055
C           60.47929653118357        5.39712093870076        1.97367322485436
C           59.57352408310358        2.79828708622147       -0.27385974731981
C           58.26232695314609        3.38587892409802       -0.46524586778052
C           57.35723398141605        2.41097598157507       -0.39956540132543
N           59.38819464895708        1.45152210045368       -0.08003604257657
C           58.04647212977161        1.15981746476049       -0.14795192514327
C           57.36281229745623       -0.03391548703631       -0.01414843705033
C           58.14084640082085       -1.35979684548634        0.29622923311204
C           57.58012188494748       -2.54230913797748        0.76705918661385
C           58.60418620347635       -3.50602889574836        0.87460011810911
C           59.79335405760780       -2.90638244448813        0.48126826055114
N           59.49902502882006       -1.59290298314984        0.16458340497470
C           61.19172271167055       -3.59058818205046        0.41332202221088
C           61.26383239806070       -5.08761692019771        0.48334147369983
C           61.13118662483092       -5.85995107547117       -0.69246679154143
C           60.93481217289511       -5.20104732641966       -2.03546223087864
C           61.19061707134794       -7.25841608499083       -0.61451827592397
C           61.37263035083863       -7.90610755747657        0.60984011855410
C           61.47469730350772       -9.40276597918234        0.67467410697108
C           61.51549171730602       -7.13867907324156        1.76881641399928
C           61.45536158106387       -5.73911469303996        1.72282945086466
C           61.62079337833737       -4.95057745000868        2.99833625084806
C           62.33045936473211       -2.83690783319001        0.28106534995436
C           63.65838441951732       -3.42435681712954        0.20755834245786
C           64.54274783683221       -2.43361758245449        0.09800365380268
C           63.80565739438340       -1.19071342977131        0.09139638451632
N           62.48009452435050       -1.48051856843711        0.19581346521304
H           65.55143152059138       -0.02355613625834       -0.08306662795018
H           65.42883608200071        2.75847293493398        0.05645409847724
H           63.47575202951704        4.63706850608234       -0.09698628761819
H           61.68817489107482        0.82231590315505       -0.09721534959152
H           61.73127357831661        4.04199917558814       -2.98291229820655
H           60.89913815647655        5.23509905556133       -3.97540311765962
H           59.94878201067394        4.01843909925875       -3.12594219875189
H           60.74082226454820        7.35792917981249       -3.04791586024573
H           61.58761910292387        9.70035806060421       -1.15823183039833
H           60.10599894221892        9.56891963716981       -2.13387910066308
H           59.98573709755580        9.82486156819133       -0.39430740263898
H           60.44301605879571        7.98082287111489        1.19083653284620
H           61.37944626084585        4.82498336669396        2.21699901066375
H           60.40862060705280        6.21420562030286        2.69799124407944
H           59.59553777068074        4.76654454858704        2.10863061050726
H           58.04755187316705        4.42300800054422       -0.63893927538339
H           56.29990567316678        2.55315509631762       -0.50843636560139
H           56.53641680089870       -2.69045504749579        0.99940070644608
H           58.50083255475746       -4.53113246971712        1.19978853601664
H           60.19409085481674       -0.89698048517771       -0.09267491981375
H           60.85118033154063       -5.94460742770146       -2.83386891433438
H           60.01364779246790       -4.61087483079294       -2.04549053511264
H           61.78663181082916       -4.55846237262103       -2.27778040364822
H           61.09759949602796       -7.84693688296831       -1.52544605489271
H           61.03339912906760       -9.78237134606031        1.60020953512669
H           62.52529613412413       -9.70628147882646        0.63467783108041
H           60.94309196132897       -9.87069347729402       -0.15829439836805
H           61.67941847728165       -7.63425479989291        2.72395060189269
H           61.63899719017645       -5.61002491127559        3.87141784150043
H           62.56334292495563       -4.39509625886059        2.98628402913312
H           60.78759781124108       -4.25658388252510        3.13977032067081
H           63.89021385203881       -4.47145956407917        0.23764093507622
H           65.60852837553428       -2.53421252978264        0.02445575862462