310
 energy: -465.756550546043 gnorm: 3.592134399970 xtb: 6.5.1 (b24c23e)
C           45.88464700000000       -0.02260600000000       -0.01916600000000
C           46.60983500000000       -1.40137700000000        0.02401700000000
C           45.99219200000000       -2.62727300000000        0.11764500000000
C           47.01411500000000       -3.61017600000000        0.08878900000000
C           48.22249699999999       -2.95038200000000       -0.02170400000000
N           47.96545200000000       -1.60284100000000       -0.02942800000000
C           49.65621800000000       -3.62046500000000       -0.14343000000000
C           49.70829800000000       -5.10634900000000       -0.29091700000000
C           49.63765600000000       -5.69860500000000       -1.57307400000000
C           49.52748699999999       -4.85268500000000       -2.81486300000000
C           49.67602600000000       -7.09780700000000       -1.69238300000000
C           49.79055500000000       -7.91684900000000       -0.56404800000000
C           49.79470600000000       -9.40827100000000       -0.70645500000000
C           49.84409800000000       -7.32607800000000        0.70283300000000
C           49.80959300000000       -5.93007200000000        0.85450900000000
C           49.87923500000000       -5.33339000000000        2.23610200000000
C           50.78248100000000       -2.85588200000000       -0.14042500000000
C           52.09539100000000       -3.44531300000000       -0.30118100000000
C           52.99687000000000       -2.47134600000000       -0.28542800000000
N           50.97205799999999       -1.50346600000000       -0.01492100000000
C           52.30916499999999       -1.20826500000000       -0.09696400000000
C           52.98084200000000       -0.02720500000000       -0.03023200000000
C           52.20883499999999        1.34073600000000        0.21918800000000
C           52.77924200000000        2.53104000000000        0.62843900000000
C           51.75178300000000        3.50303100000000        0.68675500000000
C           50.57714699999999        2.87933400000000        0.32493500000000
N           50.85808800000000        1.55555200000000        0.07484100000000
C           49.14972400000000        3.57102900000000        0.22023800000000
C           49.09227500000000        5.06216700000000        0.21432400000000
C           49.22744899999999        5.77202700000000       -1.00083000000000
C           49.42363200000000        5.04589100000000       -2.30608500000000
C           49.16797700000000        7.17566000000000       -0.99349600000000
C           48.98653700000000        7.88525500000000        0.19821900000000
C           48.88269700000000        9.37992900000000        0.18669500000000
C           48.84257999999999        7.17720400000000        1.39615500000000
C           48.90316200000000        5.77403400000000        1.42192900000000
C           48.73726700000000        5.05160300000000        2.73331200000000
C           48.03033299999999        2.80580800000000        0.12822100000000
C           46.70100000000000        3.38163500000000        0.02394900000000
C           45.81919700000000        2.38901900000000       -0.03473400000000
C           46.54985199999999        1.14670800000000        0.02184900000000
N           47.87367399999999        1.44742000000000        0.11095700000000
H           44.80358900000000       -0.02177500000000       -0.09395400000000
H           44.92888600000000       -2.79543200000000        0.18745200000000
H           46.88333700000000       -4.68081800000000        0.12964200000000
H           48.67091400000000       -0.86975700000000       -0.06437800000000
H           48.62611900000000       -4.23318600000000       -2.78338600000000
H           49.45920499999999       -5.47440800000000       -3.71434200000000
H           50.41074200000000       -4.21684200000000       -2.92752700000000
H           49.61749400000000       -7.54819400000000       -2.68011700000000
H           48.77009700000000       -9.79090100000000       -0.67278300000000
H           50.25336800000000       -9.70956700000000       -1.65401000000000
H           50.37364699999999       -9.87677900000000        0.09637100000000
H           49.91541200000000       -7.95500500000000        1.58664700000000
H           48.97802400000000       -4.75096400000000        2.45083200000000
H           49.94991300000000       -6.11326000000000        3.00224600000000
H           50.76409899999999       -4.69797700000000        2.33954600000000
H           52.31187700000000       -4.49177000000000       -0.42229300000000
H           54.05589999999999       -2.62168200000000       -0.38712300000000
H           53.82248599999999        2.69320800000000        0.85240600000000
H           51.85704400000000        4.54279900000000        0.95888200000000
H           50.16348100000000        0.84631800000000       -0.14747800000000
H           49.50747500000000        5.74845500000000       -3.14253100000000
H           50.34597400000000        4.45725800000000       -2.28688100000000
H           48.57078000000000        4.39297700000000       -2.51642900000000
H           49.26082199999999        7.71563700000000       -1.93241000000000
H           49.32592199999999        9.80704400000000        1.09179700000000
H           47.83247700000000        9.68160200000000        0.13123200000000
H           49.41614300000000        9.80602300000000       -0.66893700000000
H           48.67869300000000        7.71921600000000        2.32409400000000
H           48.71964400000000        5.75512700000000        3.57313700000000
H           47.79404699999999        4.49740400000000        2.75028500000000
H           49.57186899999999        4.36695700000000        2.91105400000000
H           46.46744300000000        4.43100300000000        0.00083000000000
H           44.75206200000000        2.48852300000000       -0.11339900000000
C           94.47395899999999       -0.03123600000000       -0.01894600000000
C           93.74877100000000        1.34794800000000       -0.04590000000000
C           94.36641399999999        2.57701800000000       -0.01470300000000
C           93.34449100000000        3.55718400000000       -0.09348100000000
C           92.13610900000000        2.89262700000000       -0.17029500000000
N           92.39315400000000        1.54643500000000       -0.10951600000000
C           90.70238800000000        3.55565700000000       -0.32592300000000
C           90.65030800000000        5.03212300000000       -0.54874500000000
C           90.72095000000000        5.55844400000000       -1.85934800000000
C           90.83111900000000        4.65049900000000       -3.05653500000000
C           90.68257999999999        6.94977300000000       -2.04962200000000
C           90.56805099999998        7.82510800000000       -0.96437600000000
C           90.56390000000000        9.30736300000000       -1.18240600000000
C           90.51450799999999        7.29949300000000        0.33089500000000
C           90.54901299999999        5.91300200000000        0.55333200000000
C           90.47937100000000        5.38731500000000        1.96346800000000
C           89.57612499999999        2.79221500000000       -0.28405900000000
C           88.26321500000000        3.37271300000000       -0.47456800000000
C           87.36173599999999        2.40080500000000       -0.40933000000000
N           89.38654800000000        1.44792600000000       -0.08997700000000
C           88.04944100000000        1.14893600000000       -0.15690900000000
C           87.37776399999998       -0.02720500000000       -0.03023200000000
C           88.14977100000000       -1.38070000000000        0.28839600000000
C           87.57936400000000       -2.54866500000000        0.75761900000000
C           88.60682299999999       -3.51643500000000        0.86526500000000
C           89.78145900000000       -2.91193400000000        0.47221000000000
N           89.50051800000000       -1.60257600000000        0.15515400000000
C           91.20888200000000       -3.60805700000000        0.40280600000000
C           91.26633099999998       -5.09756900000000        0.47269300000000
C           91.13115700000000       -5.86827600000000       -0.70481000000000
C           90.93497400000000       -5.20942200000000       -2.04528500000000
C           91.19062900000000       -7.26972100000000       -0.62614000000000
C           91.37206900000000       -7.91782600000000        0.60010100000000
C           91.47590899999999       -9.41115400000000        0.66456400000000
C           91.51602600000000       -7.14980000000000        1.76050000000000
C           91.45544399999999       -5.74713400000000        1.71492000000000
C           91.62133900000001       -4.95898200000000        2.98788700000000
C           92.32827299999998       -2.84850200000000        0.27201400000000
C           93.65760600000000       -3.42888600000000        0.19714400000000
C           94.53940900000001       -2.44053500000000        0.08808500000000
C           93.80875399999999       -1.19695400000000        0.08145000000000
N           92.48493200000000       -1.49274800000000        0.18572800000000
H           95.55501699999999       -0.03586800000000       -0.09359500000000
H           95.42972000000000        2.74850800000000        0.04646600000000
H           93.47526900000000        4.62851900000000       -0.10710100000000
H           91.68769199999998        0.81252200000000       -0.10716000000000
H           91.73248599999999        4.03340000000000       -2.99361100000000
H           90.89940100000000        5.22569900000000       -3.98645300000000
H           89.94786400000000        4.00975100000000       -3.13673500000000
H           90.74111200000000        7.34937300000000       -3.05897200000000
H           91.58850900000000        9.69121000000000       -1.16822500000000
H           90.10523699999999        9.56010700000000       -2.14405000000000
H           89.98495900000000        9.81607200000000       -0.40443000000000
H           90.44319399999999        7.97253000000000        1.18159900000000
H           91.38058200000000        4.81655700000000        2.20752400000000
H           90.40869300000000        6.20511900000000        2.68898100000000
H           89.59450699999999        4.75798100000000        2.09907500000000
H           88.04672900000000        4.41166100000000       -0.64871300000000
H           86.30270599999999        2.54577700000000       -0.51853500000000
H           86.53612000000000       -2.69923900000000        0.98953900000000
H           88.50156200000001       -4.54102700000000        1.18989000000000
H           90.19512500000000       -0.90555900000000       -0.10292700000000
H           90.85113099999998       -5.95359200000000       -2.84494000000000
H           90.01263200000000       -4.62057300000000       -2.05602600000000
H           91.78782600000000       -4.56804300000000       -2.28854500000000
H           91.09778399999999       -7.85672400000000       -1.53639500000000
H           91.03268400000000       -9.79171200000000        1.59020600000000
H           92.52612900000000       -9.71525600000000        0.62450600000000
H           90.94246299999999       -9.88018700000000       -0.16830400000000
H           91.67991200000000       -7.64394700000000        2.71478900000000
H           91.63896200000001       -5.61890900000000        3.86238600000000
H           92.56455900000000       -4.40463600000000        2.97667000000000
H           90.78673700000000       -4.26618700000000        3.13060000000000
H           93.89116299999999       -4.47807200000000        0.22739400000000
H           95.60654400000000       -2.54390900000000        0.01457900000000
C           56.22876600000000       -0.01476900000000       -0.02779000000000
C           54.97649500000000       -0.03395000000000       -0.03213900000000
C           57.54243399999999       -0.01553500000000       -0.02585800000000
C           59.04556800000000       -0.03395000000000       -0.03213900000000
C           69.44203999999999       -0.01476900000000       -0.02779000000000
C           68.18976999999998       -0.03395000000000       -0.03213900000000
C           70.75570799999998       -0.01553500000000       -0.02585800000000
C           72.25884200000000       -0.03395000000000       -0.03213900000000
C           82.65531499999999       -0.01476900000000       -0.02779000000000
C           81.40304399999998       -0.03395000000000       -0.03213900000000
C           83.96898299999998       -0.01553500000000       -0.02585800000000
C           85.47211600000000       -0.03395000000000       -0.03213900000000
C           59.98294100000000        0.03032500000000        0.03324600000000
C           60.77133000000000       -0.75467200000000        1.16325600000000
C           60.24382199999999       -1.25238100000000        2.33755000000000
C           61.27933500000000       -1.95540000000000        3.00319000000000
C           62.41086400000000       -1.85456700000000        2.22270100000000
N           62.10936300000000       -1.06515200000000        1.14035500000000
C           63.80993000000000       -2.54596100000000        2.50291000000000
C           63.81730000000000       -3.77800200000000        3.34638300000000
C           63.55751399999999       -5.03897000000000        2.76102300000000
C           63.27501100000000       -5.16778600000000        1.28669900000000
C           63.57707300000000       -6.19283000000000        3.56258700000000
C           63.84011600000000       -6.11646500000000        4.93422800000000
C           63.90152200000000       -7.36109400000000        5.76553100000000
C           64.10710600000000       -4.86808600000000        5.50616400000000
C           64.08864199999999       -3.69530600000000        4.73233600000000
C           64.38829000000000       -2.37330900000000        5.39010900000000
C           64.94251500000000       -2.04740800000000        1.93914100000000
C           66.23432500000000       -2.67426800000000        2.13075700000000
C           67.14313000000000       -1.97519200000000        1.46064300000000
N           65.14865899999999       -0.96416300000000        1.12929700000000
C           66.47637899999999       -0.86764800000000        0.80510400000000
C           67.14327800000000        0.03032500000000        0.03324600000000
C           66.35483900000000        1.21889000000000       -0.65843800000000
C           66.87933600000000        2.43336400000000       -1.05181000000000
C           65.84418400000000        3.15152500000000       -1.70201500000000
C           64.71493000000000        2.36023900000000       -1.67370900000000
N           65.01843500000000        1.21639800000000       -0.97763500000000
C           63.31595599999999        2.69337200000000       -2.34257100000000
C           63.31016700000000        3.64079800000000       -3.49664600000000
C           63.57969499999999        3.16936600000000       -4.80233300000000
C           63.86183900000000        1.71183200000000       -5.06125200000000
C           63.58290000000000        4.07260800000000       -5.87830000000000
C           63.31284100000000        5.43144400000000       -5.68274000000000
C           63.35287399999999        6.38619500000000       -6.83707100000000
C           63.06038300000000        5.89509800000000       -4.38733700000000
C           63.05168499999999        5.01663900000000       -3.29078300000000
C           62.76525600000000        5.55665100000000       -1.91381600000000
C           62.18391500000000        2.08896500000000       -1.89286900000000
C           60.89219899999999        2.33173700000000       -2.50072700000000
C           59.98388600000000        1.60768300000000       -1.85689000000000
C           60.65057100000000        0.86645200000000       -0.80479000000000
N           61.97886700000000        1.19312100000000       -0.87960900000000
H           59.22252899999999       -1.14573300000000        2.66948700000000
H           61.20370799999999       -2.49358100000000        3.93610800000000
H           62.77916000000000       -0.73992500000000        0.44878300000000
H           62.38419100000000       -4.59626400000000        1.01169900000000
H           64.13117600000000       -4.82442700000000        0.69952900000000
H           63.08640599999999       -6.20941200000000        1.00860100000000
H           63.38824000000000       -7.16041200000000        3.10444500000000
H           63.57332000000000       -7.16236600000000        6.79086400000000
H           63.24367100000000       -8.13588800000000        5.35912000000000
H           64.92590600000000       -7.74383900000000        5.79040800000000
H           64.33581100000001       -4.80070400000000        6.56682100000000
H           63.58979000000000       -1.65036200000000        5.19658600000000
H           64.46373500000000       -2.48099100000000        6.47821300000000
H           65.34252100000000       -1.97387300000000        5.03314200000000
H           66.43086599999999       -3.55749200000000        2.71256700000000
H           68.19154899999999       -2.20891200000000        1.42347700000000
H           67.89934399999999        2.75971700000000       -0.91273400000000
H           65.91971300000000        4.12697300000000       -2.15886800000000
H           64.35062800000000        0.49744800000000       -0.71350600000000
H           64.03374900000000        1.52469800000000       -6.12591500000000
H           63.01027599999999        1.09478100000000       -4.75978400000000
H           64.76114300000000        1.39118200000000       -4.52763500000000
H           63.79622699999999        3.70504300000000       -6.87915000000000
H           63.02429200000000        5.89691100000000       -7.76012600000000
H           64.37114699999999        6.76076500000000       -6.97652300000000
H           62.68439800000000        7.23649800000000       -6.66587800000000
H           62.86608900000000        6.95213500000000       -4.22308800000000
H           63.60334600000000        5.36088500000000       -1.23679200000000
H           62.61823400000000        6.64314400000000       -1.93694700000000
H           61.84948299999999        5.11596900000000       -1.50870100000000
H           60.69601600000000        2.98434500000000       -3.33278600000000
H           58.93572600000000        1.59051500000000       -2.09252900000000
C           73.19621599999999        0.03032500000000        0.03324600000000
C           73.98460400000000       -0.75467200000000        1.16325600000000
C           73.45709600000001       -1.25238100000000        2.33755000000000
C           74.49260899999999       -1.95540000000000        3.00319000000000
C           75.62413900000000       -1.85456700000000        2.22270100000000
N           75.32263700000000       -1.06515200000000        1.14035500000000
C           77.02320500000000       -2.54596100000000        2.50291000000000
C           77.03057499999998       -3.77800200000000        3.34638300000000
C           76.77078799999998       -5.03897000000000        2.76102300000000
C           76.48828600000000       -5.16778600000000        1.28669900000000
C           76.79034699999998       -6.19283000000000        3.56258700000000
C           77.05338999999998       -6.11646500000000        4.93422800000000
C           77.11479700000000       -7.36109400000000        5.76553100000000
C           77.32038099999998       -4.86808600000000        5.50616400000000
C           77.30191600000001       -3.69530600000000        4.73233600000000
C           77.60156499999999       -2.37330900000000        5.39010900000000
C           78.15578900000000       -2.04740800000000        1.93914100000000
C           79.44759900000000       -2.67426800000000        2.13075700000000
C           80.35640400000000       -1.97519200000000        1.46064300000000
N           78.36193399999999       -0.96416300000000        1.12929700000000
C           79.68965300000001       -0.86764800000000        0.80510400000000
C           80.35655300000001        0.03032500000000        0.03324600000000
C           79.56811300000000        1.21889000000000       -0.65843800000000
C           80.09260999999999        2.43336400000000       -1.05181000000000
C           79.05745800000000        3.15152500000000       -1.70201500000000
C           77.92820399999999        2.36023900000000       -1.67370900000000
N           78.23170900000000        1.21639800000000       -0.97763500000000
C           76.52923100000000        2.69337200000000       -2.34257100000000
C           76.52344100000001        3.64079800000000       -3.49664600000000
C           76.79296900000000        3.16936600000000       -4.80233300000000
C           77.07511300000000        1.71183200000000       -5.06125200000000
C           76.79617399999999        4.07260800000000       -5.87830000000000
C           76.52611499999999        5.43144400000000       -5.68274000000000
C           76.56614800000000        6.38619500000000       -6.83707100000000
C           76.27365699999999        5.89509800000000       -4.38733700000000
C           76.26495900000000        5.01663900000000       -3.29078300000000
C           75.97853000000001        5.55665100000000       -1.91381600000000
C           75.39718900000000        2.08896500000000       -1.89286900000000
C           74.10547300000000        2.33173700000000       -2.50072700000000
C           73.19716000000000        1.60768300000000       -1.85689000000000
C           73.86384499999998        0.86645200000000       -0.80479000000000
N           75.19214199999999        1.19312100000000       -0.87960900000000
H           72.43580300000001       -1.14573300000000        2.66948700000000
H           74.41698300000000       -2.49358100000000        3.93610800000000
H           75.99243499999999       -0.73992500000000        0.44878300000000
H           75.59746500000000       -4.59626400000000        1.01169900000000
H           77.34444999999998       -4.82442700000000        0.69952900000000
H           76.29968100000001       -6.20941200000000        1.00860100000000
H           76.60151399999999       -7.16041200000000        3.10444500000000
H           76.78659399999999       -7.16236600000000        6.79086400000000
H           76.45694499999999       -8.13588800000000        5.35912000000000
H           78.13918099999999       -7.74383900000000        5.79040800000000
H           77.54908500000001       -4.80070400000000        6.56682100000000
H           76.80306400000001       -1.65036200000000        5.19658600000000
H           77.67700899999998       -2.48099100000000        6.47821300000000
H           78.55579500000000       -1.97387300000000        5.03314200000000
H           79.64413999999998       -3.55749200000000        2.71256700000000
H           81.40482299999999       -2.20891200000000        1.42347700000000
H           81.11261899999998        2.75971700000000       -0.91273400000000
H           79.13298699999999        4.12697300000000       -2.15886800000000
H           77.56390200000000        0.49744800000000       -0.71350600000000
H           77.24702299999998        1.52469800000000       -6.12591500000000
H           76.22355100000000        1.09478100000000       -4.75978400000000
H           77.97441700000000        1.39118200000000       -4.52763500000000
H           77.00950100000000        3.70504300000000       -6.87915000000000
H           76.23756700000000        5.89691100000000       -7.76012600000000
H           77.58442199999999        6.76076500000000       -6.97652300000000
H           75.89767199999999        7.23649800000000       -6.66587800000000
H           76.07936400000000        6.95213500000000       -4.22308800000000
H           76.81661999999999        5.36088500000000       -1.23679200000000
H           75.83150800000000        6.64314400000000       -1.93694700000000
H           75.06275800000000        5.11596900000000       -1.50870100000000
H           73.90929100000000        2.98434500000000       -3.33278600000000
H           72.14900099999998        1.59051500000000       -2.09252900000000
310
 energy: -466.932258232600 gnorm: 0.883940375147 xtb: 6.5.1 (b24c23e)
C           45.89186107927777       -0.03603336847967       -0.01879673808353
C           46.60640288339160       -1.39147914811821        0.02391425405595
C           45.99363604389958       -2.63065508427621        0.11724682616565
C           47.01159647611057       -3.60939446627901        0.08847196001361
C           48.23236096495224       -2.95347294422580       -0.02229099803084
N           47.96566419228605       -1.60277373358317       -0.02970214003246
C           49.64341744338582       -3.61451520232466       -0.14240313293453
C           49.70704964481637       -5.10610819913272       -0.29062593763464
C           49.63773944791804       -5.69953906914118       -1.57156637761905
C           49.52737686432655       -4.85311656979906       -2.81519194877722
C           49.67626277383840       -7.09642210650944       -1.69108587043785
C           49.78997884826381       -7.91500130044961       -0.56384114102217
C           49.79556128727652       -9.40887923708719       -0.70657447580690
C           49.84417495876875       -7.32448512841282        0.70180263743043
C           49.80947187580537       -5.93074353976784        0.85289126109095
C           49.87921228635005       -5.33386183857516        2.23635526764954
C           50.78489084903864       -2.85357729541725       -0.14051952877469
C           52.09593614072357       -3.44827643731942       -0.30153943427337
C           53.00003264378621       -2.47197634633923       -0.28557746573586
N           50.96994433449679       -1.50021731168391       -0.01508418538270
C           52.31091021605963       -1.20992721716846       -0.09733566881105
C           52.98703958425262       -0.01547084714554       -0.02671009865818
C           52.21519827313023        1.33131079574389        0.21758198286774
C           52.77852972371967        2.53352845314620        0.62809836794456
C           51.75421480862249        3.50207557109932        0.68647254158732
C           50.56754823674660        2.88224791348624        0.32401755698466
N           50.85872868727711        1.55524519053684        0.07445244516515
C           49.16238363178473        3.56512435856875        0.22095419050366
C           49.09362934406128        5.06196599897644        0.21475494235516
C           49.22730425047042        5.77282779252956       -0.99925947074773
C           49.42367153947380        5.04634324716215       -2.30639126708382
C           49.16791276561056        7.17416640637470       -0.99232121152362
C           48.98609745476446        7.88335982991395        0.19809862330700
C           48.88346615268936        9.38055973240451        0.18671000573041
C           48.84287921928333        7.17571394363111        1.39502555647492
C           48.90312546638117        5.77489366668681        1.42037210933187
C           48.73754882812064        5.05205988590347        2.73368310475488
C           48.02802691997078        2.80387784003198        0.12758871221967
C           46.70038917880017        3.38491598491054        0.02403148781848
C           45.81663297158790        2.39049094117002       -0.03491243882651
C           46.55192804178544        1.14937460223404        0.02169969523221
N           47.87695422868570        1.44521747595628        0.11110643074605
H           44.80544933670757       -0.02355914789688       -0.09357027942108
H           44.92930606474174       -2.79593142099131        0.18744599819467
H           46.88298612454454       -4.68050276902801        0.12966849649202
H           48.67048021276370       -0.87025616273589       -0.06441583052776
H           48.62682337844525       -4.23285317436893       -2.78299120296995
H           49.45929701040345       -5.47453883222962       -3.71366111064612
H           50.41007749060423       -4.21656103172262       -2.92707282116246
H           49.61759339398876       -7.54787081664506       -2.67955259410113
H           48.77056677879830       -9.79094174196078       -0.67281598279041
H           50.25277654778350       -9.70937480305623       -1.65390037127005
H           50.37303944519543       -9.87656624356136        0.09637358408683
H           49.91544733281545       -7.95458278711991        1.58615439421532
H           48.97867920262334       -4.75056154716459        2.45044520877261
H           49.94987766987470       -6.11325269834157        3.00155664328977
H           50.76336065696199       -4.69765903901340        2.33921971409872
H           52.31128323625585       -4.49311693888184       -0.42238454749364
H           54.05749646477825       -2.62057212862961       -0.38715001418796
H           53.82222950538931        2.69334396351444        0.85228578497446
H           51.85739869898677        4.54232407461451        0.95882626131432
H           50.16402073808228        0.84670334257588       -0.14735608354024
H           49.50736388680566        5.74851463766596       -3.14185240132669
H           50.34524190564346        4.45688341612806       -2.28655547550461
H           48.57146935353067        4.39268697713345       -2.51596301673000
H           49.26086549885719        7.71527157701473       -1.93186943519126
H           49.32536338179306        9.80686352327754        1.09174073342042
H           47.83291099298629        9.68167663636815        0.13130517172417
H           49.41563430846730        9.80574490868698       -0.66891444689152
H           48.67891727167777        7.71885133177383        2.32360068667898
H           48.71954193487727        5.75518283289258        3.57244631589654
H           47.79473653710257        4.49709659089764        2.75002622088644