181
 energy: -329.325130585460 gnorm: 0.989076974705 xtb: 6.5.1 (b24c23e)
Cu          32.89689800000000       -0.01711200000000       -0.00630600000000
C           29.55890200000000        0.10604300000000        0.06577200000000
C           30.22087600000000        1.25548700000000        0.22669400000000
C           29.57000600000000        2.55279400000000        0.36386900000000
C           30.50997500000000        3.46345200000000        0.53655600000000
C           31.81505200000000        2.78803600000000        0.53056000000000
N           31.63826600000000        1.38601800000000        0.32347500000000
C           33.00698600000000        3.39389000000000        0.71221300000000
C           33.05619600000000        4.85235500000000        0.96448400000000
C           32.57351700000000        5.38149700000000        2.17219100000000
C           32.63647100000000        6.75734400000000        2.41267600000000
C           33.18730600000000        7.61388800000000        1.45101500000000
C           33.25331800000000        9.03011100000000        1.69972800000000
N           33.30637700000000       10.16868600000000        1.89977500000000
C           33.67641400000000        7.08888500000000        0.24808100000000
C           33.61309700000000        5.71322900000000        0.00628800000000
C           34.29841900000000        2.65816500000000        0.68069700000000
C           35.58176100000000        3.24324500000000        1.08799100000000
C           36.51656199999999        2.33335100000000        0.90318100000000
N           34.44144800000000        1.43632000000000        0.26710600000000
C           35.83677800000000        1.15561600000000        0.37799700000000
C           36.43133800000000        0.01358200000000       -0.00377500000000
C           35.66812500000000       -1.14651000000000       -0.51520200000000
C           36.19904300000000       -2.13902900000000       -1.21805900000000
C           35.15642700000000       -3.12482600000000       -1.42755300000000
C           34.05851900000000       -2.67093200000000       -0.83403800000000
N           34.29191500000000       -1.39760800000000       -0.23013300000000
C           32.78002600000000       -3.42226900000000       -0.74791700000000
C           32.80328400000000       -4.88780800000000       -0.97545900000000
C           32.11911400000000       -5.45185100000000       -2.06490400000000
C           32.16099600000000       -6.83184800000000       -2.28526800000000
C           32.89265000000000       -7.65872300000000       -1.42366200000000
C           32.93666600000000       -9.07928700000000       -1.65169800000000
N           32.97208900000000      -10.22136900000000       -1.83495400000000
C           33.58438100000000       -7.09977400000000       -0.34174500000000
C           33.54246400000000       -5.71994700000000       -0.12002700000000
C           31.61770400000000       -2.80313500000000       -0.46523300000000
C           30.31041600000000       -3.44090200000000       -0.31825500000000
C           29.44843500000000       -2.46595000000000       -0.10285900000000
C           30.19664500000000       -1.20997100000000       -0.09794900000000
N           31.46167000000000       -1.39429200000000       -0.30820200000000
H           28.47554100000000        0.13386900000000        0.05641500000000
H           28.50665500000000        2.75193500000000        0.32666200000000
H           30.32194000000000        4.52220700000000        0.65781600000000
H           32.15121200000000        4.72771900000000        2.92546300000000
H           32.25838700000000        7.15239900000000        3.34797700000000
H           34.10724400000000        7.74203100000000       -0.50126000000000
H           33.99614400000000        5.31799900000000       -0.92659200000000
H           35.75242800000000        4.23934700000000        1.47477400000000
H           37.57034000000000        2.46534800000000        1.10940400000000
H           37.22481200000000       -2.21942800000000       -1.55209200000000
H           35.26554100000000       -4.06728300000000       -1.94842400000000
H           31.55776000000000       -4.82180100000000       -2.74393600000000
H           31.62627100000000       -7.25308200000000       -3.12812500000000
H           34.15630200000000       -7.72977000000000        0.32892800000000
H           34.08283300000000       -5.29938000000000        0.71928700000000
H           30.06882000000000       -4.49436900000000       -0.36938500000000
H           28.38381700000000       -2.58882700000000        0.04699100000000
Cu          61.55341000000000        0.04409500000000       -0.00796400000000
C           64.89140700000000       -0.07497800000000        0.07067600000000
C           64.22943300000000       -1.21402500000000        0.29358800000000
C           64.88030300000000       -2.50200300000000        0.50079300000000
C           63.94033400000000       -3.40197700000000        0.72252700000000
C           62.63525700000000       -2.72787600000000        0.67997500000000
N           62.81204300000000       -1.33912400000000        0.39729400000000
C           61.44332299999999       -3.32300700000000        0.89416100000000
C           61.39411300000000       -4.76567600000000        1.22501700000000
C           61.87679100000000       -5.22866200000000        2.45960000000000
C           61.81383800000000       -6.58947200000000        2.77421500000000
C           61.26300199999999       -7.49682100000000        1.86033500000000
C           61.19698999999999       -8.89750300000000        2.18535300000000
N           61.14393100000000      -10.02357900000000        2.44674400000000
C           60.77389399999999       -7.03771100000000        0.63074300000000
C           60.83721100000000       -5.67716200000000        0.31483200000000
C           60.15188999999999       -2.59006800000000        0.82286200000000
C           58.86854800000000       -3.15224000000000        1.26123200000000
C           57.93374599999999       -2.25368500000000        1.02743500000000
N           60.00886100000000       -1.39240500000000        0.34373100000000
C           58.61353000000000       -1.10610900000000        0.43926200000000
C           58.01897000000000        0.01358200000000       -0.00377500000000
C           58.78218300000000        1.14428600000000       -0.57725600000000
C           58.25126500000000        2.09729900000000       -1.33281300000000
C           59.29388200000000        3.07030900000000       -1.59536800000000
C           60.39178900000000        2.64921300000000       -0.97815100000000
N           60.15839400000000        1.41044900000000       -0.30619800000000
C           61.67028300000000        3.40411000000000       -0.93283000000000
C           61.64702500000000        4.85518100000000       -1.23937800000000
C           62.33119500000000        5.35941800000000       -2.35776000000000
C           62.28931300000000        6.72546200000000       -2.65250900000000
C           61.55765900000000        7.59776900000000       -1.83693100000000
C           61.51364300000000        9.00390400000000       -2.14153700000000
N           61.47821900000000       10.13439100000000       -2.38635200000000
C           60.86592699999999        7.09821100000000       -0.72634100000000
C           60.90784400000000        5.73241000000000       -0.43024900000000
C           62.83260400000000        2.80118700000000       -0.61704300000000
C           64.13989300000000        3.44597600000000       -0.50480700000000
C           65.00187400000000        2.48411400000000       -0.23694600000000
C           64.25366400000000        1.23024300000000       -0.16405000000000
N           62.98863799999999        1.40291100000000       -0.38397300000000
H           65.97476700000000       -0.10327000000000        0.06283900000000
H           65.94365300000000       -2.70286600000000        0.47442200000000
H           64.12836900000001       -4.45261500000000        0.90092700000000
H           62.29909700000000       -4.53506300000000        3.17637300000000
H           62.19192099999999       -6.93331400000000        3.72953200000000
H           60.34306500000000       -7.73046500000000       -0.08214000000000
H           60.45416500000000       -5.33301400000000       -0.63807700000000
H           58.69788100000000       -4.12594300000000        1.70137300000000
H           56.87996800000000       -2.37432400000000        1.24050100000000
H           57.22549600000000        2.15949700000000       -1.67070800000000
H           59.18476800000000        3.98318700000000       -2.16649600000000
H           62.89254900000000        4.69353200000000       -3.00168800000000
H           62.82403799999999        7.10044900000000       -3.51693500000000
H           60.29400700000000        7.76359000000000       -0.09075700000000
H           60.36747600000000        5.35789700000000        0.43060200000000
H           64.38148900000000        4.49513000000000       -0.61289300000000
H           66.06649200000000        2.61492300000000       -0.09396800000000
C           39.81862600000000        0.02601900000000       -0.00133300000000
C           38.56635500000000        0.00683800000000       -0.00568200000000
C           41.13229400000000        0.02525300000000        0.00059900000000
C           42.63542800000000        0.00683800000000       -0.00568200000000
C           53.15715800000000        0.02601900000000       -0.00133300000000
C           51.90488700000000        0.00683800000000       -0.00568200000000
C           54.47082600000000        0.02525300000000        0.00059900000000
C           55.97395899999999        0.00683800000000       -0.00568200000000
Cu          47.20844300000000        0.01811900000000       -0.01508300000000
C           43.77189900000000       -0.02860100000000        0.00848000000000
C           44.42746799999999       -1.13803700000000       -0.37942000000000
C           43.78674500000000       -2.40908400000000       -0.72320600000000
C           44.72324300000000       -3.25624700000000       -1.10123900000000
C           46.02038800000000       -2.57642500000000       -1.02554400000000
N           45.84245300000000       -1.23642300000000       -0.55971700000000
C           47.20481500000000       -3.13225500000000       -1.35883300000000
C           47.24041800000000       -4.51560700000000       -1.88741800000000
C           46.71918400000000       -4.80381600000000       -3.15889000000000
C           46.76795599999999       -6.10797900000000       -3.66033500000000
C           47.34251399999999       -7.13262900000000       -2.89757000000000
C           47.39386700000000       -8.47492700000000       -3.41475900000000
N           47.43528100000000       -9.55407700000000       -3.83056100000000
C           47.86931600000000       -6.84774700000000       -1.63139100000000
C           47.82025200000000       -5.54404200000000       -1.12867900000000
C           48.50176700000000       -2.42297400000000       -1.21540700000000
C           49.77038500000000       -2.91947500000000       -1.76391000000000
C           50.72259800000000       -2.08585600000000       -1.39715700000000
N           48.66954400000000       -1.32605300000000       -0.54456800000000
C           50.06770400000000       -1.04581800000000       -0.61440300000000
C           50.68271500000000       -0.02860100000000        0.00848000000000
C           49.93175600000000        0.99916200000000        0.75931900000000
C           50.46449799999999        1.80348300000000        1.67028900000000
C           49.43222599999999        2.74068000000000        2.07138400000000
C           48.34080000000000        2.44667600000000        1.37401000000000
N           48.56614600000000        1.33143200000000        0.51355700000000
C           47.08761400000000        3.23862900000000        1.40052700000000
C           47.14977600000000        4.64612600000000        1.86555000000000
C           46.44054600000000        5.05215300000000        3.00810900000000
C           46.51731100000000        6.37565800000000        3.45197200000000
C           47.30877300000000        7.30278800000000        2.76263900000000
C           47.38762599999999        8.66527100000000        3.22016900000000
N           47.45099300000000        9.76067100000000        3.58798100000000
C           48.02571699999999        6.90049000000000        1.62886300000000
C           47.94919700000000        5.57729500000000        1.18380100000000
C           45.91613100000000        2.71149100000000        0.99497900000000
C           44.64084700000000        3.41577400000000        0.90944200000000
C           43.75276000000000        2.52040000000000        0.52817700000000
C           44.44989000000000        1.24041700000000        0.36084900000000
N           45.71442300000000        1.34623500000000        0.62867900000000
H           42.73206100000000       -2.64595600000000       -0.68176300000000
H           44.53700600000000       -4.27846700000000       -1.40384900000000
H           46.27782400000000       -4.01807200000000       -3.75971300000000
H           46.36022200000000       -6.31672000000000       -4.64211800000000
H           48.31809100000000       -7.63228200000000       -1.03403900000000
H           48.23195399999999       -5.33493000000000       -0.14885700000000
H           49.91998300000000       -3.80892500000000       -2.36175900000000
H           51.77190000000000       -2.18260800000000       -1.64243700000000
H           51.48635299999999        1.79209600000000        2.02515900000000
H           49.54662700000000        3.55358000000000        2.77677700000000
H           45.83246800000000        4.34240700000000        3.55553600000000
H           45.96243400000000        6.67487000000000        4.33312900000000
H           48.64360000000000        7.60872600000000        1.08999900000000
H           48.50908400000000        5.27832400000000        0.30606300000000
H           44.43725000000000        4.46061900000000        1.10383300000000
H           42.70265899999999        2.72160600000000        0.36477300000000
181
 energy: -329.631970521621 gnorm: 0.470018232435 xtb: 6.5.1 (b24c23e)
Cu          32.90423555286188       -0.01330304820362       -0.00424943342750
C           29.55966410271771        0.08996684904004        0.06392934859841
C           30.22630535550459        1.25710429426795        0.22680300773473
C           29.56930996751787        2.54689095776813        0.36294763931438
C           30.51898344101036        3.46569971159151        0.53753253817169
C           31.81333315357079        2.78248881769632        0.52959852174961
N           31.61920104143183        1.40461144276706        0.32488474267563
C           33.02190938265408        3.38970977157564        0.71322134281613
C           33.06145768209466        4.85337079108994        0.96656903555711
C           32.57425190226333        5.38529061061212        2.16862963638762
C           32.63683096240638        6.75498896563121        2.41009176596422
C           33.18737458125739        7.61502527965853        1.45122175127905
C           33.25326848295781        9.02796600005882        1.69937919888356
N           33.30600262536579       10.16130534759151        1.89847568453124
C           33.67524951648406        7.08608856235943        0.24940614079047
C           33.61316002386092        5.71608414463787        0.01076719087878
C           34.29389440711153        2.67238941836589        0.68236477299550
C           35.56997712592594        3.25346970441873        1.08877947778016
C           36.51721166752441        2.32849485551077        0.90115117913110
N           34.45854699126097        1.43092120347854        0.27044304859443
C           35.85361761843146        1.15116218268890        0.37724282227335
C           36.45950373914263        0.00160596540468       -0.01258739322882
C           35.67467919312826       -1.13638862630184       -0.50098808202708
C           36.20312572782996       -2.16019052631428       -1.22731873259633
C           35.17841077633299       -3.12596606542321       -1.43105518658789
C           34.05107368308283       -2.66153197753879       -0.82153076765428
N           34.30297479155370       -1.39854725293332       -0.23538728915187
C           32.79402512595883       -3.41367703953553       -0.74647233188402
C           32.81036898782698       -4.88522387865814       -0.97866159709024
C           32.12094431827686       -5.45419670427105       -2.06090597528079
C           32.16195394313922       -6.82871525761828       -2.28255657483569
C           32.89268848817072       -7.65963667204836       -1.42381319666988
C           32.93669707926217       -9.07706786372129       -1.65142963192632
N           32.97178635241224      -10.21388585934970       -1.83373459412130
C           33.58259577711950       -7.09641276789492       -0.34272816094170
C           33.54192970984451       -5.72185641004488       -0.12433334342788
C           31.61661037010610       -2.80223053072925       -0.46435149146395
C           30.31739109533092       -3.43997251897447       -0.31977361411028
C           29.43908111141324       -2.45518765664732       -0.10085489620712
C           30.17763320480958       -1.20219898969489       -0.09736866634294
N           31.46031481274305       -1.40559749913355       -0.30730473478102
H           28.47617122560462        0.12846632590697        0.05673564758083
H           28.50681163914710        2.74454933041616        0.32567954938168
H           30.33126003334880        4.52306618373299        0.65864022364355
H           32.15245779256600        4.72856414630796        2.92321145631213
H           32.25915952977550        7.15213019159498        3.34643189619749
H           34.10636332333993        7.74143828532368       -0.49994885655674
H           33.99515268551963        5.31828914192136       -0.92425943742695
H           35.74456447544311        4.24407532876339        1.47502550777023
H           37.56992149220650        2.45769288564578        1.10670069720007
H           37.22624374511062       -2.22514307741095       -1.55608452671283
H           35.27070032666245       -4.06671487268147       -1.95067983169079
H           31.55942452101916       -4.82231931838699       -2.74192452206781
H           31.62737759651373       -7.25241327208339       -3.12655864489407
H           34.15510643547422       -7.72890491818835        0.32771066551865
H           34.08162636258501       -5.29958042226442        0.71727774897757
H           30.07759918412799       -4.49335794954165       -0.37039378142472
H           28.37985002787905       -2.58243568580721        0.04812395113356
Cu          61.54620037182159        0.04050729337774       -0.00560003641027
C           64.89060467645091       -0.05909542839646        0.06797919174138
C           64.22405067509412       -1.21568950997390        0.29385833247724
C           64.88106306269881       -2.49625135109505        0.49958566210172
C           63.93141729626692       -3.40421238047097        0.72368207668860
C           62.63706146861582       -2.72230661567916        0.67875307697074
N           62.83126266108140       -1.35803280482285        0.39941826584100
C           61.42823027899662       -3.31865107834698        0.89489876019047
C           61.38880374705838       -4.76654136038877        1.22714889393022
C           61.87605396717847       -5.23262765068728        2.45623920615794
C           61.81347892355773       -6.58725442216592        2.77149961110325
C           61.26293339830772       -7.49794199516179        1.86059975756510
C           61.19704083484655       -8.89538467086601        2.18488792354068
N           61.14430406761691      -10.01627507449929        2.44505307212093
C           60.77505956005808       -7.03484890534070        0.63191537965833
C           60.83714220792353       -5.67976531871909        0.31945804529453
C           60.15629422181292       -2.60395908537119        0.82524725140862
C           58.88024676148655       -3.16245007854759        1.26270287283553
C           57.93288918922969       -2.24930769417173        1.02524555588586
N           59.99070871395282       -1.38644935574179        0.34676476568574
C           58.59544362808506       -1.10196351307019        0.43827538487364
C           57.98462408990201        0.02455791655930       -0.01325043668982
C           58.77403552358528        1.13502543174524       -0.56228263204148
C           58.24682528451247        2.11812923247578       -1.34337966811955
C           59.27175711804435        3.07118197140798       -1.59894646944544
C           60.39896032421525        2.64021812485093       -0.96497618090891
N           60.14627851593774        1.41086166788662       -0.31141003815753
C           61.65624914143707        3.39550153378683       -0.93086764198562
C           61.63990637629568        4.85239063363477       -1.24243136721043
C           62.32935971292940        5.36195987544252       -2.35388653062252
C           62.28835214262717        6.72247413730219       -2.64962548146861
C           61.55761941764710        7.59866797196820       -1.83712754766455
C           61.51361398296478        9.00170637968105       -2.14114710957946
N           61.47851982273164       10.12697992408418       -2.38473759002916
C           60.86771452482788        7.09480006938424       -0.72713895075854
C           60.90837120042378        5.73407542886486       -0.43465045028430
C           62.83375868686207        2.80037703233208       -0.61613899525366
C           64.13301252012791        3.44504208915688       -0.50632339465742
C           65.01128202691591        2.47359580507102       -0.23433059399171
C           64.27266829070619        1.22264670856927       -0.16308719960134
N           62.99026963710097        1.41449415542733       -0.38371706577034
H           65.97412261387110       -0.09787442850045        0.06285090153632
H           65.94353340925481       -2.69557869328301        0.47305169410265
H           64.11907155476369       -4.45345982269822        0.90180768958016
H           62.29785034703959       -4.53602551177607        3.17416931196933
H           62.19114767150960       -6.93312408303272        3.72797050278517
H           60.34394665643868       -7.72980090241284       -0.08086282212438
H           60.45515739037887       -5.33317885303203       -0.63573658764324
H           58.70572157713252       -4.13068918712434        1.70188822016948
H           56.88019742406846       -2.36687709297086        1.23739314500333
H           57.22386592612642        2.16512400491850       -1.67516438227531
H           59.17960552836550        3.98245245577696       -2.16872921633325
H           62.89088392667670        4.69415444396435       -2.99970655890292
H           62.82293074057215        7.09986058209607       -3.51533043274540
H           60.29520398230147        7.76265689774990       -0.09192548487306
H           60.36868261815692        5.35799152890781        0.42859050599467
H           64.37273845294104        4.49411234005076       -0.61384630032940
H           66.07049459046567        2.60863644174792       -0.09249347333062
C           39.80016685199181        0.02464802294838       -0.00176072158643
C           38.53370305893765        0.00562562536238       -0.00624247610029
C           41.14940873169856        0.02420224599920        0.00188130414820
C           42.48080963544854        0.01433381196358       -0.00389165400146
C           53.22006577372141        0.02823778474003       -0.00112731433695
C           51.97282474558269        0.01811654432170        0.00083086987495
C           54.56710207658418        0.02476677755892        0.00012362923906
C           55.93807824964448        0.01062594581681       -0.00646461327309
Cu          47.20718559651029        0.01858232238308       -0.01336010349106
C           43.78934709694119       -0.01378999151503        0.00909761016640
C           44.45191256966669       -1.15573543146713       -0.38387183891942
C           43.78857157349294       -2.40040109048094       -0.71913749337598
C           44.73542009216502       -3.25985204313611       -1.10427001824704
C           46.01849431937697       -2.57540511299167       -1.02465039938604
N           45.82746634845051       -1.25694173911120       -0.56741694923106
C           47.21985669619871       -3.13120565828493       -1.36052693576175
C           47.24503831294037       -4.51716852741119       -1.89019036753530
C           46.71982441022146       -4.80841599568655       -3.15643264209073
C           46.76846418644814       -6.10623073395035       -3.65750033356449
C           47.34256470816220       -7.13373361842109       -2.89799689492568
C           47.39380932571011       -8.47290087039832       -3.41400511818175
N           47.43501543869144       -9.54709437442133       -3.82787513452680
C           47.86810395883571       -6.84479478405626       -1.63210484587503
C           47.82021961898832       -5.54610401792649       -1.13364696560364
C           48.49374419615731       -2.44492003577146       -1.22391874055997
C           49.75498341095513       -2.93223728691571       -1.76805818571929
C           50.71747485125016       -2.08040381596047       -1.39275137215849
N           48.67596977158131       -1.32773043506762       -0.54853172995149
C           50.04871031906874       -1.05668802635873       -0.62319115666968
C           50.65254538770151       -0.01814177704006        0.01644038726868
C           49.91133804312718        1.00101091480166        0.75213247384906
C           50.46412311744638        1.82229919419075        1.68309465818906
C           49.45254909797554        2.74314569593353        2.07575288686272
C           48.33142705513119        2.44502938325322        1.36151224349439
N           48.56735250454435        1.33625932993079        0.52085491065344
C           47.10142933821408        3.23274844514945        1.39834233817960
C           47.15619324753301        4.64361923487577        1.86855511541418
C           46.44242979168534        5.05519037860370        3.00475451184805
C           46.51827646918701        6.37300104397849        3.44894811192543
C           47.30882951950415        7.30369391161197        2.76295353689693
C           47.38755783937935        8.66315394598013        3.21952855267954
N           47.45055445990860        9.75349769491649        3.58557498365330
C           48.02380848561909        6.89711321468764        1.62920129828651
C           47.94859951237550        5.57863784358519        1.18832311309378
C           45.91615553023261        2.71361134904379        0.99493631614387
C           44.64902629432917        3.41543678790214        0.91183162595194
C           43.74504920015361        2.50937324068826        0.52343502582834
C           44.44733994167201        1.24603226001124        0.36122145926051
N           45.71997182006248        1.36039333947231        0.63191930085536
H           42.73255428332590       -2.63476961537822       -0.67824759562291
H           44.54630547922154       -4.27953327800180       -1.40523729879515
H           46.27908656819771       -4.01933920909319       -3.75775143898244
H           46.36102819909194       -6.31677960286802       -4.64063851954747
H           48.31719356412707       -7.63144284091632       -1.03517777164889
H           48.23089907804707       -5.33471159090148       -0.15122097759141
H           49.91229993904072       -3.81442263057656       -2.36381139548499
H           51.76879418329041       -2.17382363464507       -1.63688934707816
H           51.48566180533945        1.79499696675973        2.02918024779413
H           49.55192149333595        3.55293488809859        2.77983337961211
H           45.83419153106781        4.34316140572107        3.55370843411870
H           45.96357582595795        6.67443895019550        4.33155431483188
H           48.64235750841001        7.60771844078806        1.09100305060930
H           48.50781555732856        5.27819433516472        0.30804266407971
H           44.44563391432940        4.45934128819856        1.10506570513238
H           42.69873475866393        2.71270395981672        0.36226797658641
181
 energy: -329.754118406012 gnorm: 0.245822441372 xtb: 6.5.1 (b24c23e)
Cu          32.91863853010129       -0.00842648480713        0.00004589211480
C           29.56307864984884        0.07199151486234        0.06184095243202
C           30.23232294853515        1.26027123069298        0.22640572247278
C           29.57061122073877        2.54058037025163        0.36194482141279
C           30.52998478486040        3.46667165293697        0.53864067696020
C           31.81108960143942        2.77606068744957        0.52797013819209
N           31.59637962231649        1.42692994227756        0.32632112522980
C           33.04185717206628        3.38027959480846        0.71393159050040
C           33.06913587907801        4.85074364869765        0.96929664687230
C           32.57551799672144        5.38745606797773        2.16454385133102
C           32.63683406807588        6.75187738661208        2.40682441003461
C           33.18733925922623        7.61484085578666        1.45116702681570
C           33.25316517387188        9.02255672283711        1.69852199511720
N           33.30564652614725       10.15535717656307        1.89744082552647
C           33.67388698253981        7.08274481933411        0.25078800216924
C           33.61437607617079        5.71740546458087        0.01592328744389
C           34.29242697252944        2.68420946291177        0.68326926583276
C           35.55893254401933        3.26133944442799        1.08666575789173
C           36.51655582466233        2.32558833374676        0.89837942271647