280
 energy: -435.456008325775 gnorm: 42.715203080673 xtb: 6.5.1 (b24c23e)
Fe          50.19020400000000        1.97842300000000        1.61660800000000
C           46.43911300000000        0.08494000000000       -0.04303200000000
C           47.08874599999999        0.93814100000000        0.75407500000000
C           46.42403900000000        1.85678000000000        1.67041600000000
C           47.35424400000000        2.56993900000000        2.27768100000000
C           48.66647500000000        2.14894900000000        1.76756600000000
N           48.50467700000000        1.10477300000000        0.80667500000000
C           49.85188800000000        2.67923800000000        2.13414500000000
C           49.88575099999999        3.79272100000000        3.11003700000000
C           49.39794899999999        5.05982700000000        2.75936700000000
C           49.44614799999999        6.11168000000000        3.67807500000000
C           49.98720500000000        5.91722900000000        4.95885600000000
N           50.02366000000000        7.02055100000000        5.88285000000000
C           50.56507199999999        6.92300600000000        7.23437200000000
C           50.48262600000000        4.64495000000000        5.30434400000000
C           50.43302400000000        3.59318200000000        4.38496000000000
C           51.15102700000000        2.20071900000000        1.59253300000000
C           52.42782900000000        2.89480100000000        1.80034900000000
C           53.37228300000000        2.18506600000000        1.21707800000000
N           51.30718500000000        1.11108000000000        0.90502600000000
C           52.70529300000000        1.03054700000000        0.62783000000000
C           53.31207400000000        0.01917400000000       -0.01439700000000
C           52.56145500000000       -1.11430200000000       -0.59888900000000
C           53.10318700000000       -2.28172700000000       -0.92227800000000
C           52.07112200000000       -3.07302100000000       -1.56369700000000
C           50.96816099999999       -2.33394600000000       -1.59399200000000
N           51.18782899999999       -1.06094200000000       -0.98431200000000
C           49.69760800000000       -2.74962300000000       -2.24161300000000
C           49.73615999999999       -3.85065000000000       -3.23482500000000
C           50.48187699999999       -3.70727300000000       -4.41348800000000
C           50.53890900000000       -4.74807400000000       -5.34483700000000
C           49.85302099999999       -5.95483600000000       -5.10761800000000
N           49.89176199999999       -7.04518500000000       -6.04680200000000
C           50.62848700000000       -6.99953800000000       -7.30552000000000
C           49.11545099999999       -6.09594100000000       -3.92164600000000
C           49.05974699999999       -5.05521500000000       -2.99080000000000
C           48.52884299999999       -2.14735200000000       -1.94923600000000
C           47.22846700000000       -2.44412300000000       -2.54778700000000
C           46.35616900000000       -1.66786700000000       -1.93422200000000
C           47.09092200000000       -0.86716400000000       -0.95630600000000
N           48.35780299999999       -1.13818200000000       -0.95619800000000
H           45.35551399999999        0.08791800000000       -0.02456300000000
H           45.35859799999999        1.94622500000000        1.83949900000000
H           47.15487999999999        3.32894400000000        3.02276300000000
H           48.98222000000000        5.23187500000000        1.77405000000000
H           49.06236499999999        7.08224100000000        3.38978600000000
H           49.64408100000000        7.94629400000000        5.57963700000000
H           51.63738599999999        6.63820500000000        7.19259700000000
H           49.99507100000000        6.16883600000000        7.81663200000000
H           50.47910000000000        7.90464100000000        7.74644400000000
H           50.90913799999999        4.45705400000000        6.28010400000000
H           50.82012200000000        2.62140700000000        4.66646700000000
H           52.58768600000000        3.82370400000000        2.33184900000000
H           54.42445700000000        2.43601500000000        1.19777200000000
H           54.12991500000000       -2.58448400000000       -0.76604400000000
H           52.19044000000000       -4.07058600000000       -1.96620800000000
H           51.01693800000000       -2.78654600000000       -4.61208700000000
H           51.12026200000000       -4.60305200000000       -6.24501800000000
H           49.36674500000000       -7.92170900000000       -5.82530400000000
H           50.24011500000000       -6.17643400000000       -7.94142500000000
H           50.50195100000000       -7.95844500000000       -7.85114900000000
H           51.70975499999999       -6.84604100000000       -7.10551700000000
H           48.58419000000000       -7.01679300000000       -3.71621700000000
H           48.49266800000000       -5.18863400000000       -2.07761600000000
H           46.99815200000000       -3.14975000000000       -3.33506300000000
H           45.29294199999999       -1.63613400000000       -2.13291100000000
Fe          98.32470000000001       -2.00003700000000       -1.57055200000000
C          102.07579199999999        0.03277000000000       -0.08482600000000
C          101.42615900000000       -0.93129900000000       -0.74354000000000
C          102.09086599999999       -2.02600600000000       -1.44009900000000
C          101.16065999999999       -2.77424900000000       -2.00356800000000
C           99.84842899999998       -2.18456600000000       -1.70402900000000
N          100.01022800000000       -1.01898900000000       -0.89467900000000
C           98.66301599999998       -2.65802100000000       -2.14155300000000
C           98.62915400000000       -3.85335900000000       -3.01526700000000
C           99.11695500000000       -3.78762000000000       -4.32835700000000
C           99.06875599999999       -4.91370600000000       -5.15440400000000
C           98.52769999999998       -6.12119600000000       -4.68517300000000
N           98.49124399999998       -7.26367000000000       -5.56029400000000
C           97.94983200000000       -8.56134100000000       -5.17019800000000
C           98.03227900000000       -6.18074900000000       -3.36816400000000
C           98.08187999999998       -5.05402300000000       -2.54234800000000
C           97.36387799999999       -2.02504600000000       -1.79274400000000
C           96.08707500000000       -2.37930400000000       -2.42475700000000
C           95.14262199999999       -1.65522400000000       -1.85939200000000
N           97.20771899999998       -1.11634700000000       -0.87937500000000
C           95.80961200000000       -0.82825800000000       -0.86126600000000
C           95.20282999999999        0.01917400000000       -0.01439700000000
C           95.95344999999999        0.83690700000000        0.96423100000000
C           95.41171700000000        1.40723500000000        2.03296400000000
C           96.44378300000000        2.20585800000000        2.66523300000000
C           97.54674300000001        2.07415800000000        1.93735700000000
N           97.32707600000001        1.20139900000000        0.82805800000000
C           98.81729700000000        2.79687400000000        2.20170700000000
C           98.77874400000000        4.00639700000000        3.05948600000000
C           98.03302800000000        5.12537500000000        2.66238000000000
C           97.97599599999998        6.26138400000000        3.47488200000000
C           98.66188400000000        6.29319600000000        4.70432800000000
N           98.62314300000000        7.44766300000000        5.56347400000000
C           97.88641800000001        8.66609100000000        5.24427600000000
C           99.39945299999998        5.16659000000000        5.10081100000000
C           99.45515800000000        4.03108800000000        4.28827200000000
C           99.98606100000001        2.38012700000000        1.67774500000000
C          101.28643700000001        3.02901000000000        1.83676100000000
C          102.15873499999998        2.26085100000000        1.21309000000000
C          101.42398199999998        1.13178600000000        0.64506100000000
N          100.15710099999998        1.19081600000000        0.90957100000000
H          103.15938999999999        0.01409600000000       -0.08370200000000
H          103.15630600000000       -2.21053200000000       -1.49049400000000
H          101.36002499999999       -3.66699300000000       -2.58170900000000
H           99.53268399999999       -2.86358600000000       -4.71125500000000
H           99.45253900000000       -4.84413900000000       -6.16448200000000
H           98.87082400000000       -7.16975900000000       -6.52989100000000
H           96.87751799999999       -8.45843000000000       -4.90137500000000
H           98.51983399999999       -8.96501200000000       -4.30715100000000
H           98.03580400000000       -9.27526700000000       -6.01644600000000
H           97.60576700000000       -7.09199800000000       -2.97188600000000
H           97.69478200000000       -5.11670600000000       -1.53256500000000
H           95.92721899999999       -3.10068200000000       -3.21530400000000
H           94.09044799999999       -1.69114000000000       -2.10850700000000
H           94.38498899999999        1.32082600000000        2.36251600000000
H           96.32446400000001        2.81633900000000        3.55093400000000
H           97.49796600000001        5.11828700000000        1.72050500000000
H           97.39464199999999        7.10823100000000        3.13693600000000
H           99.14816000000000        7.42275900000000        6.46720800000000
H           98.27478900000000        9.10707300000000        4.30225000000000
H           98.01295300000000        9.40780600000000        6.06102100000000
H           96.80515000000000        8.43741400000000        5.13811800000000
H           99.93071399999999        5.16704100000000        6.04429800000000
H          100.02223600000001        3.16902000000000        4.61773200000000
H          101.51675200000000        3.95128400000000        2.35360200000000
H          103.22196300000000        2.44782800000000        1.13876800000000
C           59.32392700000000        0.02048600000000       -0.00596400000000
C           58.11498799999999        0.00703100000000       -0.01441100000000
C           56.69345900000000        0.01585000000000       -0.02639500000000
C           55.48178899999999        0.02328900000000       -0.01553200000000
C           60.74053099999999        0.01381100000000       -0.00543100000000
C           61.96122700000000        0.02328900000000       -0.01553200000000
C           74.86137199999999        0.02048600000000       -0.00596400000000
C           73.65243300000000        0.00703100000000       -0.01441100000000
C           72.23090400000000        0.01585000000000       -0.02639500000000
C           71.01923499999999        0.02328900000000       -0.01553200000000
C           76.27797700000001        0.01381100000000       -0.00543100000000
C           77.49867299999998        0.02328900000000       -0.01553200000000
C           90.39881799999999        0.02048600000000       -0.00596400000000
C           89.18987799999998        0.00703100000000       -0.01441100000000
C           87.76835000000000        0.01585000000000       -0.02639500000000
C           86.55668000000000        0.02328900000000       -0.01553200000000
C           91.81542199999998        0.01381100000000       -0.00543100000000
C           93.03611799999999        0.02328900000000       -0.01553200000000
Fe          66.81486700000001       -2.02659000000000       -1.59094900000000
C           63.05121400000000       -0.02269400000000        0.01676900000000
C           63.70817699999999       -0.98127300000000       -0.66164100000000
C           63.06648900000000       -2.08719400000000       -1.37629700000000
C           64.00545900000000       -2.79764500000000       -1.96872300000000
C           65.30465700000001       -2.19029100000000       -1.66537500000000
N           65.12631300000000       -1.04180300000000       -0.83338900000000
C           66.48833500000001       -2.63232900000000       -2.13693300000000
C           66.51474200000000       -3.80440100000000       -3.03660900000000
C           66.59923999999999       -5.09788400000000       -2.50560100000000
C           66.62914499999999       -6.20568600000000       -3.35706200000000
C           66.57770100000000       -6.03757900000000       -4.75041500000000
N           66.60954599999999       -7.19839200000000       -5.60146600000000
C           66.55972900000000       -7.13097500000000       -7.05821100000000
C           66.49614600000000       -4.73368400000000       -5.27827400000000
C           66.46480600000000       -3.62652600000000       -4.42546300000000
C           67.78876000000000       -2.00178300000000       -1.80034600000000
C           69.06318899999999       -2.37445300000000       -2.42703100000000
C           70.01625399999999       -1.66869900000000       -1.85335900000000
N           67.95486699999999       -1.10596500000000       -0.87777800000000
C           69.35727099999998       -0.84074100000000       -0.85129700000000
C           69.97240100000000       -0.02269400000000        0.01676900000000
C           69.22366000000000        0.77967000000000        1.00765600000000
C           69.76088000000000        1.32150500000000        2.09337400000000
C           68.72785100000000        2.11024500000000        2.73576200000000
C           67.62992000000000        1.99899000000000        1.99682900000000
N           67.85254099999999        1.15205900000000        0.87018600000000
C           66.37045500000001        2.73870900000000        2.25125800000000
C           66.42864700000000        3.96500400000000        3.08331500000000
C           65.76885200000000        4.01886600000000        4.31989000000000
C           65.83915800000000        5.17125200000000        5.10820300000000
C           66.57711900000000        6.28872900000000        4.67235400000000
N           66.66679700000000        7.49130800000000        5.45889300000000
C           66.02246900000000        7.65520800000000        6.75783500000000
C           67.24304400000000        6.22440800000000        3.43842100000000
C           67.17358100000000        5.07134100000000        2.65203300000000
C           65.19583200000000        2.33229000000000        1.73229300000000
C           63.91582499999999        3.01948400000000        1.86868500000000
C           63.02708400000000        2.26292100000000        1.25856400000000
C           63.72786300000000        1.09049800000000        0.72314000000000
N           64.99608900000000        1.12660700000000        0.99391400000000
H           62.00879900000000       -2.30751300000000       -1.43360900000000
H           63.82072800000000       -3.67539300000000       -2.57457800000000
H           66.64093900000000       -5.24729200000000       -1.43334300000000
H           66.69257899999999       -7.19844200000000       -2.92896100000000
H           66.67170800000000       -8.14507700000000       -5.16315700000000
H           65.61660200000000       -6.64274900000000       -7.38264400000000
H           67.43234900000000       -6.56040800000000       -7.44043800000000
H           66.59282500000000       -8.15628600000000       -7.48403600000000
H           66.45666100000000       -4.56339400000000       -6.34552300000000
H           66.40348299999999       -2.63013800000000       -4.84651100000000
H           69.21669600000000       -3.10052600000000       -3.21428300000000
H           71.06967299999999       -1.72422300000000       -2.09300800000000
H           70.78463400000000        1.22208400000000        2.42825600000000
H           68.84466600000000        2.70715000000000        3.63090000000000
H           65.20277700000000        3.16594500000000        4.67416700000000
H           65.31765300000001        5.18075100000000        6.05532400000000
H           67.21933700000000        8.29718700000000        5.08769100000000
H           66.41131100000000        6.89829800000000        7.47090700000000
H           66.23878600000000        8.66699300000000        7.16148800000000
H           64.92308400000000        7.54511900000000        6.65085400000000
H           67.81919299999998        7.07023700000000        3.08438400000000
H           67.69616700000000        5.04232700000000        1.70360100000000
H           63.70977199999999        3.96266700000000        2.35723500000000
H           61.97399200000000        2.49377600000000        1.17317000000000
Fe          82.35231200000000       -2.02659000000000       -1.59094900000000
C           78.58865999999999       -0.02269400000000        0.01676900000000
C           79.24562200000000       -0.98127300000000       -0.66164100000000
C           78.60393499999999       -2.08719400000000       -1.37629700000000
C           79.54290399999999       -2.79764500000000       -1.96872300000000
C           80.84210200000000       -2.19029100000000       -1.66537500000000
N           80.66375800000000       -1.04180300000000       -0.83338900000000
C           82.02578000000000       -2.63232900000000       -2.13693300000000
C           82.05218700000000       -3.80440100000000       -3.03660900000000
C           82.13668599999998       -5.09788400000000       -2.50560100000000
C           82.16659000000000       -6.20568600000000       -3.35706200000000
C           82.11514699999999       -6.03757900000000       -4.75041500000000
N           82.14699100000000       -7.19839200000000       -5.60146600000000
C           82.09717400000000       -7.13097500000000       -7.05821100000000
C           82.03359100000000       -4.73368400000000       -5.27827400000000
C           82.00225200000000       -3.62652600000000       -4.42546300000000
C           83.32620600000000       -2.00178300000000       -1.80034600000000
C           84.60063400000000       -2.37445300000000       -2.42703100000000
C           85.55369899999999       -1.66869900000000       -1.85335900000000
N           83.49231200000000       -1.10596500000000       -0.87777800000000
C           84.89471699999999       -0.84074100000000       -0.85129700000000
C           85.50984600000000       -0.02269400000000        0.01676900000000
C           84.76110599999998        0.77967000000000        1.00765600000000
C           85.29832499999999        1.32150500000000        2.09337400000000
C           84.26529600000001        2.11024500000000        2.73576200000000
C           83.16736500000000        1.99899000000000        1.99682900000000
N           83.38998699999999        1.15205900000000        0.87018600000000
C           81.90789999999998        2.73870900000000        2.25125800000000
C           81.96609199999999        3.96500400000000        3.08331500000000
C           81.30629799999998        4.01886600000000        4.31989000000000
C           81.37660300000000        5.17125200000000        5.10820300000000
C           82.11456500000000        6.28872900000000        4.67235400000000
N           82.20424300000001        7.49130800000000        5.45889300000000
C           81.55991499999999        7.65520800000000        6.75783500000000
C           82.78048999999999        6.22440800000000        3.43842100000000
C           82.71102700000000        5.07134100000000        2.65203300000000
C           80.73327800000000        2.33229000000000        1.73229300000000
C           79.45327100000000        3.01948400000000        1.86868500000000
C           78.56452999999999        2.26292100000000        1.25856400000000
C           79.26530900000000        1.09049800000000        0.72314000000000
N           80.53353400000000        1.12660700000000        0.99391400000000
H           77.54624400000000       -2.30751300000000       -1.43360900000000
H           79.35817399999999       -3.67539300000000       -2.57457800000000
H           82.17838399999999       -5.24729200000000       -1.43334300000000
H           82.23002500000000       -7.19844200000000       -2.92896100000000
H           82.20915300000000       -8.14507700000000       -5.16315700000000
H           81.15404800000000       -6.64274900000000       -7.38264400000000
H           82.96979399999999       -6.56040800000000       -7.44043800000000
H           82.13027099999999       -8.15628600000000       -7.48403600000000
H           81.99410600000000       -4.56339400000000       -6.34552300000000
H           81.94092799999999       -2.63013800000000       -4.84651100000000
H           84.75414200000000       -3.10052600000000       -3.21428300000000
H           86.60711800000000       -1.72422300000000       -2.09300800000000
H           86.32207900000000        1.22208400000000        2.42825600000000
H           84.38211099999999        2.70715000000000        3.63090000000000
H           80.74022300000000        3.16594500000000        4.67416700000000
H           80.85509899999998        5.18075100000000        6.05532400000000
H           82.75678200000000        8.29718700000000        5.08769100000000
H           81.94875700000000        6.89829800000000        7.47090700000000
H           81.77623199999999        8.66699300000000        7.16148800000000
H           80.46052899999999        7.54511900000000        6.65085400000000
H           83.35663800000000        7.07023700000000        3.08438400000000
H           83.23361199999999        5.04232700000000        1.70360100000000
H           79.24721800000000        3.96266700000000        2.35723500000000
H           77.51143700000000        2.49377600000000        1.17317000000000
280
 energy: -457.061180951451 gnorm: 11.413254432450 xtb: 6.5.1 (b24c23e)
Fe          50.14364882625531        1.85705351083765        1.54575178202347
C           46.43918735027650        0.08443670265613       -0.04351397659514
C           47.08912245049055        0.93835213118162        0.75428673352546
C           46.42385886949346        1.85645230039254        1.67011851821237
C           47.35464796689970        2.57018320376589        2.27788428264656
C           48.65959100380059        2.14822017928440        1.76725438829469
N           48.50406499853258        1.10535490403016        0.80722982761111
C           49.80442264723835        2.77949252372329        2.20863373229582
C           49.88523778867978        3.79357677837947        3.11057440232729
C           49.39798414423414        5.05998180849575        2.75959744063807
C           49.44616518442606        6.11159021967137        3.67801854928629
C           49.98723322779603        5.91757756465561        4.95919231822760
N           50.02354299738163        7.02043244408798        5.88245897171849
C           50.56507760820537        6.92299354163524        7.23437705620188
C           50.48260541315505        4.64492267513801        5.30424142196763
C           50.43298243288788        3.59338702768231        4.38502172352005
C           51.24942098528473        2.22415656946908        1.59061788172939
C           52.42846311950611        2.89509383452752        1.80044430120840
C           53.37252500932265        2.18479965118967        1.21686772098282
N           51.30944113655255        1.10827769732912        0.90280699723043
C           52.70554705421979        1.03074158424394        0.62796636999393
C           53.31239035787422        0.01857952650409       -0.01466488656852
C           52.56127164357258       -1.11325950210122       -0.59862811959774
C           53.10324769669714       -2.28281513049373       -0.92274105064917
C           52.07222088320920       -3.07326231917088       -1.56350327286996
C           50.96735619137346       -2.33317559847042       -1.59396762035736
N           51.18807014115559       -1.06129211762323       -0.98446419353488
C           49.69813518669794       -2.74953543362647       -2.24145687100873
C           49.73622017027297       -3.85063946941111       -3.23476860853221
C           50.48184317576599       -3.70746334003590       -4.41351536501769
C           50.53885280994260       -4.74805253347941       -5.34473631965439
C           49.85305511491275       -5.95513091809246       -5.10791414275758
N           49.89160709481768       -7.04510202741211       -6.04646404221684
C           50.62848826240451       -6.99952826237131       -7.30551246502431
C           49.11547590744773       -6.09583941730782       -3.92160945928675
C           49.05978625333452       -5.05525460982750       -2.99097819689773
C           48.52855049192116       -2.14713145512732       -1.94906358693004
C           47.22878512356632       -2.44430234529228       -2.54790360441143
C           46.35581045822093       -1.66758962684039       -1.93401057041161
C           47.09039480309472       -0.86690416808216       -0.95610675273335
N           48.35803061187549       -1.13851721478100       -0.95648238158368
H           45.35551028709052        0.08791083975272       -0.02458086709468
H           45.35861516601128        1.94617536833312        1.83945570552998
H           47.15497774300665        3.32895469139079        3.02275923870370
H           48.98221427326384        5.23186411369039        1.77405010106472
H           49.06236647698563        7.08225616611432        3.38979549694047
H           49.64421497207626        7.94593490330061        5.57971863715170
H           51.63726127182731        6.63822571165252        7.19262567871011
H           49.99515782400130        6.16891712800794        7.81658063759931
H           50.47909749787470        7.90450399428514        7.74633431229583
H           50.90913958219860        4.45706806714916        6.28011541839993
H           50.82011701212343        2.62139136502141        4.66646693253218
H           52.58759690826160        3.82372451391011        2.33187991046729
H           54.42445907830733        2.43593379158691        1.19771976953954
H           54.12990154308761       -2.58449700593330       -0.76604543325411
H           52.19046114831677       -4.07057857728697       -1.96618306555533
H           51.01693262632212       -2.78654638223628       -4.61207873972819
H           51.12026150305889       -4.60306539299125       -6.24503507191533
H           49.36693169744922       -7.92136694489681       -5.82535786431810
H           50.24018412629925       -6.17652317769500       -7.94136664245963
H           50.50194982318105       -7.95831172848678       -7.85104028331729
H           51.70963694769306       -6.84604550628616       -7.10556518812142
H           48.58419129954734       -7.01681058458461       -3.71622480611811
H           48.49267351002516       -5.18862574004845       -2.07761401584838
H           46.99823469309935       -3.14975028266973       -3.33504861089065
H           45.29293576119236       -1.63608672771425       -2.13286591875163
Fe          98.37125371707089       -1.90440838710593       -1.46757037052245
C          102.07571740762405        0.03335283402597       -0.08443825372571
C          101.42578262475605       -0.93155379071878       -0.74370096867179
C          102.09104677809502       -2.02564191128497       -1.43984249780298
C          101.16025339265968       -2.77450125470554       -2.00376254202674
C           99.85531665096124       -2.18410316012651       -1.70338588616436
N          100.01084066593469       -1.01965777171824       -0.89512630680740
C           98.71048203449945       -2.75258823652469       -2.22313615733117
C           98.62966717588849       -3.85407132977288       -3.01598552311218
C           99.11691935800212       -3.78787839248335       -4.32845660737880
C           99.06873841328479       -4.91363252303539       -5.15432884818645
C           98.52767200349096       -6.12159714982359       -4.68543706384790
N           98.49136044543968       -7.26326490545459       -5.56026588819797
C           97.94982719443607       -8.56134253608810       -5.17018489919921
C           98.03229980105250       -6.18064344100264       -3.36816109376912
C           98.08192200769315       -5.05412654185051       -2.54253473301810
C           97.26548181837623       -2.02828997142541       -1.81603431222762
C           96.08644375954790       -2.37946240642181       -2.42502290467163
C           95.14237941225646       -1.65495788449566       -1.85917470846243
N           97.20546090202420       -1.11356958502408       -0.87712485944999
C           95.80935981067812       -0.82843636352180       -0.86142924552439
C           95.20250493814434        0.01957068255707       -0.01386833688025
C           95.95363215187041        0.83642338796952        0.96326968683280
C           95.41165628073257        1.40792496983935        2.03392498513282
C           96.44268338838825        2.20572089356928        2.66551059838307
C           97.54754881014314        2.07396716821944        1.93661086962631
N           97.32683694852815        1.20162332707522        0.82836605872033
C           98.81676714970456        2.79670436342900        2.20165704523715
C           98.77868402916185        4.00633851871315        3.05948734561924
C           98.03306073220828        5.12544441578687        2.66256007347278
C           97.97605190861535        6.26128048462729        3.47488172454231
C           98.66184959852964        6.29355190230271        4.70455330960287
N           98.62329844109306        7.44731313504494        5.56346471132120
C           97.88641571947285        8.66608209088886        5.24426806673989
C           99.39942858772375        5.16653111886028        5.10071964756041
C           99.45511967605037        4.03127106472927        4.28827240229291