240
 energy: -410.420936839590 gnorm: 0.528040205976 xtb: 6.5.1 (b24c23e)
Fe          37.52103600000000        0.06773600000000        0.01659900000000
C           34.18447299999999       -0.08833500000000        0.00618700000000
C           34.84858199999999       -1.24053900000000       -0.12164200000000
C           34.19890400000000       -2.53728000000000       -0.27203200000000
C           35.14073300000000       -3.46099300000000       -0.31942400000000
C           36.44556200000000       -2.79657200000000       -0.19995600000000
N           36.26727499999999       -1.38499300000000       -0.07952000000000
C           37.63576499999999       -3.42829800000000       -0.15477600000000
C           38.92939800000000       -2.71226100000000       -0.00430800000000
C           40.21994099999999       -3.38705900000000        0.18060300000000
C           41.15465699999999       -2.46058300000000        0.23839700000000
N           39.07001600000000       -1.42320600000000       -0.06427600000000
C           40.46952099999999       -1.18316900000000        0.08299600000000
C           41.06409500000000        0.01925900000000        0.01230700000000
C           40.30308099999999        1.27684200000000       -0.16660300000000
C           40.84004900000000        2.42191300000000       -0.56880700000000
C           39.79631400000000        3.42666400000000       -0.52674900000000
C           38.69029600000000        2.83021900000000       -0.09745600000000
C           37.40518800000000        3.53223200000000        0.15374700000000
C           37.42430800000000        5.00703300000000        0.31170800000000
C           36.76504400000000        5.83298500000000       -0.61454000000000
C           36.80374700000000        7.22309900000000       -0.46944300000000
C           37.50530200000000        7.79705800000000        0.59453300000000
C           38.17134500000000        6.98182400000000        1.51403100000000
C           38.13455100000000        5.59117100000000        1.37310800000000
C           36.24014000000000        2.86223000000000        0.24245000000000
C           34.92777999999999        3.44316600000000        0.52123300000000
C           34.06618800000000        2.44609400000000        0.46874900000000
C           34.81917000000000        1.22914500000000        0.17046600000000
N           36.08732100000000        1.45925300000000        0.03703300000000
N           38.92005500000000        1.44159200000000        0.14956700000000
C           37.67454600000000       -4.90320800000000       -0.24668400000000
C           37.57355700000000       -5.53535900000000       -1.49557900000000
C           37.61164999999999       -6.93060800000000       -1.58017200000000
C           37.75156600000000       -7.69914100000000       -0.42057200000000
C           37.85341400000000       -7.07355900000000        0.82567900000000
C           37.81503300000000       -5.67860800000000        0.91453100000000
H           33.10107100000000       -0.11693500000000        0.00319800000000
H           33.13457700000000       -2.72699700000000       -0.32655600000000
H           34.95529900000000       -4.52285900000000       -0.41720900000000
H           40.39736000000000       -4.45190900000000        0.25270800000000
H           42.21332699999999       -2.64506700000000        0.36324900000000
H           41.86938900000000        2.58959500000000       -0.85596800000000
H           39.90916400000000        4.47330700000000       -0.77816800000000
H           36.22618499999999        5.39967400000000       -1.44822100000000
H           36.29247500000000        7.85553800000000       -1.18359600000000
H           37.53520200000000        8.87332700000000        0.70482700000000
H           38.71714599999999        7.42758500000000        2.33550300000000
H           38.65564000000000        4.96927800000000        2.09072700000000
H           34.68293599999999        4.47537500000000        0.73417100000000
H           32.99891200000000        2.52756200000000        0.62762400000000
H           37.46548300000000       -4.94781000000000       -2.39903900000000
H           37.53308600000000       -7.41607100000000       -2.54429400000000
H           37.78120400000000       -8.77896000000000       -0.48771000000000
H           37.96201100000000       -7.66956800000000        1.72253600000000
H           37.89467000000000       -5.20232300000000        1.88404000000000
Fe          89.42314399999999       -0.02935900000000        0.01449000000000
C           92.75970700000001        0.12701600000000        0.01086400000000
C           92.09559800000000        1.28368400000000       -0.06681300000000
C           92.74527600000000        2.58573300000000       -0.16075400000000
C           91.80344700000001        3.51063200000000       -0.16799200000000
C           90.49861799999999        2.84165000000000       -0.07748700000000
N           90.67690500000000        1.42617300000000       -0.01845800000000
C           89.30841500000000        3.47081900000000       -0.00491900000000
C           88.01478200000000        2.74892300000000        0.11431500000000
C           86.72423899999998        3.41505600000000        0.32835300000000
C           85.78952300000000        2.48694400000000        0.34586300000000
N           87.87416399999998        1.46368800000000       -0.00157000000000
C           86.47465900000000        1.21748300000000        0.13514100000000
C           85.88008499999999        0.01925900000000        0.01230700000000
C           86.64109900000000       -1.22937000000000       -0.22104100000000
C           86.10413100000000       -2.35589600000000       -0.67258700000000
C           87.14786599999999       -3.36152600000000       -0.67419700000000
C           88.25388400000000       -2.78428400000000       -0.21940900000000
C           89.53899199999999       -3.49654300000000        0.00107400000000
C           89.51987200000001       -4.97681200000000        0.09484700000000
C           90.17913599999999       -5.76176500000000       -0.86639200000000
C           90.14043400000000       -7.15686800000000       -0.78179200000000
C           89.43887799999999       -7.77648600000000        0.25625700000000
C           88.77283499999999       -7.00194700000000        1.21028700000000
C           88.80962900000000       -5.60648700000000        1.12988100000000
C           90.70404000000001       -2.83102400000000        0.11878600000000
C           92.01640000000000       -3.42351800000000        0.37208100000000
C           92.87799199999999       -2.42510700000000        0.36294100000000
C           92.12500999999999       -1.19635400000000        0.11778100000000
N           90.85685899999999       -1.42045100000000       -0.02551700000000
N           88.02412500000000       -1.40769300000000        0.08767800000000
C           89.26963400000000        4.94832800000000       -0.03269700000000
C           89.37062299999999        5.63411300000000       -1.25296500000000
C           89.33253000000001        7.03171900000000       -1.27689300000000
C           89.19261400000001        7.74917500000000       -0.08501600000000
C           89.09076599999999        7.07006800000000        1.13289500000000
C           89.12914699999999        5.67257500000000        1.16109200000000
H           93.84310899999998        0.15571900000000        0.00912000000000
H           93.80960300000000        2.77763800000000       -0.20698800000000
H           91.98888100000001        4.57574300000000       -0.21957600000000
H           86.54681999999998        4.47577100000000        0.44662800000000
H           84.73085300000000        2.66583300000000        0.47860800000000
H           85.07479100000000       -2.51095100000000       -0.96675800000000
H           87.03501599999998       -4.39626400000000       -0.97082500000000
H           90.71799500000000       -5.29266300000000       -1.68047100000000
H           90.65170499999999       -7.75770100000000       -1.52273400000000
H           89.40897800000000       -8.85652900000000        0.31971400000000
H           88.22703400000000       -7.48295700000000        2.01162800000000
H           88.28853999999998       -5.01634000000000        1.87382700000000
H           92.26124400000000       -4.46399900000000        0.53999700000000
H           93.94526800000000       -2.51339700000000        0.51812900000000
H           89.47869699999998        5.08634800000000       -2.18108500000000
H           89.41109400000001        7.55858800000000       -2.21902700000000
H           89.16297600000000        8.83089000000000       -0.10520300000000
H           88.98216900000000        7.62657200000000        2.05478600000000
H           89.04951000000000        5.15464100000000        2.10900600000000
C           47.67914000000000        0.02012900000000        0.02086100000000
C           46.47020100000000        0.00667400000000        0.01241400000000
C           45.04867200000000        0.01549300000000        0.00043100000000
C           43.83700200000000        0.02293200000000        0.01129400000000
C           49.09574499999999        0.01345400000000        0.02139500000000
C           50.31644000000000        0.02293200000000        0.01129400000000
C           64.07584900000001        0.02012900000000        0.02086100000000
C           62.86691000000000        0.00667400000000        0.01241400000000
C           61.44538100000000        0.01549300000000        0.00043100000000
C           60.23371100000000        0.02293200000000        0.01129400000000
C           65.49245300000000        0.01345400000000        0.02139500000000
C           66.71314900000000        0.02293200000000        0.01129400000000
C           80.47255800000001        0.02012900000000        0.02086100000000
C           79.26361899999999        0.00667400000000        0.01241400000000
C           77.84209000000000        0.01549300000000        0.00043100000000
C           76.63042000000000        0.02293200000000        0.01129400000000
C           81.88916199999998        0.01345400000000        0.02139500000000
C           83.10985800000000        0.02293200000000        0.01129400000000
Fe          55.20006800000000        0.07359700000000        0.02717800000000
C           51.82586000000000       -0.02336100000000       -0.01437900000000
C           52.48468099999999       -1.19643300000000       -0.01918800000000
C           51.83923400000000       -2.51112200000000       -0.00726600000000
C           52.77897900000000       -3.43380500000000       -0.01554500000000
C           54.08264300000000       -2.76388700000000       -0.03693500000000
N           53.90670800000000       -1.34536600000000       -0.03601500000000
C           55.26917399999999       -3.40313500000000       -0.05537900000000
C           56.57829599999999       -2.70704400000000       -0.08105800000000
C           57.86325799999999       -3.41063600000000       -0.17908600000000
C           58.81790400000000       -2.50644100000000       -0.17338200000000
N           56.73921400000000       -1.42029600000000       -0.01709200000000
C           58.15176500000000       -1.21307200000000       -0.06959200000000
C           58.77383100000000       -0.02336100000000       -0.01437900000000
C           58.04950299999999        1.26499400000000        0.09975300000000
C           58.65024900000000        2.43741100000000        0.25416500000000
C           57.61968000000000        3.45023900000000        0.29376000000000
C           56.45027600000000        2.83665300000000        0.15398700000000
C           55.14346500000000        3.54605600000000        0.11792400000000
C           55.15262800000000        5.02822500000000        0.14057300000000
C           54.78499400000000        5.72072600000000        1.30562800000000
C           54.80904400000000        7.11853200000000        1.32908600000000
C           55.20576000000000        7.83063700000000        0.19298100000000
C           55.57616199999999        7.14627700000000       -0.96857900000000
C           55.55196100000000        5.74816900000000       -0.99656700000000
C           53.96136500000000        2.90099800000000        0.06532700000000
C           52.65270699999999        3.54470600000000        0.00002700000000
C           51.76701899999999        2.57333800000000       -0.04120600000000
C           52.49531500000000        1.30047100000000       -0.00421900000000
N           53.78008100000000        1.48350700000000        0.05673000000000
N           56.62927400000000        1.42369400000000        0.02955000000000
C           55.29095500000000       -4.88178000000000       -0.06148600000000
C           55.15029100000000       -5.58530100000000       -1.26788000000000
C           55.18795100000000       -6.98299200000000       -1.27220800000000
C           55.36710799999999       -7.68265200000000       -0.07509100000000
C           55.50751499999999       -6.98542500000000        1.12890500000000
C           55.47207800000000       -5.58782300000000        1.13718700000000
H           50.77895599999999       -2.72515500000000        0.00908300000000
H           52.59267199999999       -4.50012600000000       -0.00476900000000
H           58.01976300000000       -4.47862400000000       -0.24941900000000
H           59.87704699999999       -2.71660600000000       -0.23617200000000
H           59.71300800000000        2.62132200000000        0.33180500000000
H           57.78543600000000        4.51226900000000        0.40795800000000
H           54.48466400000000        5.17794400000000        2.19290600000000
H           54.52342399999999        7.65031600000000        2.22829600000000
H           55.22624299999999        8.91229300000000        0.21450500000000
H           55.88559299999999        7.69863700000000       -1.84645400000000
H           55.84564000000000        5.22676900000000       -1.89941100000000
H           52.42545900000000        4.60326400000000       -0.01797400000000
H           50.69688100000000        2.71867400000000       -0.09590600000000
H           55.01502599999999       -5.05123500000000       -2.20007400000000
H           55.08076199999999       -7.52403300000000       -2.20341600000000
H           55.39789900000000       -8.76412400000000       -0.07996600000000
H           55.64625500000000       -7.52889700000000        2.05481500000000
H           55.58550600000000       -5.05523800000000        2.07313800000000
Fe          71.59677700000000        0.07359700000000        0.02717800000000
C           68.22256899999999       -0.02336100000000       -0.01437900000000
C           68.88139000000000       -1.19643300000000       -0.01918800000000
C           68.23594199999999       -2.51112200000000       -0.00726600000000
C           69.17568799999999       -3.43380500000000       -0.01554500000000
C           70.47935200000001       -2.76388700000000       -0.03693500000000
N           70.30341700000000       -1.34536600000000       -0.03601500000000
C           71.66588299999999       -3.40313500000000       -0.05537900000000
C           72.97500500000000       -2.70704400000000       -0.08105800000000
C           74.25996700000000       -3.41063600000000       -0.17908600000000
C           75.21461300000000       -2.50644100000000       -0.17338200000000
N           73.13592300000001       -1.42029600000000       -0.01709200000000
C           74.54847400000000       -1.21307200000000       -0.06959200000000
C           75.17054000000000       -0.02336100000000       -0.01437900000000
C           74.44621200000000        1.26499400000000        0.09975300000000
C           75.04695800000000        2.43741100000000        0.25416500000000
C           74.01638899999999        3.45023900000000        0.29376000000000
C           72.84698500000000        2.83665300000000        0.15398700000000
C           71.54017399999999        3.54605600000000        0.11792400000000
C           71.54933699999998        5.02822500000000        0.14057300000000
C           71.18170300000000        5.72072600000000        1.30562800000000
C           71.20575300000000        7.11853200000000        1.32908600000000
C           71.60246899999999        7.83063700000000        0.19298100000000
C           71.97287100000000        7.14627700000000       -0.96857900000000
C           71.94867000000001        5.74816900000000       -0.99656700000000
C           70.35807400000000        2.90099800000000        0.06532700000000
C           69.04941500000000        3.54470600000000        0.00002700000000
C           68.16372800000001        2.57333800000000       -0.04120600000000
C           68.89202400000001        1.30047100000000       -0.00421900000000
N           70.17678900000000        1.48350700000000        0.05673000000000
N           73.02598300000000        1.42369400000000        0.02955000000000
C           71.68766399999998       -4.88178000000000       -0.06148600000000
C           71.54700000000000       -5.58530100000000       -1.26788000000000
C           71.58466000000000       -6.98299200000000       -1.27220800000000
C           71.76381700000000       -7.68265200000000       -0.07509100000000
C           71.90422400000000       -6.98542500000000        1.12890500000000
C           71.86878700000000       -5.58782300000000        1.13718700000000
H           67.17566500000000       -2.72515500000000        0.00908300000000
H           68.98938099999998       -4.50012600000000       -0.00476900000000
H           74.41647199999998       -4.47862400000000       -0.24941900000000
H           76.27375600000001       -2.71660600000000       -0.23617200000000
H           76.10971700000000        2.62132200000000        0.33180500000000
H           74.18214499999999        4.51226900000000        0.40795800000000
H           70.88137299999998        5.17794400000000        2.19290600000000
H           70.92013300000001        7.65031600000000        2.22829600000000
H           71.62295200000000        8.91229300000000        0.21450500000000
H           72.28230200000000        7.69863700000000       -1.84645400000000
H           72.24234899999999        5.22676900000000       -1.89941100000000
H           68.82216800000000        4.60326400000000       -0.01797400000000
H           67.09359000000001        2.71867400000000       -0.09590600000000
H           71.41173499999999       -5.05123500000000       -2.20007400000000
H           71.47747099999999       -7.52403300000000       -2.20341600000000
H           71.79460799999998       -8.76412400000000       -0.07996600000000
H           72.04296400000000       -7.52889700000000        2.05481500000000
H           71.98221500000000       -5.05523800000000        2.07313800000000
240
 energy: -410.548319781864 gnorm: 0.301665124332 xtb: 6.5.1 (b24c23e)
Fe          37.54085690014706        0.05001880218421        0.01288172408531
C           34.18487405598200       -0.06823577580019        0.00961211190275
C           34.85647638600665       -1.23592068838597       -0.12027551823225
C           34.20336521596201       -2.52551149445795       -0.27149101572905
C           35.15800868234726       -3.45833541591624       -0.31924317351660
C           36.45029753089486       -2.78360678225598       -0.19944237178613
N           36.25522155982040       -1.38896346372080       -0.08148440024835
C           37.65412936584913       -3.42138327596631       -0.15174304429715
C           38.92315964065755       -2.72509196438488       -0.00483070896051
C           40.20439437035550       -3.39775228493787        0.17621236360732
C           41.15121260056075       -2.45088781924734        0.23902479477623
N           39.07659079332539       -1.41653968644484       -0.05908240668864
C           40.47865624933667       -1.17331014831922        0.08312453925602
C           41.04736045468359        0.03988139305475        0.00843446875175
C           40.29904949534133        1.26299662895323       -0.15486479315933
C           40.84395583142674        2.44366250865020       -0.57105344479891
C           39.81931419191481        3.42864120046315       -0.52579906440854
C           38.68254290925708        2.81470727586154       -0.08438085692127
C           37.42230609034082        3.51921243384905        0.15350334076067
C           37.43813580224845        5.00253577318024        0.30490419305281
C           36.76838557578935        5.83111826194955       -0.60783868064791
C           36.80656670215524        7.21624259797895       -0.46402620427466
C           37.50514335987024        7.79045630245397        0.59394571372907
C           38.16717736268286        6.97725460238212        1.50906186835383
C           38.13606911997803        5.59257312578100        1.36620442310076
C           36.24376720564872        2.85451659685246        0.24269473180078
C           34.93867445309034        3.43692218499767        0.51833749224600
C           34.05585100702230        2.43021475331267        0.46508931574803
C           34.80149498547159        1.21758052981753        0.17004707456545
N           36.09345076761107        1.45768705791644        0.05037787012965
N           38.91226854504186        1.43479677659203        0.13298419076714
C           37.68301922564213       -4.90518505928478       -0.24630633895398
C           37.57415417829512       -5.53827806687655       -1.48941360317263
C           37.61147686371754       -6.92738327465519       -1.57373707247265
C           37.75142781786187       -7.69367410181416       -0.42021422596236
C           37.85253669928416       -7.07019726107554        0.82011749948398
C           37.81768266996433       -5.68167078180212        0.90901235771340
H           33.10161993112978       -0.10541869965287        0.00538772959226
H           33.13826289333598       -2.71065846805656       -0.32556660972813
H           34.97763319976707       -4.52093430051946       -0.41686267434312
H           40.38049584078305       -4.45936907086915        0.25067114417555
H           42.21064901241652       -2.62594009648758        0.36242282321033
H           41.87110320857955        2.59922385526050       -0.85817644191004
H           39.91889889395372        4.47253087554188       -0.78131101013839
H           36.22957638571252        5.39764874042612       -1.44401252604313
H           36.29451599993554        7.85055383458490       -1.18078140314249
H           37.53508920917371        8.86935022109050        0.70422201493658
H           38.71448478708196        7.42431661571587        2.33255423044917
H           38.65389756141368        4.96927807265845        2.08719723547181
H           34.70228405382041        4.47135278730460        0.73070097053891
H           32.99253718809462        2.51344113810388        0.62526236845305
H           37.46650261063254       -4.94801673730057       -2.39367236105465
H           37.53322179233051       -7.41337064235141       -2.54068438877059
H           37.78115521822956       -8.77577263812364       -0.48760259844087
H           37.96119952020272       -7.66702449198558        1.71951845393737
H           37.89452033161546       -5.20256843572843        1.87949559775616
Fe          89.40324218766303       -0.01149782422480        0.01156640036803
C           92.75929783159303        0.10677926328177        0.01340663127189
C           92.08769125692265        1.27901479470930       -0.06566784719526
C           92.74081712293838        2.57395891026872       -0.16073019964395
C           91.78618330583473        3.50797643454090       -0.16793171571000
C           90.49389734458551        2.82867443979100       -0.07752209419121
N           90.68897792333934        1.43025852284596       -0.02022529567559
C           89.29006199161915        3.46379222420152       -0.00214600659896
C           88.02106648084883        2.76180878398651        0.11435556748621
C           86.73978840928284        3.42594882579643        0.32441212281973
C           85.79300223745318        2.47724302061281        0.34612321803493
N           87.86773614642590        1.45685694751206        0.00313610338117
C           86.46567803298299        1.20770481581716        0.13484395051167
C           85.89742408896112       -0.00112396130760        0.00773323852038
C           86.64519686799602       -1.21604199206692       -0.20875134199365
C           86.10023430162730       -2.37755782424017       -0.67584018712013
C           87.12480109639446       -3.36352955499394       -0.67333031087893
C           88.26163811824672       -2.76932736870676       -0.20568503833982
C           89.52185682109452       -3.48350619956160        0.00138361704659
C           89.50602853359362       -4.97201562118681        0.08822744183476
C           90.17579139173218       -5.76018925341285       -0.85962021773532
C           90.13761611161027       -7.15025216912362       -0.77608195007167
C           89.43903703218986       -7.76986353067698        0.25595690661429
C           88.77700507125360       -6.99716343800607        1.20552057148119
C           88.80810972775734       -5.60758324021241        1.12291827652008
C           90.70040680753851       -2.82331091897813        0.11937224041065
C           92.00549933485065       -3.41714627044781        0.36946159332482
C           92.88832307288523       -2.40907604393764        0.35997839462718
C           92.14267970394822       -1.18477003156253        0.11786338233392
N           90.85070811549328       -1.41945784937981       -0.01213516437021
N           88.03196677306676       -1.40025451254408        0.07160829469941
C           89.26115388825697        4.95029603499669       -0.03223279100550
C           89.37002497890289        5.63676276271782       -1.24668020946781
C           89.33270515084489        7.02821903877949       -1.27060497833451
C           89.19275306660288        7.74369762467364       -0.08489607458429
C           89.09164537494125        7.06695310007665        1.12719373583407
C           89.12649508815045        5.67587777428355        1.15571388084147
H           93.84255382075226        0.14411515624125        0.01081474052886
H           93.80591951595763        2.76127280120269       -0.20670642661669
H           91.96655101123731        4.57381067816956       -0.21931413023554
H           86.56367051162313        4.48331978806933        0.44491070798841
H           84.73353699690789        2.64671152223917        0.47695194135356
H           85.07307842495894       -2.52049949453507       -0.96939459090434
H           87.02524575895090       -4.39534621906184       -0.97391721233718
H           90.71460369628825       -5.29082239408717       -1.67618115024361
H           90.64966487893361       -7.75284320146418       -1.51970485416280
H           89.40909014829694       -8.85252831748148        0.31928191748327
H           88.22969635605831       -7.47956155417273        2.00882327760552
H           88.29028258577037       -5.01618554820277        1.87029935255163
H           92.24189120681979       -4.45982474254088        0.53670473842932
H           93.95163893939615       -2.49918531625295        0.51637968298011
H           89.47767626712616        5.08632072620780       -2.17571482342154
H           89.41095790592291        7.55573337420779       -2.21553805337810
H           89.16302338526033        8.82770051138484       -0.10523416749547
H           88.98298036489628        7.62416193559135        2.05166124091792
H           89.04965876604480        5.15508440253343        2.10447735388332
C           47.69081402487731        0.01937312302273        0.02080033983935
C           46.45824664241128        0.00775289572489        0.01244849166570
C           45.04765853355053        0.01581502254236        0.00163173156135
C           43.82186524398278        0.02314363348473        0.01102103797451
C           49.09230448189676        0.01110358672966        0.01852249033254
C           50.32135684806851        0.02310889657525        0.01002256690714
C           64.08994597285223        0.01995188420302        0.02066938637257
C           62.85764492085495        0.00834116629666        0.01368386020672
C           61.45711288988492        0.01477530689697        0.00021614676613
C           60.22834122077674        0.03306327422537        0.00740133243907
C           65.49008078546991        0.01104281434953        0.01840676606420
C           66.71893932553459        0.02291089555194        0.01004080644679
C           80.48732963977309        0.02043584359217        0.01992297097330
C           79.25492879894560        0.00806654466851        0.01316213889882
C           77.85431144924965        0.01472738325999        0.00018951417080
C           76.62516481769212        0.03329535179895        0.00743641603142
C           81.89442906077257        0.01372487268212        0.02107392945879
C           83.12065074342782        0.02125026171767        0.01184821258319
Fe          55.21363625549446        0.05913359946146        0.02370935460093
C           51.79819264726077       -0.00127282286476       -0.01150165830631
C           52.48001404818738       -1.18993730979711       -0.01805672643180
C           51.83882739352799       -2.49637004524386       -0.00717781894325
C           52.79464303032405       -3.42919194129121       -0.01553584478881
C           54.08429051862296       -2.74826212722822       -0.03648008807649
N           53.88632271379666       -1.34520064603614       -0.03291974824111
C           55.28525619409328       -3.39559681338941       -0.05642424297870
C           56.56815300364831       -2.72167113971287       -0.08103528443134
C           57.84345649399187       -3.42360576556703       -0.17845922907182
C           58.81104005903279       -2.49794297294690       -0.17255279297845
N           56.74710755174635       -1.41506923660704       -0.02266010987730