268
 energy: -473.918634372955 gnorm: 0.000332106039 xtb: 6.5.1 (b24c23e)
C           15.71413782229568       -0.37144880514953       -0.16217371021392
C           16.52902880395536       -1.49401803584869       -0.18654433296254
C           16.10289328676285       -2.85314110099226       -0.28600083005917
C           17.21197546559414       -3.64689312443958       -0.28203081361915
C           18.35853021797288       -2.80306948589062       -0.18006377724370
N           17.89381448242342       -1.51609057056505       -0.12309727291830
C           19.68800308302476       -3.19321317943154       -0.15405219448663
C           20.79329736429488       -2.34592722284975       -0.06940358462734
C           22.17620905302347       -2.73583621786444       -0.09089707261427
C           22.83279070370534       -1.56498081751539       -0.00232584744026
N           20.71027738894956       -0.99224699776678        0.03274407430311
C           21.96271358811828       -0.42840530994089        0.08279643846706
C           22.24391522630161        0.88439391593492        0.19911175981861
C           21.49309434984050        2.02498436113238        0.27043136985514
C           21.91305260253299        3.37888152300432        0.41962838135224
C           20.80116034929542        4.17470515962566        0.42302397013349
C           19.65965632343049        3.33466349185880        0.27842679878606
N           20.11713297060503        2.05805957215369        0.18877904999874
C           18.31212325785611        3.68392277005265        0.23379515759953
C           17.25382070774718        2.79405458974903        0.11236125814616
C           15.85639008963085        3.19566096826299        0.06855613528892
C           15.13704611596878        2.06145536130030       -0.04271847755435
C           16.09504262284580        0.96472843565814       -0.06527136003338
N           17.35484339771354        1.44190134074228        0.02677283891713
H           14.64834242957912       -0.56744573240166       -0.22529361087386
H           15.07222988487106       -3.16400129897409       -0.35215356094113
H           17.25164003791386       -4.72288914549749       -0.34425303286522
H           18.48436676185863       -0.69553250412883       -0.04796484982818
H           19.88212357231133       -4.25824889070260       -0.21850935824305
H           22.56961447123781       -3.73495261197367       -0.16513893082529
H           24.25511061962852       -1.40793316042034        0.00448817096615
H           22.94251723086036        3.68644325137063        0.51046331484031
H           20.76188806549736        5.24833618362786        0.51807196537529
H           19.51670576815644        1.24732873401026        0.08681994225530
H           18.07824307763763        4.74050080015755        0.30571305506088
H           15.50913326425094        4.21591206491671        0.11825343446013
H           14.06639302594903        1.94268124988659       -0.10417440008486
C          131.68026995731478        0.40052502195997       -0.21297444820963
C          130.83775961955408        1.48820901079717       -0.39146581455124
C          131.23022838961535        2.83140225297541       -0.67515796027241
C          130.10168788499078        3.59008579827353       -0.77945517381714
C          128.97617397739154        2.73941978800496       -0.56348690171009
N          129.47258610397910        1.48417238157318       -0.33239100439136
C          127.63752447159614        3.09685474832333       -0.58765788771969
C          126.55283149828598        2.24321520576627       -0.38420175714492
C          125.16128224106963        2.59635195512887       -0.44172996309505
C          124.53217873793457        1.43372773981102       -0.19174670288817
N          126.66752070048335        0.91686406861996       -0.10592123803101
C          125.42890802331907        0.33692554217830        0.03127798269085
C          125.18084115366874       -0.95616074810538        0.31770118047947
C          125.95921900599414       -2.05971794243940        0.53261969610467
C          125.57195202515818       -3.39411700074401        0.85038502193664
C          126.70326922226778       -4.15424937696091        0.96004802674586
C          127.82456150450442       -3.31041030189755        0.71480557626828
N          127.33619221449521       -2.06751694802195        0.46215133144114
C          129.18053266872889       -3.62852437443126        0.71959153054161
C          130.21745306136890       -2.73631515363279        0.48446722121604
C          131.62450851336419       -3.10521587178268        0.49735859530858
C          132.31644533816166       -1.97857832885294        0.23627321457176
C          131.33199538818386       -0.91911353635380        0.06469260067571
N          130.08383288888774       -1.41069323202548        0.21854339450520
H          132.74114226872712        0.61285264356238       -0.30114250676014
H          132.25305451432516        3.15624274572423       -0.78277292145015
H          130.03540272881079        4.64626830234007       -0.98753127875220
H          128.90257666758066        0.66680900925643       -0.14614634173368
H          127.41772233065606        4.13868109821950       -0.79367509600355
H          124.74426846720580        3.56818606825516       -0.64219458097802
H          123.10726628954728        1.26108947677402       -0.15042858894624
H          124.54980188556804       -3.71403835729837        0.97485767585995
H          126.76852550169002       -5.20580377606122        1.19077857068067
H          127.91687518825466       -1.26157529983543        0.25857869060059
H          129.43973588726953       -4.66061874276944        0.92896788792728
H          131.99639202542593       -4.10060345643301        0.68411200063581
H          133.38416575477910       -1.84246215984780        0.16123883985562
C           25.39463032821869       -1.28008092907148       -0.00166147583213
C           26.59757678943341       -1.12413947647844       -0.01758577793794
C           27.94316244648876       -0.96111275956639       -0.02932228337997
C           29.16127332359021       -0.81615383178137       -0.03823143245490
C           30.49373401774165       -0.66780625387930       -0.04669344085744
C           31.71812471310876       -0.54030397692037       -0.05307681335188
C           33.05032870644742       -0.41802899609054       -0.05633946722141
C           34.27702396668705       -0.31845976113219       -0.05590128428696
C           35.61676412517258       -0.23273474559124       -0.05299496858214
C           36.83996234076510       -0.17016617147973       -0.04871165595176
C           46.62893142952949        0.06074150923487        0.00765966221446
C           47.85449689597442        0.07178241140496        0.00933754596954
C           49.19519252225897        0.08042009526164        0.01118600819238
C           50.42750688887432        0.07713099075149        0.01106816793611
C           51.76209485061537        0.07001665056952        0.01042616622307
C           52.99603729598260        0.05831763989035        0.00900919701501
C           54.33057058262811        0.04532430878266        0.00697642293124
C           55.56284604386140        0.03176651237485        0.00510778307905
C           56.90350687708295        0.02187888976992        0.00306465657479
C           58.12911600451869        0.01194104300352        0.00113647313238
C           67.92092741822370       -0.01205739025079       -0.00695364507131
C           69.14658571754515       -0.00863682525691       -0.00791864772498
C           70.48724384918714       -0.00174870859557       -0.00786610490672
C           71.71959608767970        0.00519145926409       -0.00887878940242
C           73.05415128282959        0.01297422367069       -0.00929387292605
C           74.28815465591630        0.02045447915385       -0.00980898499424
C           75.62271944849439        0.02657628427674       -0.00984632421576
C           76.85508665747700        0.03082174546252       -0.00958456407736
C           78.19577194855667        0.03290696205814       -0.00876526622670
C           79.42143672560968        0.03084958142132       -0.00813345837772
C           89.21353408143825       -0.04335113624819        0.01117094980486
C           90.43912253551471       -0.05575312357251        0.01505387082260
C           91.77979716946626       -0.06711890326369        0.01755757169926
C           93.01210188046322       -0.07936355631635        0.01749259727904
C           94.34670419653878       -0.08747000864151        0.01771457847196
C           95.58069593968514       -0.09322716487088        0.01739251715438
C           96.91533225681387       -0.09297238101278        0.01542436507411
C           98.14766107217241       -0.08791585503858        0.01138767978240
C           99.48829413763512       -0.06987360274474        0.00586740803775
C          100.71374177454365       -0.04943315952073        0.00029619108163
C          110.50236569528798        0.24126524003161       -0.06698215056357
C          111.72571835657021        0.30069141814204       -0.07402922613442
C          113.06600253083039        0.37784246567559       -0.08094623884443
C          114.29385558358605        0.46166082228917       -0.08941671737798
C          115.62794816182785        0.56197982908069       -0.09661013746726
C          116.85471472014497        0.66444042930337       -0.10476073432982
C          118.19018828908663        0.78312784562490       -0.11324304122562
C          119.41149061286804        0.89849911462496       -0.11942499961239
C          120.76070506348469        1.02859283856372       -0.12883535965035
C          121.96828157354733        1.14430693440082       -0.13176542633736
C           38.24259265733593       -0.12548307534117       -0.04074231553066
C           38.85024967533975        1.14437662564108       -0.06166183227781
C           38.20427218050125        2.40878751995907       -0.09126083133250
C           39.17359667935660        3.37458461122330       -0.10263314859007
C           40.43883624054050        2.72552469719781       -0.08032990987580
N           40.19166994226037        1.38029796902834       -0.05613247337537
C           41.68941919984613        3.33391389055496       -0.08266090263029
C           42.93465654749391        2.72448609262094       -0.06221969770144
C           44.18314082645234        3.46655987250084       -0.06849264135838
C           45.17226928509996        2.54927645635407       -0.04525649139816
N           43.18431251602705        1.38689308007027       -0.03503533246709
C           44.52386348760459        1.25094268855009       -0.02441022849955
C           45.22704007938302        0.02838737962712        0.00313687099506
C           44.61786112463189       -1.24173116751959        0.02597996673061
C           45.26404982516360       -2.50591442387808        0.05622420125990
C           44.29493910449125       -3.47191052402750        0.07089446793479
C           43.02991997896132       -2.82293685389249        0.04963222741131
N           43.27675446122932       -1.47754467094168        0.02310605007699
C           41.77963249503654       -3.43146309082716        0.05386944079264
C           40.53479405290025       -2.82156816838330        0.03197720505514
C           39.28641898263169       -3.56358091845730        0.03798230849083
C           38.29755864404118       -2.64633279960781        0.01131281460602
C           38.94603590890072       -1.34781498387305       -0.01072732521263
N           40.28571697414321       -1.48407487222782        0.00220795145598
H           37.13530186770267        2.54915003932342       -0.10219550038539
H           39.03510894762533        4.44375500153020       -0.12451899245601
H           40.90194401206888        0.65588507049670       -0.03644601977302
H           41.67909488555301        4.41922983006033       -0.10356943456452
H           44.25856277269587        4.54244370325816       -0.08836900397547
H           46.23943887662054        2.70472549476286       -0.04166282354371
H           46.33293974735830       -2.64665900506143        0.06552755579693
H           44.43358392415773       -4.54100908524538        0.09419524985047
H           42.56631998843147       -0.75327089267833        0.00360940050131
H           41.78979557443375       -4.51671111584862        0.07667787399100
H           39.21091005881476       -4.63940150662233        0.05978691397245
H           37.23059288832074       -2.80261342582813        0.00638890491367
C           59.53128562040128        0.01083497026582       -0.00097166411302
C           60.17273153345266        1.26509800601441       -0.01400387753413
C           59.55920721729851        2.54564740023387       -0.02601496087000
C           60.55289489664140        3.48652881451379       -0.03633476093014
C           61.80084584002357        2.80509110772508       -0.03080416683930
N           61.51951935039374        1.46629940599428       -0.01734906162823
C           63.06648006869958        3.38150350884424       -0.03750739521786
C           64.29560008303474        2.74040220804321       -0.03201672665396
C           65.56244856982794        3.45034057510356       -0.03972909917012
C           66.52783976279588        2.50789955898926       -0.03096010216955
N           64.51101958568303        1.39648510759623       -0.01891889666125
C           65.84654597730464        1.22636701025241       -0.01797919737509
C           66.51877888172955       -0.01407482911094       -0.00620377127978
C           65.87761133975761       -1.26837469672527        0.00622999132915
C           66.49102967288168       -2.54897023126635        0.01811259251061
C           65.49724426871235       -3.48978150528858        0.02762601942104
C           64.24926534633897       -2.80829001930155        0.02183575930316
N           64.53077055321808       -1.46952021417901        0.00889354962944
C           62.98355760087266       -3.38460804140313        0.02817106956743
C           61.75430098791453       -2.74358826306675        0.02306729987505
C           60.48740668562499       -3.45355280714776        0.03096202102925
C           59.52195568221581       -2.51112554955680        0.02300381309459
C           60.20320641069449       -1.22961620409503        0.01018540826854
N           61.53880353443574       -1.39973296163325        0.01049568313432
H           58.49423723490565        2.71381224924435       -0.02662342260624
H           60.44163613660593        4.55902666904143       -0.04682905462963
H           62.21108423760969        0.72376828521440       -0.01066935141746
H           63.08360410374883        4.46687271806131       -0.04821987540726
H           65.66521807018992        4.52407814706949       -0.05034927809923
H           67.59855778457201        2.63640635020009       -0.03279930531533
H           67.55601662123046       -2.71710426828739        0.01913154698858
H           65.60843740548067       -4.56229655113131        0.03779684589082
H           63.83926217649036       -0.72693866329763        0.00219175221064
H           62.96642859884842       -4.46999107009598        0.03849696080302
H           60.38464964950089       -4.52730239031566        0.04120589627394
H           58.45119995304471       -2.63946333834114        0.02524423464808
C           80.82357471462345        0.02586923574381       -0.00652274096681
C           81.47135183233419        1.27665663653811       -0.02651476635626
C           80.86483037126614        2.56038300921657       -0.04921374218115
C           81.86367427607284        3.49576769604347       -0.06354400489375
C           83.10796730462903        2.80767400601661       -0.04982716207358
N           82.81925492793528        1.47057177293022       -0.02765995174568
C           84.37676140979281        3.37715269242298       -0.05711126378042
C           85.60260259007528        2.72974851051037       -0.04346824814241
C           86.87316117956308        3.43310862227788       -0.05253310879720
C           87.83370017422088        2.48582955009875       -0.03410355022764
N           85.81112400923398        1.38492814273428       -0.02006294976525
C           87.14582135730636        1.20795409369509       -0.01397770956468
C           87.81136721155518       -0.03583487919787        0.00839258267563
C           87.16331908446401       -1.28659187896326        0.02748756394050
C           87.76990381888218       -2.57029775736112        0.04980574983460
C           86.77112939766971       -3.50575739201068        0.06265566807190
C           85.52687068586511       -2.81770220579276        0.04856843882644
N           85.81544987570740       -1.48056217473249        0.02751266259281
C           84.25814646818600       -3.38730598901900        0.05504725385152
C           83.03241329151970       -2.73984332936548        0.04214576995395
C           81.76187788037446       -3.44315900942559        0.05138376570204
C           80.80140475144711       -2.49581892800244        0.03452297441731
C           81.48935507215161       -1.21793511879165        0.01487467732804
N           82.82398180658548       -1.39494478942815        0.01993652691469
H           79.80076278622685        2.73418844563353       -0.05384829243327
H           81.75826538042470        4.56875812734194       -0.08193458668681
H           83.50671634280062        0.72433465605130       -0.01389215858205
H           84.39970589676308        4.46232256128457       -0.07556057989229
H           86.98150141542381        4.50620550291434       -0.07058388601491
H           88.90509406108278        2.60870842516892       -0.03368103607907
H           88.83395331309282       -2.74412415667833        0.05514446401461
H           86.87656640164587       -4.57875012998946        0.08034469918047
H           85.12794710665891       -0.73435969064131        0.01372399775014
H           84.23522609445540       -4.47248234013575        0.07258656879795
H           81.65349834336469       -4.51625949749499        0.06857595635411
H           79.73003526833337       -2.61879083130132        0.03476484996522
C          102.11538973382758       -0.00776891790156       -0.00787038453363
C          102.71653426810784        1.26635616287257       -0.01577681492500
C          102.06250723600725        2.52685836348441       -0.01525952584325
C          103.02559377805528        3.49892663648670       -0.02484418552106
C          104.29467627874033        2.85754518165544       -0.03155406351209
N          104.05616827185708        1.51039699375850       -0.02562649289437
C          105.54106959500086        3.47399013956867       -0.04232048940630
C          106.79001965599885        2.87208775574009       -0.04928171815581
C          108.03347210524379        3.62235035742811       -0.06054738816307
C          109.02847834400191        2.71135234301957       -0.06460167549071
N          107.04807527150798        1.53601380272196       -0.04674261339743
C          108.38869085597719        1.40842013074734       -0.05578038527615
C          109.09992188863693        0.19035747960257       -0.05675954888651
C          108.50000641860686       -1.08345586752359       -0.04870274476129
C          109.15387782817810       -2.34415077045232       -0.04953025899907
C          108.19062696976320       -3.31600421459935       -0.03975680133758
C          106.92135698321071       -2.67454786111446       -0.03272975270036
N          107.16008863043798       -1.32758262237747       -0.03854439747043
C          105.67473688415610       -3.29091433643885       -0.02191127704045
C          104.42550665924735       -2.68945190266266       -0.01490400011391
C          103.18199146962552       -3.43975610307310       -0.00387666336638
C          102.18679458096869       -2.52877112185316        0.00001158936914
C          102.82656202000601       -1.22602374559203       -0.00856376941557
N          104.16697377800863       -1.35327875031028       -0.01732852439119
H          100.99276150544462        2.66111653595660       -0.00835396546587
H          102.88025704625095        4.56738934344605       -0.02717719686050
H          104.77101021067668        0.79021438378926       -0.02835681498556
H          105.52375574947585        4.55939174814881       -0.04569075675914
H          108.10176950339046        4.69887203267990       -0.06456918175290
H          110.09442749701410        2.87440239376984       -0.07268762577403
H          110.22369083146079       -2.47812459882592       -0.05668886352539
H          108.33582466718521       -4.38450173287895       -0.03753892107895
H          106.44535530559217       -0.60730235438746       -0.03568348663027
H          105.69220282485121       -4.37633699963284       -0.01866706100123
H          103.11373368311988       -4.51629407487888        0.00006954815137
H          101.12069175825643       -2.69121514807554        0.00789731145027
