      -----------------------------------------------------------      
     |                   =====================                   |     
     |                           x T B                           |     
     |                   =====================                   |     
     |                         S. Grimme                         |     
     |          Mulliken Center for Theoretical Chemistry        |     
     |                    University of Bonn                     |     
      -----------------------------------------------------------      

   * xtb version 6.5.1 (b24c23e) compiled by 'conda@728c89f4b128' on 2022-07-12

   xtb is free software: you can redistribute it and/or modify it under
   the terms of the GNU Lesser General Public License as published by
   the Free Software Foundation, either version 3 of the License, or
   (at your option) any later version.
   
   xtb is distributed in the hope that it will be useful,
   but WITHOUT ANY WARRANTY; without even the implied warranty of
   MERCHANTABILITY or FITNESS FOR A PARTICULAR PURPOSE.  See the
   GNU Lesser General Public License for more details.
   
   Cite this work as:
   * C. Bannwarth, E. Caldeweyher, S. Ehlert, A. Hansen, P. Pracht,
     J. Seibert, S. Spicher, S. Grimme, WIREs Comput. Mol. Sci., 2020, 11,
     e01493. DOI: 10.1002/wcms.1493
   
   for GFN2-xTB:
   * C. Bannwarth, S. Ehlert and S. Grimme., J. Chem. Theory Comput., 2019,
     15, 1652-1671. DOI: 10.1021/acs.jctc.8b01176
   for GFN1-xTB:
   * S. Grimme, C. Bannwarth, P. Shushkov, J. Chem. Theory Comput., 2017,
     13, 1989-2009. DOI: 10.1021/acs.jctc.7b00118
   for GFN0-xTB:
   * P. Pracht, E. Caldeweyher, S. Ehlert, S. Grimme, ChemRxiv, 2019, preprint.
     DOI: 10.26434/chemrxiv.8326202.v1
   for GFN-FF:
   * S. Spicher and S. Grimme, Angew. Chem. Int. Ed., 2020, 59, 15665-15673.
     DOI: 10.1002/anie.202004239
   
   for ALPB and GBSA implicit solvation:
   * S. Ehlert, M. Stahn, S. Spicher, S. Grimme, J. Chem. Theory Comput.,
     2021, 17, 4250-4261. DOI: 10.1021/acs.jctc.1c00471
   
   for DFT-D4:
   * E. Caldeweyher, C. Bannwarth and S. Grimme, J. Chem. Phys., 2017,
     147, 034112. DOI: 10.1063/1.4993215
   * E. Caldeweyher, S. Ehlert, A. Hansen, H. Neugebauer, S. Spicher,
     C. Bannwarth and S. Grimme, J. Chem. Phys., 2019, 150, 154122.
     DOI: 10.1063/1.5090222
   * E. Caldeweyher, J.-M. Mewes, S. Ehlert and S. Grimme, Phys. Chem. Chem. Phys.
     2020, 22, 8499-8512. DOI: 10.1039/D0CP00502A
   
   for sTDA-xTB:
   * S. Grimme and C. Bannwarth, J. Chem. Phys., 2016, 145, 054103.
     DOI: 10.1063/1.4959605
   
   in the mass-spec context:
   * V. Asgeirsson, C. Bauer and S. Grimme, Chem. Sci., 2017, 8, 4879.
     DOI: 10.1039/c7sc00601b
   * J. Koopman and S. Grimme, ACS Omega 2019, 4, 12, 15120-15133.
     DOI: 10.1021/acsomega.9b02011
   
   for metadynamics refer to:
   * S. Grimme, J. Chem. Theory Comput., 2019, 155, 2847-2862
     DOI: 10.1021/acs.jctc.9b00143
   
   for SPH calculations refer to:
   * S. Spicher and S. Grimme, J. Chem. Theory Comput., 2021, 17, 1701-1714
     DOI: 10.1021/acs.jctc.0c01306
   
   with help from (in alphabetical order)
   P. Atkinson, C. Bannwarth, F. Bohle, G. Brandenburg, E. Caldeweyher
   M. Checinski, S. Dohm, S. Ehlert, S. Ehrlich, I. Gerasimov, C. Hölzer
   A. Katbashev, J. Koopman, C. Lavigne, S. Lehtola, F. März, M. Müller,
   F. Musil, H. Neugebauer, J. Pisarek, C. Plett, P. Pracht, F. Pultar,
   J. Seibert, P. Shushkov, S. Spicher, M. Stahn, M. Steiner, T. Strunk,
   J. Stückrath, T. Rose, and J. Unsleber
   
 * started run on 2022/07/30 at 05:35:26.319     

           -------------------------------------------------
          |                Calculation Setup                |
           -------------------------------------------------

          program call               : xtb xtbopt.xyz --gfn 1 --vipea
          hostname                   : cx3-15-11.cx3.hpc.ic.ac.uk
          coordinate file            : xtbopt.xyz
          omp threads                :                     1

   ID    Z sym.   atoms
    1   28 Ni     1, 61, 145, 204
    2    6 C      2-6, 8-12, 16-20, 22-27, 29-33, 37-42, 62-66, 68-72, 76-80,
                  82-87, 89-93, 97-102, 121-144, 146-150, 152-156, 160-164,
                  166-171, 173-177, 181-186, 205-209, 211-215, 219-223,
                  225-230, 232-236, 240-245
    3    7 N      7, 13, 21, 28, 34, 43, 67, 73, 81, 88, 94, 103, 151, 157,
                  165, 172, 178, 187, 210, 216, 224, 231, 237, 246
    4    8 O      14, 15, 35, 36, 74, 75, 95, 96, 158, 159, 179, 180, 217,
                  218, 238, 239
    5    1 H      44-60, 104-120, 188-203, 247-262

           -------------------------------------------------
          |                 I P E A - x T B                 |
           -------------------------------------------------

        Reference                      10.1039/c7sc00601b
      * Hamiltonian:
        H0-scaling (s, p, d)           2.150000    2.300000    2.000000
        zeta-weighting                 0.000000
      * Dispersion:
        s8                             2.400000
        a1                             0.630000
        a2                             5.000000
        s9                             0.000000
      * Repulsion:
        kExp                           1.500000
        rExp                           1.000000
      * Coulomb:
        alpha                          1.000000
        third order                    atomic
        anisotropic                    false
      * Halogen bond correction:
        rad-scale                      1.300000
        damping                        0.440000


          ...................................................
          :                      SETUP                      :
          :.................................................:
          :  # basis functions                1132          :
          :  # atomic orbitals                1128          :
          :  # shells                          720          :
          :  # electrons                       930          :
          :  # halogen bonds                     0          :
          :  max. iterations                   250          :
          :  Hamiltonian                  GFN1-xTB          :
          :  restarted?                      false          :
          :  GBSA solvation                  false          :
          :  PC potential                    false          :
          :  electronic temp.          300.0000000     K    :
          :  accuracy                    1.0000000          :
          :  -> integral cutoff          0.2500000E+02      :
          :  -> integral neglect         0.1000000E-07      :
          :  -> SCF convergence          0.1000000E-05 Eh   :
          :  -> wf. convergence          0.2000000E-04 e    :
          :  Broyden damping             0.4000000          :
          ...................................................

 iter      E             dE          RMSdq      gap      omega  full diag
   1   -592.9408111 -0.592941E+03  0.104E+01    1.13       0.0  T
   2   -593.2188887 -0.278078E+00  0.641E+00    1.09       1.0  T
   3   -584.5424908  0.867640E+01  0.470E+00    0.78       1.0  T
   4   -594.2684983 -0.972601E+01  0.890E-01    1.45       1.0  T
   5   -594.7107712 -0.442273E+00  0.289E-01    1.30       1.0  T
   6   -594.7533793 -0.426081E-01  0.108E-01    1.29       1.0  T
   7   -594.7584003 -0.502097E-02  0.470E-02    1.30       1.0  T
   8   -594.7595779 -0.117757E-02  0.215E-02    1.29       1.0  T
   9   -594.7596819 -0.104048E-03  0.127E-02    1.29       1.0  T
  10   -594.7597400 -0.580862E-04  0.466E-03    1.29       1.3  T
  11   -594.7597420 -0.201466E-05  0.366E-03    1.29       1.7  T
  12   -594.7597480 -0.601996E-05  0.137E-03    1.29       4.5  T
  13   -594.7597490 -0.923366E-06  0.312E-04    1.29      19.8  T
  14   -594.7597490 -0.526649E-07  0.918E-05    1.29      67.3  T
  15   -594.7597490 -0.217722E-08  0.565E-05    1.29     109.4  T

   *** convergence criteria satisfied after 15 iterations ***

         #    Occupation            Energy/Eh            Energy/eV
      -------------------------------------------------------------
         1        2.0000           -1.1887249             -32.3469
       ...           ...                  ...                  ...
       459        2.0000           -0.3957960             -10.7702
       460        2.0000           -0.3955166             -10.7626
       461        2.0000           -0.3954858             -10.7617
       462        2.0000           -0.3953399             -10.7577
       463        2.0000           -0.3953145             -10.7571
       464        2.0000           -0.3915298             -10.6541
       465        2.0000           -0.3866517             -10.5213 (HOMO)
       466                         -0.3391020              -9.2274 (LUMO)
       467                         -0.3324526              -9.0465
       468                         -0.3255787              -8.8594
       469                         -0.3255785              -8.8594
       470                         -0.3243699              -8.8266
       ...                                ...                  ...
      1128                        514.0166604           13987.1053
      -------------------------------------------------------------
                  HL-Gap            0.0475497 Eh            1.2939 eV
             Fermi-level           -0.3628749 Eh           -9.8743 eV

 SCC (total)                   0 d,  0 h,  0 min, 20.814 sec
 SCC setup                      ...        0 min,  0.022 sec (  0.104%)
 Dispersion                     ...        0 min,  0.023 sec (  0.112%)
 classical contributions        ...        0 min,  0.006 sec (  0.027%)
 integral evaluation            ...        0 min,  1.448 sec (  6.955%)
 iterations                     ...        0 min, 16.439 sec ( 78.980%)
 molecular gradient             ...        0 min,  2.682 sec ( 12.887%)
 printout                       ...        0 min,  0.194 sec (  0.933%)

         :::::::::::::::::::::::::::::::::::::::::::::::::::::
         ::                     SUMMARY                     ::
         :::::::::::::::::::::::::::::::::::::::::::::::::::::
         :: total energy            -584.014125721041 Eh    ::
         :: gradient norm              0.130737477556 Eh/a0 ::
         :: HOMO-LUMO gap              1.293892957908 eV    ::
         ::.................................................::
         :: SCC energy              -594.759749021696 Eh    ::
         :: -> electrostatic           0.443459861578 Eh    ::
         :: repulsion energy          10.982131119074 Eh    ::
         :: dispersion energy         -0.236507818419 Eh    ::
         :: halogen bond corr.         0.000000000000 Eh    ::
         :: add. restraining           0.000000000000 Eh    ::
         :: total charge               0.000000000000 e     ::
         :::::::::::::::::::::::::::::::::::::::::::::::::::::

           ------------------------------------------------- 
          |        vertical delta SCC IP calculation        |
           ------------------------------------------------- 
   1   -594.3457045 -0.594346E+03  0.758E-02    1.29       0.0  T
   2   -594.2826789  0.630255E-01  0.338E-01    1.21       1.0  T
   3   -594.3338557 -0.511767E-01  0.172E-01    1.24       1.0  T
   4   -594.3451449 -0.112892E-01  0.802E-02    1.26       1.0  T
   5   -594.3458669 -0.722045E-03  0.577E-02    1.27       1.0  T
   6   -594.3487572 -0.289028E-02  0.459E-02    1.28       1.0  T
   7   -594.3518301 -0.307286E-02  0.265E-02    1.28       1.0  T
   8   -594.3518934 -0.633281E-04  0.193E-02    1.28       1.0  T
   9   -594.3520392 -0.145851E-03  0.132E-02    1.28       1.0  T
  10   -594.3520671 -0.278828E-04  0.102E-02    1.28       1.0  T
  11   -594.3520822 -0.150913E-04  0.811E-03    1.28       1.0  T
  12   -594.3520826 -0.398315E-06  0.668E-03    1.28       1.0  T
  13   -594.3520912 -0.860888E-05  0.542E-03    1.28       1.1  T
  14   -594.3520935 -0.225293E-05  0.479E-03    1.28       1.3  T
  15   -594.3520958 -0.235330E-05  0.411E-03    1.28       1.5  T
  16   -594.3520988 -0.299586E-05  0.317E-03    1.28       1.9  T
  17   -594.3521006 -0.180361E-05  0.244E-03    1.28       2.5  T
  18   -594.3521025 -0.183032E-05  0.139E-03    1.28       4.4  T
  19   -594.3521032 -0.781034E-06  0.570E-04    1.28      10.8  T
  20   -594.3521034 -0.120782E-06  0.235E-04    1.28      26.3  T
  21   -594.3521034 -0.234245E-07  0.663E-05    1.28      93.2  T
  22   -594.3521034 -0.196121E-08  0.211E-05    1.28     293.3  T
     SCC iter.                  ...        0 min, 24.103 sec
     gradient                   ...        0 min,  2.699 sec
------------------------------------------------------------------------
empirical IP shift (eV):    4.8455
delta SCC IP (eV):    6.2471
------------------------------------------------------------------------
           ------------------------------------------------- 
          |        vertical delta SCC EA calculation        |
           ------------------------------------------------- 
   1   -595.0553697 -0.595055E+03  0.138E-01    0.21       0.0  T
   2   -595.0595168 -0.414703E-02  0.131E-01    0.06       1.0  T
   3   -595.0710576 -0.115408E-01  0.791E-02    0.15       1.0  T
   4   -595.0693332  0.172435E-02  0.727E-02    0.14       1.0  T
   5   -595.0703689 -0.103572E-02  0.573E-02    0.12       1.0  T
   6   -595.0729456 -0.257666E-02  0.403E-02    0.11       1.0  T
   7   -595.0757871 -0.284147E-02  0.233E-02    0.12       1.0  T
   8   -595.0764784 -0.691323E-03  0.739E-03    0.11       1.0  T
   9   -595.0765128 -0.344485E-04  0.456E-03    0.10       1.4  T
  10   -595.0765266 -0.137245E-04  0.186E-03    0.10       3.3  T
  11   -595.0765304 -0.381451E-05  0.992E-04    0.10       6.2  T
  12   -595.0765311 -0.755098E-06  0.443E-04    0.10      13.9  T
  13   -595.0765312 -0.816335E-07  0.272E-04    0.10      22.7  T
  14   -595.0765312 -0.424826E-07  0.126E-04    0.10      48.9  T
  15   -595.0765313 -0.852901E-08  0.542E-05    0.10     114.0  T
     SCC iter.                  ...        0 min, 14.283 sec
     gradient                   ...        0 min,  2.629 sec
------------------------------------------------------------------------
empirical EA shift (eV):    4.8455
delta SCC EA (eV):    3.7746
------------------------------------------------------------------------
           -------------------------------------------------
          |                Property Printout                |
           -------------------------------------------------

    * Orbital Energies and Occupations

         #    Occupation            Energy/Eh            Energy/eV
      -------------------------------------------------------------
         1        2.0000           -1.1606002             -31.5815
       ...           ...                  ...                  ...
       454        2.0000           -0.3592713              -9.7763
       455        2.0000           -0.3588624              -9.7651
       456        2.0000           -0.3564898              -9.7006
       457        2.0000           -0.3560440              -9.6885
       458        2.0000           -0.3543221              -9.6416
       459        2.0000           -0.3538761              -9.6295
       460        2.0000           -0.3537215              -9.6253
       461        2.0000           -0.3536155              -9.6224
       462        2.0000           -0.3532730              -9.6130
       463        2.0000           -0.3531686              -9.6102
       464        2.0000           -0.3501356              -9.5277
       465        2.0000           -0.3430047              -9.3336
       466        0.8609           -0.2955375              -8.0420 (HOMO)
       467        0.1008           -0.2917268              -7.9383 (LUMO)
       468        0.0226           -0.2902275              -7.8975
       469        0.0154           -0.2898544              -7.8873
       470        0.0001           -0.2852633              -7.7624
       471        0.0001           -0.2848486              -7.7511
       472        0.0001           -0.2844949              -7.7415
       473        0.0000           -0.2794058              -7.6030
       474        0.0000           -0.2791473              -7.5960
       475        0.0000           -0.2788801              -7.5887
       476                         -0.2747065              -7.4751
       477                         -0.2742212              -7.4619
       ...                                ...                  ...
      1128                        514.0601077           13988.2875
      -------------------------------------------------------------
                  HL-Gap            0.0038107 Eh            0.1037 eV
             Fermi-level           -0.3065450 Eh           -8.3415 eV

  Mulliken/CM5 charges         n(s)   n(p)   n(d)
     1Ni    0.28392  0.65522   0.571  0.777  8.368
     2C    -0.01987 -0.06121   1.084  2.936  0.000
     3C     0.06057  0.12113   1.112  2.828  0.000
     4C    -0.03513 -0.08169   1.086  2.949  0.000
     5C    -0.03430 -0.08046   1.079  2.955  0.000
     6C     0.06102  0.12513   1.104  2.835  0.000
     7N    -0.20883 -0.46072   1.315  3.894  0.000
     8C     0.00989  0.01522   1.083  2.907  0.000
     9C     0.01871  0.00995   1.094  2.887  0.000
    10C    -0.01461 -0.06762   1.078  2.937  0.000
    11C    -0.00787 -0.05458   1.091  2.917  0.000
    12C     0.04451  0.09901   1.118  2.838  0.000
    13N     0.29840  0.12635   1.470  3.232  0.000
    14O    -0.27394 -0.23299   1.675  4.599  0.000
    15O    -0.27313 -0.23218   1.675  4.598  0.000
    16C    -0.00832 -0.05503   1.091  2.917  0.000
    17C    -0.01514 -0.06819   1.077  2.938  0.000
    18C     0.06004  0.12350   1.102  2.838  0.000
    19C    -0.03457 -0.08069   1.077  2.957  0.000
    20C    -0.03384 -0.07945   1.085  2.949  0.000
    21N    -0.20616 -0.45780   1.316  3.890  0.000
    22C     0.06465  0.12972   1.116  2.819  0.000
    23C     0.01937  0.02628   1.080  2.901  0.000
    24C     0.06465  0.12975   1.116  2.819  0.000
    25C    -0.03387 -0.07948   1.085  2.949  0.000
    26C    -0.03457 -0.08071   1.077  2.957  0.000
    27C     0.05998  0.12339   1.102  2.838  0.000
    28N    -0.20622 -0.45771   1.316  3.890  0.000
    29C     0.00986  0.01519   1.083  2.907  0.000
    30C     0.01869  0.00994   1.094  2.887  0.000
    31C    -0.01524 -0.06826   1.078  2.938  0.000
    32C    -0.00836 -0.05507   1.091  2.917  0.000
    33C     0.04449  0.09899   1.118  2.838  0.000
    34N     0.29834  0.12629   1.470  3.232  0.000
    35O    -0.27400 -0.23305   1.675  4.599  0.000
    36O    -0.27318 -0.23222   1.675  4.598  0.000
    37C    -0.00787 -0.05458   1.091  2.917  0.000
    38C    -0.01453 -0.06757   1.077  2.937  0.000
    39C     0.06108  0.12523   1.104  2.835  0.000
    40C    -0.03431 -0.08044   1.079  2.955  0.000
    41C    -0.03511 -0.08167   1.086  2.949  0.000
    42C     0.06054  0.12105   1.112  2.828  0.000
    43N    -0.20877 -0.46082   1.315  3.894  0.000
    44H     0.02943  0.08845   0.971  0.000  0.000
    45H     0.03509  0.09175   0.965  0.000  0.000
    46H     0.02721  0.08614   0.973  0.000  0.000
    47H     0.03445  0.09246   0.966  0.000  0.000
    48H     0.05475  0.11868   0.945  0.000  0.000
    49H     0.05385  0.11778   0.946  0.000  0.000
    50H     0.03367  0.09171   0.966  0.000  0.000
    51H     0.02772  0.08670   0.972  0.000  0.000
    52H     0.03048  0.08868   0.970  0.000  0.000
    53H     0.03046  0.08862   0.970  0.000  0.000
    54H     0.02763  0.08661   0.972  0.000  0.000
    55H     0.03356  0.09158   0.966  0.000  0.000
    56H     0.05378  0.11771   0.946  0.000  0.000
    57H     0.05477  0.11870   0.945  0.000  0.000
    58H     0.03452  0.09256   0.965  0.000  0.000
    59H     0.02728  0.08622   0.973  0.000  0.000
    60H     0.03506  0.09172   0.965  0.000  0.000
    61Ni    0.28367  0.65533   0.571  0.778  8.368
    62C    -0.02018 -0.06151   1.083  2.937  0.000
    63C     0.06054  0.12108   1.112  2.828  0.000
    64C    -0.03524 -0.08179   1.086  2.949  0.000
    65C    -0.03435 -0.08050   1.079  2.955  0.000
    66C     0.06089  0.12501   1.104  2.835  0.000
    67N    -0.20891 -0.46091   1.315  3.894  0.000
    68C     0.00990  0.01523   1.083  2.907  0.000
    69C     0.01880  0.01005   1.094  2.887  0.000
    70C    -0.01455 -0.06757   1.078  2.937  0.000
    71C    -0.00787 -0.05458   1.091  2.917  0.000
    72C     0.04451  0.09901   1.118  2.838  0.000
    73N     0.29849  0.12644   1.470  3.232  0.000
    74O    -0.27384 -0.23289   1.675  4.599  0.000
    75O    -0.27314 -0.23219   1.675  4.598  0.000
    76C    -0.00829 -0.05500   1.091  2.917  0.000
    77C    -0.01511 -0.06815   1.077  2.938  0.000
    78C     0.05983  0.12327   1.102  2.838  0.000
    79C    -0.03469 -0.08082   1.077  2.958  0.000
    80C    -0.03397 -0.07959   1.085  2.949  0.000
    81N    -0.20617 -0.45788   1.316  3.890  0.000
    82C     0.06460  0.12968   1.116  2.819  0.000
    83C     0.01918  0.02610   1.080  2.901  0.000
    84C     0.06456  0.12966   1.116  2.819  0.000
    85C    -0.03401 -0.07961   1.085  2.949  0.000
    86C    -0.03469 -0.08082   1.077  2.957  0.000
    87C     0.05979  0.12320   1.102  2.838  0.000
    88N    -0.20621 -0.45782   1.316  3.890  0.000
    89C     0.00988  0.01521   1.083  2.907  0.000
    90C     0.01879  0.01003   1.094  2.887  0.000
    91C    -0.01517 -0.06821   1.078  2.938  0.000
    92C    -0.00833 -0.05504   1.091  2.917  0.000
    93C     0.04449  0.09899   1.118  2.838  0.000
    94N     0.29845  0.12640   1.470  3.232  0.000
    95O    -0.27390 -0.23295   1.675  4.599  0.000
    96O    -0.27315 -0.23219   1.675  4.598  0.000
    97C    -0.00787 -0.05458   1.091  2.917  0.000
    98C    -0.01449 -0.06752   1.077  2.937  0.000
    99C     0.06092  0.12507   1.104  2.835  0.000
   100C    -0.03434 -0.08049   1.079  2.955  0.000
   101C    -0.03522 -0.08178   1.086  2.949  0.000
   102C     0.06052  0.12104   1.112  2.828  0.000
   103N    -0.20888 -0.46099   1.315  3.894  0.000
   104H     0.02925  0.08827   0.971  0.000  0.000
   105H     0.03493  0.09159   0.965  0.000  0.000
   106H     0.02708  0.08601   0.973  0.000  0.000
   107H     0.03444  0.09246   0.966  0.000  0.000
   108H     0.05468  0.11861   0.945  0.000  0.000
   109H     0.05385  0.11778   0.946  0.000  0.000
   110H     0.03368  0.09172   0.966  0.000  0.000
   111H     0.02754  0.08652   0.972  0.000  0.000
   112H     0.03036  0.08856   0.970  0.000  0.000
   113H     0.03030  0.08845   0.970  0.000  0.000
   114H     0.02748  0.08644   0.973  0.000  0.000
   115H     0.03358  0.09161   0.966  0.000  0.000
   116H     0.05378  0.11771   0.946  0.000  0.000
   117H     0.05472  0.11865   0.945  0.000  0.000
   118H     0.03451  0.09255   0.965  0.000  0.000
   119H     0.02713  0.08608   0.973  0.000  0.000
   120H     0.03492  0.09158   0.965  0.000  0.000
   121C    -0.01799 -0.01969   1.090  2.928  0.000
   122C    -0.01739 -0.01813   1.064  2.953  0.000
   123C    -0.01453 -0.01462   1.075  2.939  0.000
   124C    -0.01266 -0.01267   1.077  2.936  0.000
   125C    -0.01508 -0.01509   1.075  2.940  0.000
   126C    -0.01193 -0.01202   1.077  2.934  0.000
   127C    -0.01972 -0.02043   1.062  2.958  0.000
   128C    -0.01539 -0.01702   1.094  2.922  0.000
   129C    -0.01713 -0.01877   1.092  2.925  0.000
   130C    -0.01907 -0.01978   1.063  2.956  0.000
   131C    -0.01380 -0.01389   1.076  2.938  0.000
   132C    -0.01434 -0.01435   1.076  2.939  0.000
   133C    -0.01454 -0.01455   1.076  2.939  0.000
   134C    -0.01360 -0.01369   1.076  2.937  0.000
   135C    -0.01926 -0.01996   1.063  2.956  0.000
   136C    -0.01696 -0.01859   1.092  2.925  0.000
   137C    -0.01576 -0.01739   1.093  2.922  0.000
   138C    -0.01992 -0.02062   1.062  2.958  0.000
   139C    -0.01232 -0.01240   1.077  2.935  0.000
   140C    -0.01539 -0.01540   1.075  2.941  0.000
   141C    -0.01302 -0.01303   1.077  2.936  0.000
   142C    -0.01490 -0.01499   1.075  2.940  0.000
   143C    -0.01767 -0.01841   1.064  2.954  0.000
   144C    -0.01837 -0.02006   1.090  2.928  0.000
   145Ni    0.28353  0.65774   0.570  0.776  8.370
   146C     0.01614  0.02312   1.077  2.907  0.000
   147C     0.06444  0.12955   1.116  2.819  0.000
   148C    -0.03544 -0.08104   1.084  2.952  0.000
   149C    -0.03477 -0.08091   1.078  2.957  0.000
   150C     0.05861  0.12203   1.100  2.841  0.000
   151N    -0.20675 -0.45926   1.315  3.892  0.000
   152C     0.01198  0.01730   1.085  2.903  0.000
   153C     0.01939  0.01067   1.094  2.886  0.000
   154C    -0.01425 -0.06728   1.078  2.937  0.000
   155C    -0.00787 -0.05459   1.091  2.917  0.000
   156C     0.04459  0.09906   1.118  2.838  0.000
   157N     0.29882  0.12678   1.470  3.231  0.000
   158O    -0.27339 -0.23243   1.675  4.598  0.000
   159O    -0.27323 -0.23226   1.675  4.598  0.000
   160C    -0.00798 -0.05469   1.091  2.917  0.000
   161C    -0.01439 -0.06739   1.078  2.937  0.000
   162C     0.05865  0.12198   1.100  2.841  0.000
   163C    -0.03469 -0.08084   1.078  2.957  0.000
   164C    -0.03495 -0.08055   1.084  2.951  0.000
   165N    -0.20663 -0.45895   1.315  3.891  0.000
   166C     0.06463  0.12981   1.116  2.819  0.000
   167C     0.01705  0.02403   1.078  2.905  0.000
   168C     0.06457  0.12970   1.116  2.819  0.000
   169C    -0.03495 -0.08055   1.084  2.951  0.000
   170C    -0.03471 -0.08084   1.078  2.957  0.000
   171C     0.05868  0.12206   1.100  2.841  0.000
   172N    -0.20655 -0.45900   1.315  3.891  0.000
   173C     0.01199  0.01731   1.085  2.903  0.000
   174C     0.01940  0.01068   1.094  2.886  0.000
   175C    -0.01430 -0.06729   1.078  2.937  0.000
   176C    -0.00788 -0.05459   1.091  2.917  0.000
   177C     0.04459  0.09906   1.118  2.838  0.000
   178N     0.29881  0.12677   1.470  3.231  0.000
   179O    -0.27323 -0.23226   1.675  4.598  0.000
   180O    -0.27342 -0.23245   1.675  4.598  0.000
   181C    -0.00797 -0.05469   1.091  2.917  0.000
   182C    -0.01433 -0.06737   1.078  2.937  0.000
   183C     0.05856  0.12193   1.100  2.841  0.000
   184C    -0.03475 -0.08091   1.078  2.957  0.000
   185C    -0.03544 -0.08104   1.084  2.952  0.000
   186C     0.06455  0.12972   1.116  2.819  0.000
   187N    -0.20681 -0.45922   1.315  3.892  0.000
   188H     0.02833  0.08645   0.972  0.000  0.000
   189H     0.02615  0.08508   0.974  0.000  0.000
   190H     0.03429  0.09236   0.966  0.000  0.000
   191H     0.05429  0.11822   0.946  0.000  0.000
   192H     0.05404  0.11797   0.946  0.000  0.000
   193H     0.03397  0.09205   0.966  0.000  0.000
   194H     0.02636  0.08529   0.974  0.000  0.000
   195H     0.02906  0.08719   0.971  0.000  0.000
   196H     0.02898  0.08710   0.971  0.000  0.000
   197H     0.02637  0.08527   0.974  0.000  0.000
   198H     0.03425  0.09232   0.966  0.000  0.000
   199H     0.05427  0.11820   0.946  0.000  0.000
   200H     0.05406  0.11799   0.946  0.000  0.000
   201H     0.03401  0.09211   0.966  0.000  0.000
   202H     0.02611  0.08505   0.974  0.000  0.000
   203H     0.02841  0.08654   0.972  0.000  0.000
   204Ni    0.28330  0.65776   0.570  0.776  8.371
   205C     0.01679  0.02377   1.078  2.906  0.000
   206C     0.06453  0.12965   1.116  2.819  0.000
   207C    -0.03507 -0.08066   1.084  2.951  0.000
   208C    -0.03479 -0.08091   1.078  2.957  0.000
   209C     0.05860  0.12199   1.100  2.841  0.000
   210N    -0.20666 -0.45913   1.315  3.892  0.000
   211C     0.01197  0.01729   1.085  2.903  0.000
   212C     0.01943  0.01071   1.094  2.886  0.000
   213C    -0.01432 -0.06735   1.078  2.937  0.000
   214C    -0.00799 -0.05470   1.091  2.917  0.000
   215C     0.04456  0.09902   1.118  2.838  0.000
   216N     0.29877  0.12673   1.470  3.231  0.000
   217O    -0.27325 -0.23228   1.675  4.598  0.000
   218O    -0.27351 -0.23255   1.675  4.598  0.000
   219C    -0.00788 -0.05459   1.091  2.917  0.000
   220C    -0.01432 -0.06732   1.078  2.936  0.000
   221C     0.05842  0.12177   1.100  2.841  0.000
   222C    -0.03487 -0.08103   1.078  2.957  0.000
   223C    -0.03553 -0.08112   1.084  2.952  0.000
   224N    -0.20678 -0.45928   1.315  3.892  0.000
   225C     0.06450  0.12968   1.116  2.819  0.000
   226C     0.01610  0.02308   1.077  2.907  0.000
   227C     0.06438  0.12948   1.116  2.819  0.000
   228C    -0.03552 -0.08112   1.084  2.952  0.000
   229C    -0.03489 -0.08101   1.078  2.957  0.000
   230C     0.05848  0.12191   1.100  2.841  0.000
   231N    -0.20675 -0.45931   1.315  3.892  0.000
   232C     0.01198  0.01730   1.085  2.903  0.000
   233C     0.01943  0.01071   1.094  2.886  0.000
   234C    -0.01441 -0.06740   1.078  2.937  0.000
   235C    -0.00800 -0.05471   1.091  2.917  0.000
   236C     0.04456  0.09903   1.118  2.838  0.000
   237N     0.29877  0.12674   1.470  3.231  0.000
   238O    -0.27349 -0.23253   1.675  4.598  0.000
   239O    -0.27326 -0.23229   1.675  4.598  0.000
   240C    -0.00787 -0.05458   1.091  2.917  0.000
   241C    -0.01423 -0.06727   1.077  2.937  0.000
   242C     0.05854  0.12186   1.100  2.841  0.000
   243C    -0.03474 -0.08090   1.078  2.957  0.000
   244C    -0.03507 -0.08066   1.084  2.951  0.000
   245C     0.06463  0.12982   1.116  2.819  0.000
   246N    -0.20670 -0.45910   1.315  3.892  0.000
   247H     0.02883  0.08695   0.971  0.000  0.000
   248H     0.02627  0.08519   0.974  0.000  0.000
   249H     0.03397  0.09208   0.966  0.000  0.000
   250H     0.05397  0.11790   0.946  0.000  0.000
   251H     0.05422  0.11815   0.946  0.000  0.000
   252H     0.03421  0.09226   0.966  0.000  0.000
   253H     0.02597  0.08491   0.974  0.000  0.000
   254H     0.02832  0.08646   0.972  0.000  0.000
   255H     0.02823  0.08634   0.972  0.000  0.000
   256H     0.02604  0.08495   0.974  0.000  0.000
   257H     0.03392  0.09200   0.966  0.000  0.000
   258H     0.05394  0.11787   0.946  0.000  0.000
   259H     0.05425  0.11818   0.946  0.000  0.000
   260H     0.03426  0.09234   0.966  0.000  0.000
   261H     0.02623  0.08516   0.974  0.000  0.000
   262H     0.02890  0.08702   0.971  0.000  0.000

Wiberg/Mayer (AO) data.
largest (>0.10) Wiberg bond orders for each atom

 ---------------------------------------------------------------------------
     #   Z sym  total        # sym  WBO       # sym  WBO       # sym  WBO
 ---------------------------------------------------------------------------
     1  28 Ni   3.322 --    43 N    0.711     7 N    0.710    21 N    0.710
                            28 N    0.710
     2   6 C    3.810 --    42 C    1.392     3 C    1.391    44 H    0.995
     3   6 C    3.945 --     2 C    1.391     7 N    1.253     4 C    1.201
     4   6 C    3.847 --     5 C    1.642     3 C    1.201    45 H    0.992
     5   6 C    3.830 --     4 C    1.642     6 C    1.207    46 H    0.997
     6   6 C    3.917 --     8 C    1.366     7 N    1.252     5 C    1.207
     7   7 N    3.008 --     3 C    1.253     6 C    1.252     1 Ni   0.710
     8   6 C    3.832 --     6 C    1.366    18 C    1.363     9 C    1.054
     9   6 C    3.896 --    17 C    1.415    10 C    1.415     8 C    1.054
    10   6 C    3.865 --    11 C    1.465     9 C    1.415    47 H    0.987
    11   6 C    3.898 --    10 C    1.465    12 C    1.405    48 H    0.985
    12   6 C    3.934 --    16 C    1.405    11 C    1.405    13 N    1.005
    13   7 N    4.108 --    15 O    1.567    14 O    1.567    12 C    1.005
    14   8 O    2.008 --    13 N    1.567    15 O    0.382
    15   8 O    2.008 --    13 N    1.567    14 O    0.382
    16   6 C    3.898 --    17 C    1.465    12 C    1.405    49 H    0.985
    17   6 C    3.864 --    16 C    1.465     9 C    1.415    50 H    0.987
    18   6 C    3.904 --     8 C    1.363    21 N    1.243    19 C    1.217
    19   6 C    3.821 --    20 C    1.623    18 C    1.217    51 H    0.997
    20   6 C    3.837 --    19 C    1.623    22 C    1.227    52 H    0.997
    21   7 N    3.021 --    22 C    1.276    18 C    1.243     1 Ni   0.710
    22   6 C    3.918 --    23 C    1.299    21 N    1.276    20 C    1.227
    23   6 C    3.837 --    22 C    1.299    24 C    1.298   121 C    1.219
    24   6 C    3.918 --    23 C    1.298    28 N    1.276    25 C    1.227
    25   6 C    3.837 --    26 C    1.623    24 C    1.227    53 H    0.997
    26   6 C    3.821 --    25 C    1.623    27 C    1.217    54 H    0.997
    27   6 C    3.904 --    29 C    1.363    28 N    1.243    26 C    1.217
    28   7 N    3.021 --    24 C    1.276    27 C    1.243     1 Ni   0.710
    29   6 C    3.832 --    39 C    1.365    27 C    1.363    30 C    1.054
    30   6 C    3.896 --    38 C    1.415    31 C    1.415    29 C    1.054
    31   6 C    3.865 --    32 C    1.465    30 C    1.415    55 H    0.987
    32   6 C    3.898 --    31 C    1.465    33 C    1.405    56 H    0.985
    33   6 C    3.934 --    32 C    1.405    37 C    1.405    34 N    1.006
    34   7 N    4.108 --    36 O    1.567    35 O    1.567    33 C    1.006
    35   8 O    2.007 --    34 N    1.567    36 O    0.382
    36   8 O    2.008 --    34 N    1.567    35 O    0.382
    37   6 C    3.897 --    38 C    1.465    33 C    1.405    57 H    0.985
    38   6 C    3.865 --    37 C    1.465    30 C    1.415    58 H    0.987
    39   6 C    3.917 --    29 C    1.365    43 N    1.253    40 C    1.207
    40   6 C    3.830 --    41 C    1.642    39 C    1.207    59 H    0.997
    41   6 C    3.847 --    40 C    1.642    42 C    1.201    60 H    0.992
    42   6 C    3.945 --     2 C    1.392    43 N    1.253    41 C    1.201
    43   7 N    3.008 --    39 C    1.253    42 C    1.253     1 Ni   0.711
    44   1 H    1.036 --     2 C    0.995
    45   1 H    1.024 --     4 C    0.992
    46   1 H    1.041 --     5 C    0.997
    47   1 H    1.048 --    10 C    0.987
    48   1 H    1.029 --    11 C    0.985
    49   1 H    1.029 --    16 C    0.985
    50   1 H    1.048 --    17 C    0.987
    51   1 H    1.041 --    19 C    0.997
    52   1 H    1.037 --    20 C    0.997
    53   1 H    1.037 --    25 C    0.997
    54   1 H    1.041 --    26 C    0.997
    55   1 H    1.048 --    31 C    0.987
    56   1 H    1.029 --    32 C    0.985
    57   1 H    1.029 --    37 C    0.985
    58   1 H    1.048 --    38 C    0.987
    59   1 H    1.041 --    40 C    0.997
    60   1 H    1.024 --    41 C    0.992
    61  28 Ni   3.323 --   103 N    0.711    67 N    0.711    81 N    0.710
                            88 N    0.710
    62   6 C    3.809 --   102 C    1.392    63 C    1.391   104 H    0.995
    63   6 C    3.945 --    62 C    1.391    67 N    1.253    64 C    1.201
    64   6 C    3.847 --    65 C    1.642    63 C    1.201   105 H    0.992
    65   6 C    3.831 --    64 C    1.642    66 C    1.207   106 H    0.997
    66   6 C    3.917 --    68 C    1.366    67 N    1.252    65 C    1.207
    67   7 N    3.008 --    63 C    1.253    66 C    1.252    61 Ni   0.711
    68   6 C    3.833 --    66 C    1.366    78 C    1.362    69 C    1.054
    69   6 C    3.896 --    70 C    1.415    77 C    1.415    68 C    1.054
    70   6 C    3.865 --    71 C    1.465    69 C    1.415   107 H    0.987
    71   6 C    3.898 --    70 C    1.465    72 C    1.405   108 H    0.985
    72   6 C    3.934 --    76 C    1.405    71 C    1.405    73 N    1.005
    73   7 N    4.109 --    75 O    1.567    74 O    1.567    72 C    1.005
    74   8 O    2.008 --    73 N    1.567    75 O    0.382
    75   8 O    2.009 --    73 N    1.567    74 O    0.382
    76   6 C    3.898 --    77 C    1.465    72 C    1.405   109 H    0.985
    77   6 C    3.864 --    76 C    1.465    69 C    1.415   110 H    0.987
    78   6 C    3.903 --    68 C    1.362    81 N    1.243    79 C    1.217
    79   6 C    3.821 --    80 C    1.622    78 C    1.217   111 H    0.997
    80   6 C    3.837 --    79 C    1.622    82 C    1.227   112 H    0.997
    81   7 N    3.021 --    82 C    1.276    78 C    1.243    61 Ni   0.710
    82   6 C    3.918 --    83 C    1.297    81 N    1.276    80 C    1.227
    83   6 C    3.836 --    82 C    1.297    84 C    1.297   144 C    1.221
    84   6 C    3.918 --    83 C    1.297    88 N    1.277    85 C    1.228
    85   6 C    3.837 --    86 C    1.622    84 C    1.228   113 H    0.997
    86   6 C    3.821 --    85 C    1.622    87 C    1.217   114 H    0.997
    87   6 C    3.903 --    89 C    1.363    88 N    1.242    86 C    1.217
    88   7 N    3.021 --    84 C    1.277    87 C    1.242    61 Ni   0.710
    89   6 C    3.833 --    99 C    1.365    87 C    1.363    90 C    1.055
    90   6 C    3.896 --    98 C    1.415    91 C    1.415    89 C    1.055
    91   6 C    3.865 --    92 C    1.465    90 C    1.415   115 H    0.987
    92   6 C    3.898 --    91 C    1.465    93 C    1.405   116 H    0.985
    93   6 C    3.934 --    92 C    1.405    97 C    1.405    94 N    1.005
    94   7 N    4.109 --    96 O    1.567    95 O    1.567    93 C    1.005
    95   8 O    2.008 --    94 N    1.567    96 O    0.382
    96   8 O    2.009 --    94 N    1.567    95 O    0.382
    97   6 C    3.898 --    98 C    1.465    93 C    1.405   117 H    0.985
    98   6 C    3.865 --    97 C    1.465    90 C    1.415   118 H    0.987
    99   6 C    3.917 --    89 C    1.365   103 N    1.252   100 C    1.207
   100   6 C    3.831 --   101 C    1.642    99 C    1.207   119 H    0.997
   101   6 C    3.847 --   100 C    1.642   102 C    1.201   120 H    0.992
   102   6 C    3.945 --    62 C    1.392   103 N    1.253   101 C    1.201
   103   7 N    3.008 --   102 C    1.253    99 C    1.252    61 Ni   0.711
   104   1 H    1.036 --    62 C    0.995
   105   1 H    1.024 --    64 C    0.992
   106   1 H    1.041 --    65 C    0.997
   107   1 H    1.048 --    70 C    0.987
   108   1 H    1.029 --    71 C    0.985
   109   1 H    1.029 --    76 C    0.985
   110   1 H    1.048 --    77 C    0.987
   111   1 H    1.041 --    79 C    0.997
   112   1 H    1.037 --    80 C    0.997
   113   1 H    1.037 --    85 C    0.997
   114   1 H    1.041 --    86 C    0.997
   115   1 H    1.048 --    91 C    0.987
   116   1 H    1.029 --    92 C    0.985
   117   1 H    1.029 --    97 C    0.985
   118   1 H    1.048 --    98 C    0.987
   119   1 H    1.041 --   100 C    0.997
   120   1 H    1.024 --   101 C    0.992
   121   6 C    3.754 --   122 C    2.466    23 C    1.219   124 C    0.167
   122   6 C    3.819 --   121 C    2.466   123 C    1.363
   123   6 C    3.803 --   124 C    2.344   122 C    1.363   126 C    0.161
   124   6 C    3.839 --   123 C    2.344   125 C    1.392   121 C    0.167
   125   6 C    3.837 --   126 C    2.343   124 C    1.392   128 C    0.166
   126   6 C    3.804 --   125 C    2.343   127 C    1.365   123 C    0.161
   127   6 C    3.816 --   128 C    2.462   126 C    1.365
   128   6 C    3.755 --   127 C    2.462   146 C    1.223   125 C    0.166
   129   6 C    3.754 --   130 C    2.460   167 C    1.224   132 C    0.166
   130   6 C    3.815 --   129 C    2.460   131 C    1.367
   131   6 C    3.803 --   132 C    2.340   130 C    1.367   134 C    0.160
   132   6 C    3.837 --   131 C    2.340   133 C    1.394   129 C    0.166
   133   6 C    3.837 --   134 C    2.340   132 C    1.394   136 C    0.166
   134   6 C    3.803 --   133 C    2.340   135 C    1.367   131 C    0.160
   135   6 C    3.815 --   136 C    2.460   134 C    1.367
   136   6 C    3.754 --   135 C    2.460   205 C    1.224   133 C    0.166
   137   6 C    3.755 --   138 C    2.459   226 C    1.225   140 C    0.166
   138   6 C    3.815 --   137 C    2.459   139 C    1.367
   139   6 C    3.804 --   140 C    2.340   138 C    1.367   142 C    0.160
   140   6 C    3.837 --   139 C    2.340   141 C    1.394   137 C    0.166
   141   6 C    3.839 --   142 C    2.341   140 C    1.394   144 C    0.166
   142   6 C    3.803 --   141 C    2.341   143 C    1.365   139 C    0.160
   143   6 C    3.818 --   144 C    2.463   142 C    1.365
   144   6 C    3.753 --   143 C    2.463    83 C    1.221   141 C    0.166
   145  28 Ni   3.312 --   172 N    0.709   165 N    0.709   151 N    0.709
                           187 N    0.708
   146   6 C    3.823 --   147 C    1.294   186 C    1.293   128 C    1.223
   147   6 C    3.920 --   146 C    1.294   151 N    1.278   148 C    1.228
   148   6 C    3.834 --   149 C    1.621   147 C    1.228   188 H    0.997
   149   6 C    3.824 --   148 C    1.621   150 C    1.219   189 H    0.997
   150   6 C    3.901 --   152 C    1.364   151 N    1.239   149 C    1.219
   151   7 N    3.009 --   147 C    1.278   150 C    1.239   145 Ni   0.709
   152   6 C    3.832 --   162 C    1.365   150 C    1.364   153 C    1.056
   153   6 C    3.897 --   154 C    1.415   161 C    1.415   152 C    1.056
   154   6 C    3.864 --   155 C    1.465   153 C    1.415   190 H    0.987
   155   6 C    3.898 --   154 C    1.465   156 C    1.406   191 H    0.985
   156   6 C    3.934 --   155 C    1.406   160 C    1.406   157 N    1.005
   157   7 N    4.110 --   159 O    1.568   158 O    1.568   156 C    1.005
   158   8 O    2.010 --   157 N    1.568   159 O    0.382
   159   8 O    2.010 --   157 N    1.568   158 O    0.382
   160   6 C    3.898 --   161 C    1.465   156 C    1.406   192 H    0.985
   161   6 C    3.865 --   160 C    1.465   153 C    1.415   193 H    0.987
   162   6 C    3.901 --   152 C    1.365   165 N    1.238   163 C    1.219
   163   6 C    3.824 --   164 C    1.620   162 C    1.219   194 H    0.997
   164   6 C    3.834 --   163 C    1.620   166 C    1.229   195 H    0.997
   165   7 N    3.010 --   166 C    1.279   162 C    1.238   145 Ni   0.709
   166   6 C    3.920 --   167 C    1.293   165 N    1.279   164 C    1.229
   167   6 C    3.823 --   168 C    1.293   166 C    1.293   129 C    1.224
   168   6 C    3.919 --   167 C    1.293   172 N    1.278   169 C    1.229
   169   6 C    3.834 --   170 C    1.620   168 C    1.229   196 H    0.997
   170   6 C    3.824 --   169 C    1.620   171 C    1.219   197 H    0.997
   171   6 C    3.901 --   173 C    1.364   172 N    1.239   170 C    1.219
   172   7 N    3.010 --   168 C    1.278   171 C    1.239   145 Ni   0.709
   173   6 C    3.832 --   183 C    1.365   171 C    1.364   174 C    1.056
   174   6 C    3.897 --   175 C    1.415   182 C    1.415   173 C    1.056
   175   6 C    3.865 --   176 C    1.465   174 C    1.415   198 H    0.987
   176   6 C    3.898 --   175 C    1.465   177 C    1.406   199 H    0.985
   177   6 C    3.934 --   176 C    1.406   181 C    1.406   178 N    1.005
   178   7 N    4.110 --   179 O    1.568   180 O    1.568   177 C    1.005
   179   8 O    2.010 --   178 N    1.568   180 O    0.382
   180   8 O    2.010 --   178 N    1.568   179 O    0.382
   181   6 C    3.898 --   182 C    1.465   177 C    1.406   200 H    0.985
   182   6 C    3.865 --   181 C    1.465   174 C    1.415   201 H    0.987
   183   6 C    3.902 --   173 C    1.365   187 N    1.238   184 C    1.219
   184   6 C    3.824 --   185 C    1.621   183 C    1.219   202 H    0.997
   185   6 C    3.834 --   184 C    1.621   186 C    1.228   203 H    0.997
   186   6 C    3.920 --   146 C    1.293   187 N    1.279   185 C    1.228
   187   7 N    3.009 --   186 C    1.279   183 C    1.238   145 Ni   0.708
   188   1 H    1.037 --   148 C    0.997
   189   1 H    1.042 --   149 C    0.997
   190   1 H    1.048 --   154 C    0.987
   191   1 H    1.029 --   155 C    0.985
   192   1 H    1.029 --   160 C    0.985
   193   1 H    1.048 --   161 C    0.987
   194   1 H    1.042 --   163 C    0.997
   195   1 H    1.037 --   164 C    0.997
   196   1 H    1.037 --   169 C    0.997
   197   1 H    1.042 --   170 C    0.997
   198   1 H    1.048 --   175 C    0.987
   199   1 H    1.029 --   176 C    0.985
   200   1 H    1.029 --   181 C    0.985
   201   1 H    1.048 --   182 C    0.987
   202   1 H    1.042 --   184 C    0.997
   203   1 H    1.037 --   185 C    0.997
   204  28 Ni   3.312 --   210 N    0.709   246 N    0.709   231 N    0.709
                           224 N    0.708
   205   6 C    3.823 --   206 C    1.294   245 C    1.292   136 C    1.224
   206   6 C    3.920 --   205 C    1.294   210 N    1.278   207 C    1.228
   207   6 C    3.834 --   208 C    1.620   206 C    1.228   247 H    0.997
   208   6 C    3.824 --   207 C    1.620   209 C    1.219   248 H    0.997
   209   6 C    3.901 --   211 C    1.364   210 N    1.239   208 C    1.219
   210   7 N    3.009 --   206 C    1.278   209 C    1.239   204 Ni   0.709
   211   6 C    3.831 --   221 C    1.365   209 C    1.364   212 C    1.056
   212   6 C    3.897 --   220 C    1.415   213 C    1.415   211 C    1.056
   213   6 C    3.864 --   214 C    1.465   212 C    1.415   249 H    0.987
   214   6 C    3.898 --   213 C    1.465   215 C    1.405   250 H    0.985
   215   6 C    3.934 --   219 C    1.406   214 C    1.405   216 N    1.005
   216   7 N    4.110 --   217 O    1.568   218 O    1.568   215 C    1.005
   217   8 O    2.010 --   216 N    1.568   218 O    0.382
   218   8 O    2.010 --   216 N    1.568   217 O    0.382
   219   6 C    3.898 --   220 C    1.465   215 C    1.406   251 H    0.985
   220   6 C    3.865 --   219 C    1.465   212 C    1.415   252 H    0.987
   221   6 C    3.901 --   211 C    1.365   224 N    1.238   222 C    1.219
   222   6 C    3.823 --   223 C    1.620   221 C    1.219   253 H    0.997
   223   6 C    3.833 --   222 C    1.620   225 C    1.229   254 H    0.997
   224   7 N    3.009 --   225 C    1.280   221 C    1.238   204 Ni   0.708
   225   6 C    3.919 --   226 C    1.292   224 N    1.280   223 C    1.229
   226   6 C    3.822 --   227 C    1.293   225 C    1.292   137 C    1.225
   227   6 C    3.919 --   226 C    1.293   231 N    1.278   228 C    1.229
   228   6 C    3.834 --   229 C    1.620   227 C    1.229   255 H    0.997
   229   6 C    3.823 --   228 C    1.620   230 C    1.219   256 H    0.997
   230   6 C    3.901 --   232 C    1.363   231 N    1.239   229 C    1.219
   231   7 N    3.009 --   227 C    1.278   230 C    1.239   204 Ni   0.709
   232   6 C    3.831 --   242 C    1.365   230 C    1.363   233 C    1.056
   233   6 C    3.897 --   241 C    1.415   234 C    1.415   232 C    1.056
   234   6 C    3.865 --   235 C    1.465   233 C    1.415   257 H    0.987
   235   6 C    3.898 --   234 C    1.465   236 C    1.405   258 H    0.985
   236   6 C    3.934 --   240 C    1.406   235 C    1.405   237 N    1.005
   237   7 N    4.110 --   239 O    1.568   238 O    1.568   236 C    1.005
   238   8 O    2.010 --   237 N    1.568   239 O    0.382
   239   8 O    2.010 --   237 N    1.568   238 O    0.382
   240   6 C    3.898 --   241 C    1.465   236 C    1.406   259 H    0.985
   241   6 C    3.864 --   240 C    1.465   233 C    1.415   260 H    0.987
   242   6 C    3.902 --   232 C    1.365   246 N    1.238   243 C    1.219
   243   6 C    3.824 --   244 C    1.620   242 C    1.219   261 H    0.997
   244   6 C    3.834 --   243 C    1.620   245 C    1.229   262 H    0.997
   245   6 C    3.920 --   205 C    1.292   246 N    1.280   244 C    1.229
   246   7 N    3.010 --   245 C    1.280   242 C    1.238   204 Ni   0.709
   247   1 H    1.037 --   207 C    0.997
   248   1 H    1.042 --   208 C    0.997
   249   1 H    1.048 --   213 C    0.987
   250   1 H    1.029 --   214 C    0.985
   251   1 H    1.029 --   219 C    0.985
   252   1 H    1.048 --   220 C    0.987
   253   1 H    1.042 --   222 C    0.997
   254   1 H    1.037 --   223 C    0.997
   255   1 H    1.038 --   228 C    0.997
   256   1 H    1.042 --   229 C    0.997
   257   1 H    1.048 --   234 C    0.987
   258   1 H    1.029 --   235 C    0.985
   259   1 H    1.029 --   240 C    0.985
   260   1 H    1.048 --   241 C    0.987
   261   1 H    1.042 --   243 C    0.997
   262   1 H    1.037 --   244 C    0.997
 ---------------------------------------------------------------------------

Topologies differ in total number of bonds
Writing topology from bond orders to xtbtopo.mol

 dipole moment from electron density (au)
     X       Y       Z   
-130.0516  -0.0191   0.0452  total (Debye):  330.558


           -------------------------------------------------
          | TOTAL ENERGY             -584.330907956721 Eh   |
          | GRADIENT NORM               0.145144655774 Eh/α |
          | HOMO-LUMO GAP               0.103694082210 eV   |
           -------------------------------------------------
########################################################################
[WARNING] Runtime exception occurred
-1- restart_readRestart: Dimension missmatch in restart file.
########################################################################

------------------------------------------------------------------------
 * finished run on 2022/07/30 at 05:36:35.338     
------------------------------------------------------------------------
 total:
 * wall-time:     0 d,  0 h,  1 min,  9.019 sec
 *  cpu-time:     0 d,  0 h,  1 min,  8.487 sec
 * ratio c/w:     0.992 speedup
 SCF:
 * wall-time:     0 d,  0 h,  1 min,  7.828 sec
 *  cpu-time:     0 d,  0 h,  1 min,  7.313 sec
 * ratio c/w:     0.992 speedup

