      -----------------------------------------------------------      
     |                   =====================                   |     
     |                           x T B                           |     
     |                   =====================                   |     
     |                         S. Grimme                         |     
     |          Mulliken Center for Theoretical Chemistry        |     
     |                    University of Bonn                     |     
      -----------------------------------------------------------      

   * xtb version 6.5.1 (b24c23e) compiled by 'conda@728c89f4b128' on 2022-07-12

   xtb is free software: you can redistribute it and/or modify it under
   the terms of the GNU Lesser General Public License as published by
   the Free Software Foundation, either version 3 of the License, or
   (at your option) any later version.
   
   xtb is distributed in the hope that it will be useful,
   but WITHOUT ANY WARRANTY; without even the implied warranty of
   MERCHANTABILITY or FITNESS FOR A PARTICULAR PURPOSE.  See the
   GNU Lesser General Public License for more details.
   
   Cite this work as:
   * C. Bannwarth, E. Caldeweyher, S. Ehlert, A. Hansen, P. Pracht,
     J. Seibert, S. Spicher, S. Grimme, WIREs Comput. Mol. Sci., 2020, 11,
     e01493. DOI: 10.1002/wcms.1493
   
   for GFN2-xTB:
   * C. Bannwarth, S. Ehlert and S. Grimme., J. Chem. Theory Comput., 2019,
     15, 1652-1671. DOI: 10.1021/acs.jctc.8b01176
   for GFN1-xTB:
   * S. Grimme, C. Bannwarth, P. Shushkov, J. Chem. Theory Comput., 2017,
     13, 1989-2009. DOI: 10.1021/acs.jctc.7b00118
   for GFN0-xTB:
   * P. Pracht, E. Caldeweyher, S. Ehlert, S. Grimme, ChemRxiv, 2019, preprint.
     DOI: 10.26434/chemrxiv.8326202.v1
   for GFN-FF:
   * S. Spicher and S. Grimme, Angew. Chem. Int. Ed., 2020, 59, 15665-15673.
     DOI: 10.1002/anie.202004239
   
   for ALPB and GBSA implicit solvation:
   * S. Ehlert, M. Stahn, S. Spicher, S. Grimme, J. Chem. Theory Comput.,
     2021, 17, 4250-4261. DOI: 10.1021/acs.jctc.1c00471
   
   for DFT-D4:
   * E. Caldeweyher, C. Bannwarth and S. Grimme, J. Chem. Phys., 2017,
     147, 034112. DOI: 10.1063/1.4993215
   * E. Caldeweyher, S. Ehlert, A. Hansen, H. Neugebauer, S. Spicher,
     C. Bannwarth and S. Grimme, J. Chem. Phys., 2019, 150, 154122.
     DOI: 10.1063/1.5090222
   * E. Caldeweyher, J.-M. Mewes, S. Ehlert and S. Grimme, Phys. Chem. Chem. Phys.
     2020, 22, 8499-8512. DOI: 10.1039/D0CP00502A
   
   for sTDA-xTB:
   * S. Grimme and C. Bannwarth, J. Chem. Phys., 2016, 145, 054103.
     DOI: 10.1063/1.4959605
   
   in the mass-spec context:
   * V. Asgeirsson, C. Bauer and S. Grimme, Chem. Sci., 2017, 8, 4879.
     DOI: 10.1039/c7sc00601b
   * J. Koopman and S. Grimme, ACS Omega 2019, 4, 12, 15120-15133.
     DOI: 10.1021/acsomega.9b02011
   
   for metadynamics refer to:
   * S. Grimme, J. Chem. Theory Comput., 2019, 155, 2847-2862
     DOI: 10.1021/acs.jctc.9b00143
   
   for SPH calculations refer to:
   * S. Spicher and S. Grimme, J. Chem. Theory Comput., 2021, 17, 1701-1714
     DOI: 10.1021/acs.jctc.0c01306
   
   with help from (in alphabetical order)
   P. Atkinson, C. Bannwarth, F. Bohle, G. Brandenburg, E. Caldeweyher
   M. Checinski, S. Dohm, S. Ehlert, S. Ehrlich, I. Gerasimov, C. Hölzer
   A. Katbashev, J. Koopman, C. Lavigne, S. Lehtola, F. März, M. Müller,
   F. Musil, H. Neugebauer, J. Pisarek, C. Plett, P. Pracht, F. Pultar,
   J. Seibert, P. Shushkov, S. Spicher, M. Stahn, M. Steiner, T. Strunk,
   J. Stückrath, T. Rose, and J. Unsleber
   
 * started run on 2022/07/30 at 03:30:43.495     

           -------------------------------------------------
          |                Calculation Setup                |
           -------------------------------------------------

          program call               : xtb Ni_DHP_C6_2.xyz --gfn 1 --opt -T 48
          hostname                   : cx3-14-19.cx3.hpc.ic.ac.uk
          coordinate file            : Ni_DHP_C6_2.xyz
          omp threads                :                     1

   ID    Z sym.   atoms
    1   28 Ni     1, 59
    2    6 C      2-6, 8-11, 13-17, 19-24, 26-29, 31-36, 60-64, 66-69, 71-75,
                  77-82, 84-87, 89-94, 117-122
    3    7 N      7, 12, 18, 25, 30, 37, 65, 70, 76, 83, 88, 95
    4    1 H      38-58, 96-116
########################################################################
[WARNING] Please study the warnings concerning your input carefully
-1- prog_main_parseArguments: Unknown option '-T' provided
########################################################################

           -------------------------------------------------
          |                 G F N 1 - x T B                 |
           -------------------------------------------------

        Reference                      10.1021/acs.jctc.7b00118
      * Hamiltonian:
        H0-scaling (s, p, d)           1.850000    2.250000    2.000000
        zeta-weighting                 0.000000
      * Dispersion:
        s8                             2.400000
        a1                             0.630000
        a2                             5.000000
        s9                             0.000000
      * Repulsion:
        kExp                           1.500000
        rExp                           1.000000
      * Coulomb:
        alpha                          2.000000
        third order                    atomic
        anisotropic                    false
      * Halogen bond correction:
        rad-scale                      1.300000
        damping                        0.440000


          ...................................................
          :                      SETUP                      :
          :.................................................:
          :  # basis functions                 416          :
          :  # atomic orbitals                 414          :
          :  # shells                          246          :
          :  # electrons                       386          :
          :  # halogen bonds                     0          :
          :  max. iterations                   250          :
          :  Hamiltonian                  GFN1-xTB          :
          :  restarted?                      false          :
          :  GBSA solvation                  false          :
          :  PC potential                    false          :
          :  electronic temp.          300.0000000     K    :
          :  accuracy                    1.0000000          :
          :  -> integral cutoff          0.2500000E+02      :
          :  -> integral neglect         0.1000000E-07      :
          :  -> SCF convergence          0.1000000E-05 Eh   :
          :  -> wf. convergence          0.2000000E-04 e    :
          :  Broyden damping             0.4000000          :
          ...................................................

 iter      E             dE          RMSdq      gap      omega  full diag
   1   -210.7279011 -0.210728E+03  0.106E+01    0.09       0.0  T
   2   -159.9150246  0.508129E+02  0.120E+01    0.02       1.0  T
   3   -207.9488166 -0.480338E+02  0.638E+00    0.15       1.0  T
   4   -201.7204615  0.622836E+01  0.506E+00    0.10       1.0  T
   5   -195.2724292  0.644803E+01  0.452E+00    0.01       1.0  T
   6   -207.4521653 -0.121797E+02  0.361E+00    0.10       1.0  T
   7   -209.7436103 -0.229144E+01  0.325E+00    0.08       1.0  T
   8   -210.4263478 -0.682738E+00  0.308E+00    0.28       1.0  T
   9   -210.9559619 -0.529614E+00  0.265E+00    0.13       1.0  T
  10   -210.7697166  0.186245E+00  0.271E+00    0.11       1.0  T
  11   -210.7451749  0.245417E-01  0.236E+00    0.01       1.0  T
  12   -211.1871746 -0.442000E+00  0.191E+00    0.06       1.0  T
  13   -211.3838649 -0.196690E+00  0.152E+00    0.26       1.0  T
  14   -211.4207699 -0.369050E-01  0.128E+00    0.26       1.0  T
  15   -211.5506993 -0.129929E+00  0.589E-01    0.41       1.0  T
  16   -211.5785349 -0.278356E-01  0.283E-01    0.41       1.0  T
  17   -211.5889230 -0.103881E-01  0.139E-01    0.44       1.0  T
  18   -211.5913042 -0.238113E-02  0.857E-02    0.47       1.0  T
  19   -211.5920082 -0.703989E-03  0.627E-02    0.46       1.0  T
  20   -211.5924793 -0.471185E-03  0.383E-02    0.45       1.0  T
  21   -211.5927316 -0.252297E-03  0.235E-02    0.45       1.0  T
  22   -211.5927817 -0.500750E-04  0.185E-02    0.46       1.0  T
  23   -211.5928515 -0.697514E-04  0.133E-02    0.47       1.0  T
  24   -211.5928741 -0.226111E-04  0.101E-02    0.47       1.0  T
  25   -211.5928922 -0.180849E-04  0.648E-03    0.47       1.4  T
  26   -211.5928991 -0.695776E-05  0.417E-03    0.48       2.2  T
  27   -211.5929012 -0.204583E-05  0.314E-03    0.48       2.9  T
  28   -211.5929030 -0.180041E-05  0.178E-03    0.48       5.1  T
  29   -211.5929035 -0.525549E-06  0.957E-04    0.48       9.5  T
  30   -211.5929036 -0.153081E-06  0.663E-04    0.48      13.7  T
  31   -211.5929037 -0.547600E-07  0.450E-04    0.48      20.1  T
  32   -211.5929037 -0.196611E-07  0.353E-04    0.48      25.6  T
  33   -211.5929037 -0.192315E-07  0.251E-04    0.48      36.0  T
  34   -211.5929037 -0.114654E-07  0.164E-04    0.48      55.3  T
  35   -211.5929038 -0.556582E-08  0.871E-05    0.48     103.9  T

   *** convergence criteria satisfied after 35 iterations ***

         #    Occupation            Energy/Eh            Energy/eV
      -------------------------------------------------------------
         1        2.0000           -0.7722182             -21.0131
       ...           ...                  ...                  ...
       187        2.0000           -0.3775232             -10.2729
       188        2.0000           -0.3706471             -10.0858
       189        2.0000           -0.3701096             -10.0712
       190        2.0000           -0.3692982             -10.0491
       191        2.0000           -0.3683665             -10.0238
       192        2.0000           -0.3673992              -9.9974
       193        1.9998           -0.3657191              -9.9517 (HOMO)
       194        0.0002           -0.3481146              -9.4727 (LUMO)
       195                         -0.3291227              -8.9559
       196                         -0.3290830              -8.9548
       197                         -0.3209816              -8.7344
       198                         -0.3200496              -8.7090
       ...                                ...                  ...
       414                         12.4777316             339.5364
      -------------------------------------------------------------
                  HL-Gap            0.0176046 Eh            0.4790 eV
             Fermi-level           -0.3568030 Eh           -9.7091 eV

 SCC (total)                   0 d,  0 h,  0 min,  2.644 sec
 SCC setup                      ...        0 min,  0.006 sec (  0.236%)
 Dispersion                     ...        0 min,  0.006 sec (  0.210%)
 classical contributions        ...        0 min,  0.002 sec (  0.076%)
 integral evaluation            ...        0 min,  0.185 sec (  6.998%)
 iterations                     ...        0 min,  1.958 sec ( 74.035%)
 molecular gradient             ...        0 min,  0.473 sec ( 17.907%)
 printout                       ...        0 min,  0.014 sec (  0.538%)

         :::::::::::::::::::::::::::::::::::::::::::::::::::::
         ::                     SUMMARY                     ::
         :::::::::::::::::::::::::::::::::::::::::::::::::::::
         :: total energy            -206.147622486947 Eh    ::
         :: gradient norm              6.982555111978 Eh/a0 ::
         :: HOMO-LUMO gap              0.479044893388 eV    ::
         ::.................................................::
         :: SCC energy              -211.592903751893 Eh    ::
         :: -> electrostatic           0.168763813714 Eh    ::
         :: repulsion energy           5.550304442440 Eh    ::
         :: dispersion energy         -0.105023177493 Eh    ::
         :: halogen bond corr.         0.000000000000 Eh    ::
         :: add. restraining           0.000000000000 Eh    ::
         :: total charge               0.000000000000 e     ::
         :::::::::::::::::::::::::::::::::::::::::::::::::::::

      ----------------------------------------------------------- 
     |                   =====================                   |
     |                        A N C O P T                        |
     |                   =====================                   |
     |               Approximate Normal Coordinate               |
     |                Rational Function Optimizer                |
      ----------------------------------------------------------- 

          ...................................................
          :                      SETUP                      :
          :.................................................:
          :   optimization level            normal          :
          :   max. optcycles                   366          :
          :   ANC micro-cycles                  20          :
          :   degrees of freedom               360          :
          :.................................................:
          :   RF solver                   davidson          :
          :   write xtbopt.log                true          :
          :   linear?                        false          :
          :   energy convergence         0.5000000E-05 Eh   :
          :   grad. convergence          0.1000000E-02 Eh/α :
          :   maximium RF displ.         1.0000000          :
          :   Hlow (freq-cutoff)         0.1000000E-01      :
          :   Hmax (freq-cutoff)         5.0000000          :
          :   S6 in model hess.         20.0000000          :
          ...................................................

generating ANC from model Hessian ...
Using Lindh-Hessian (1995)
 Shifting diagonal of input Hessian by    1.0030398199624410E-002
 Lowest  eigenvalues of input Hessian
    0.010000    0.010013    0.010025    0.000000    0.000000    0.000000
    0.000000    0.000000    0.000000    0.010050    0.010100    0.010185
    0.010215    0.010449    0.010563    0.010659    0.010730    0.010766
 Highest eigenvalues
    2.204451    2.695631    5.227788    5.251510    5.390138    5.596874


........................................................................
.............................. CYCLE    1 ..............................
........................................................................
   1   -211.5929038 -0.211593E+03  0.391E-05    0.48       0.0  T
   2   -211.5929038 -0.185338E-09  0.309E-05    0.48     293.3  T
   3   -211.5929038 -0.954401E-10  0.184E-05    0.48     492.4  T
     SCC iter.                  ...        0 min,  0.171 sec
     gradient                   ...        0 min,  0.473 sec
 * total energy  :  -206.1476225 Eh     change       -0.2074330E-08 Eh
   gradient norm :     6.9825544 Eh/α   predicted     0.0000000E+00 (-100.00%)
   displ. norm   :     0.7252794 α      lambda       -0.5014618E+01
   maximum displ.:     0.4685201 α      in ANC's #359, #358, #360, ...

........................................................................
.............................. CYCLE    2 ..............................
........................................................................
   1   -211.7799497 -0.211780E+03  0.378E-01    0.94       0.0  T
   2   -211.7939488 -0.139991E-01  0.141E-01    1.01       1.0  T
   3   -211.7974972 -0.354836E-02  0.488E-02    0.96       1.0  T
   4   -211.7978040 -0.306830E-03  0.312E-02    0.98       1.0  T
   5   -211.7979021 -0.981093E-04  0.167E-02    0.97       1.0  T
   6   -211.7979561 -0.540047E-04  0.565E-03    0.97       1.6  T
   7   -211.7979591 -0.303598E-05  0.181E-03    0.97       5.0  T
   8   -211.7979597 -0.591038E-06  0.378E-04    0.97      24.0  T
   9   -211.7979597 -0.199171E-07  0.131E-04    0.97      69.3  T
  10   -211.7979597 -0.360026E-08  0.646E-05    0.97     140.2  T
     SCC iter.                  ...        0 min,  0.558 sec
     gradient                   ...        0 min,  0.472 sec
 * total energy  :  -208.0805162 Eh     change       -0.1932894E+01 Eh
   gradient norm :     0.9158934 Eh/α   predicted    -0.3833911E+01 (  98.35%)
   displ. norm   :     0.5123764 α      lambda       -0.4282754E+00
   maximum displ.:     0.2147370 α      in ANC's #294, #304, #356, ...

........................................................................
.............................. CYCLE    3 ..............................
........................................................................
   1   -211.7310602 -0.211731E+03  0.150E-01    0.74       0.0  T
   2   -211.7340252 -0.296495E-02  0.938E-02    0.76       1.0  T
   3   -211.7349430 -0.917793E-03  0.405E-02    0.77       1.0  T
   4   -211.7348446  0.984035E-04  0.303E-02    0.76       1.0  T
   5   -211.7349500 -0.105482E-03  0.109E-02    0.77       1.0  T
   6   -211.7350019 -0.518377E-04  0.238E-03    0.77       3.8  T
   7   -211.7350037 -0.179505E-05  0.492E-04    0.77      18.4  T
   8   -211.7350037 -0.230320E-07  0.175E-04    0.77      51.6  T
   9   -211.7350037 -0.258655E-08  0.810E-05    0.77     111.8  T
     SCC iter.                  ...        0 min,  0.501 sec
     gradient                   ...        0 min,  0.472 sec
 * total energy  :  -208.2927991 Eh     change       -0.2122829E+00 Eh
   gradient norm :     0.5361869 Eh/α   predicted    -0.2703559E+00 (  27.36%)
   displ. norm   :     0.4913723 α      lambda       -0.1117942E+00
   maximum displ.:     0.1433448 α      in ANC's #102, #128, #84, ...

........................................................................
.............................. CYCLE    4 ..............................
........................................................................
   1   -211.7894948 -0.211789E+03  0.132E-01    0.72       0.0  T
   2   -211.7916255 -0.213065E-02  0.626E-02    0.74       1.0  T
   3   -211.7923644 -0.738969E-03  0.254E-02    0.74       1.0  T
   4   -211.7924439 -0.794611E-04  0.155E-02    0.74       1.0  T
   5   -211.7924805 -0.366070E-04  0.829E-03    0.74       1.1  T
   6   -211.7924999 -0.193705E-04  0.172E-03    0.74       5.3  T
   7   -211.7925005 -0.634107E-06  0.477E-04    0.74      19.0  T
   8   -211.7925005 -0.140268E-07  0.212E-04    0.74      42.6  T
   9   -211.7925005 -0.617078E-08  0.103E-04    0.74      88.2  T
  10   -211.7925005 -0.480327E-08  0.322E-05    0.74     280.9  T
     SCC iter.                  ...        0 min,  0.561 sec
     gradient                   ...        0 min,  0.471 sec
 * total energy  :  -208.3789491 Eh     change       -0.8615005E-01 Eh
   gradient norm :     0.3578165 Eh/α   predicted    -0.6939362E-01 ( -19.45%)
   displ. norm   :     0.5458590 α      lambda       -0.7474387E-01
   maximum displ.:     0.1695051 α      in ANC's #84, #102, #128, ...

........................................................................
.............................. CYCLE    5 ..............................
........................................................................
   1   -211.8546262 -0.211855E+03  0.128E-01    0.80       0.0  T
   2   -211.8564043 -0.177803E-02  0.578E-02    0.81       1.0  T
   3   -211.8571175 -0.713175E-03  0.261E-02    0.81       1.0  T
   4   -211.8573081 -0.190673E-03  0.142E-02    0.81       1.0  T
   5   -211.8573463 -0.382252E-04  0.653E-03    0.81       1.4  T
   6   -211.8573551 -0.872002E-05  0.151E-03    0.81       6.0  T
   7   -211.8573555 -0.443959E-06  0.457E-04    0.81      19.8  T
   8   -211.8573555 -0.118701E-07  0.301E-04    0.81      30.1  T
   9   -211.8573556 -0.304385E-07  0.105E-04    0.81      86.1  T
  10   -211.8573556 -0.581431E-08  0.244E-05    0.81     371.5  T
     SCC iter.                  ...        0 min,  0.563 sec
     gradient                   ...        0 min,  0.473 sec
 * total energy  :  -208.4314003 Eh     change       -0.5245113E-01 Eh
   gradient norm :     0.1883896 Eh/α   predicted    -0.4850733E-01 (  -7.52%)
   displ. norm   :     0.5923015 α      lambda       -0.3196788E-01
   maximum displ.:     0.2428258 α      in ANC's #22, #84, #36, ...

........................................................................
.............................. CYCLE    6 ..............................
........................................................................
   1   -211.8716012 -0.211872E+03  0.513E-02    0.87       0.0  T
   2   -211.8718030 -0.201739E-03  0.250E-02    0.88       1.0  T
   3   -211.8719448 -0.141809E-03  0.128E-02    0.88       1.0  T
   4   -211.8719942 -0.494037E-04  0.744E-03    0.88       1.2  T
   5   -211.8720027 -0.845120E-05  0.284E-03    0.88       3.2  T
   6   -211.8720046 -0.197893E-05  0.592E-04    0.88      15.3  T
   7   -211.8720047 -0.586371E-07  0.211E-04    0.88      43.0  T
   8   -211.8720047 -0.314785E-08  0.134E-04    0.88      67.5  T
   9   -211.8720047 -0.651994E-08  0.449E-05    0.88     201.8  T
     SCC iter.                  ...        0 min,  0.502 sec
     gradient                   ...        0 min,  0.470 sec
 * total energy  :  -208.4561596 Eh     change       -0.2475939E-01 Eh
   gradient norm :     0.1141328 Eh/α   predicted    -0.2159145E-01 ( -12.79%)
   displ. norm   :     0.6634964 α      lambda       -0.2157425E-01
   maximum displ.:     0.3591728 α      in ANC's #22, #36, #31, ...

........................................................................
.............................. CYCLE    7 ..............................
........................................................................
   1   -211.8661155 -0.211866E+03  0.361E-02    0.93       0.0  T
   2   -211.8662019 -0.863528E-04  0.201E-02    0.93       1.0  T
   3   -211.8662789 -0.770021E-04  0.842E-03    0.93       1.1  T
   4   -211.8662852 -0.630440E-05  0.616E-03    0.93       1.5  T
   5   -211.8662933 -0.808965E-05  0.190E-03    0.93       4.8  T
   6   -211.8662946 -0.130600E-05  0.290E-04    0.93      31.2  T
   7   -211.8662946 -0.961279E-08  0.131E-04    0.93      68.9  T
   8   -211.8662946 -0.301182E-08  0.756E-05    0.93     119.7  T
     SCC iter.                  ...        0 min,  0.452 sec
     gradient                   ...        0 min,  0.471 sec
 * total energy  :  -208.4735525 Eh     change       -0.1739288E-01 Eh
   gradient norm :     0.0726353 Eh/α   predicted    -0.1553593E-01 ( -10.68%)
   displ. norm   :     0.7137550 α      lambda       -0.1550065E-01
   maximum displ.:     0.4754398 α      in ANC's #22, #36, #31, ...

........................................................................
.............................. CYCLE    8 ..............................
........................................................................
   1   -211.8501007 -0.211850E+03  0.320E-02    0.97       0.0  T
   2   -211.8501708 -0.701742E-04  0.174E-02    0.97       1.0  T
   3   -211.8502149 -0.441061E-04  0.750E-03    0.97       1.2  T
   4   -211.8502168 -0.185487E-05  0.544E-03    0.97       1.7  T
   5   -211.8502228 -0.604033E-05  0.175E-03    0.97       5.2  T
   6   -211.8502242 -0.137350E-05  0.245E-04    0.97      37.0  T
   7   -211.8502242 -0.995499E-08  0.822E-05    0.97     110.2  T
   8   -211.8502242 -0.703352E-09  0.388E-05    0.97     233.4  T
     SCC iter.                  ...        0 min,  0.450 sec
     gradient                   ...        0 min,  0.472 sec
 * total energy  :  -208.4862037 Eh     change       -0.1265121E-01 Eh
   gradient norm :     0.0432287 Eh/α   predicted    -0.1169871E-01 (  -7.53%)
   displ. norm   :     0.7438798 α      lambda       -0.1102862E-01
   maximum displ.:     0.5798429 α      in ANC's #22, #36, #30, ...

........................................................................
.............................. CYCLE    9 ..............................
........................................................................
   1   -211.8342292 -0.211834E+03  0.269E-02    0.99       0.0  T
   2   -211.8342725 -0.433953E-04  0.146E-02    0.99       1.0  T
   3   -211.8343063 -0.337717E-04  0.692E-03    0.98       1.3  T
   4   -211.8343135 -0.715786E-05  0.472E-03    0.99       1.9  T
   5   -211.8343179 -0.441857E-05  0.151E-03    0.98       6.0  T
   6   -211.8343187 -0.766708E-06  0.234E-04    0.98      38.7  T
   7   -211.8343187 -0.104580E-07  0.111E-04    0.98      81.5  T
   8   -211.8343187 -0.242747E-08  0.601E-05    0.98     150.5  T
     SCC iter.                  ...        0 min,  0.455 sec
     gradient                   ...        0 min,  0.472 sec
 * total energy  :  -208.4953055 Eh     change       -0.9101720E-02 Eh
   gradient norm :     0.0241261 Eh/α   predicted    -0.8565730E-02 (  -5.89%)
   displ. norm   :     0.7724873 α      lambda       -0.8385180E-02
   maximum displ.:     0.6441436 α      in ANC's #22, #36, #30, ...

........................................................................
.............................. CYCLE   10 ..............................
........................................................................
   1   -211.8204057 -0.211820E+03  0.217E-02    1.00       0.0  T
   2   -211.8204308 -0.251287E-04  0.124E-02    0.99       1.0  T
   3   -211.8204589 -0.280618E-04  0.603E-03    0.99       1.5  T
   4   -211.8204665 -0.759587E-05  0.389E-03    0.99       2.3  T
   5   -211.8204693 -0.282883E-05  0.127E-03    0.99       7.1  T
   6   -211.8204698 -0.481930E-06  0.205E-04    0.99      44.2  T
   7   -211.8204698 -0.883244E-08  0.861E-05    0.99     105.1  T
   8   -211.8204698 -0.117967E-08  0.500E-05    0.99     181.0  T
     SCC iter.                  ...        0 min,  0.455 sec
     gradient                   ...        0 min,  0.469 sec
 * total energy  :  -208.5021057 Eh     change       -0.6800283E-02 Eh
   gradient norm :     0.0193350 Eh/α   predicted    -0.6694516E-02 (  -1.56%)
   displ. norm   :     0.7337360 α      lambda       -0.6576012E-02
   maximum displ.:     0.6260723 α      in ANC's #22, #8, #36, ...

........................................................................
.............................. CYCLE   11 ..............................
........................................................................
   1   -211.8090139 -0.211809E+03  0.158E-02    1.00       0.0  T
   2   -211.8090250 -0.110455E-04  0.931E-03    1.00       1.0  T
   3   -211.8090406 -0.156384E-04  0.470E-03    0.99       1.9  T
   4   -211.8090448 -0.416429E-05  0.300E-03    0.99       3.0  T
   5   -211.8090464 -0.166997E-05  0.995E-04    0.99       9.1  T
   6   -211.8090467 -0.304777E-06  0.155E-04    0.99      58.3  T
   7   -211.8090468 -0.439283E-08  0.594E-05    0.99     152.5  T
     SCC iter.                  ...        0 min,  0.397 sec
     gradient                   ...        0 min,  0.470 sec
 * total energy  :  -208.5072624 Eh     change       -0.5156672E-02 Eh
   gradient norm :     0.0216978 Eh/α   predicted    -0.5058171E-02 (  -1.91%)
   displ. norm   :     0.6745229 α      lambda       -0.4822063E-02
   maximum displ.:     0.5739697 α      in ANC's #22, #8, #30, ...

........................................................................
.............................. CYCLE   12 ..............................
........................................................................
   1   -211.8008921 -0.211801E+03  0.111E-02    1.00       0.0  T
   2   -211.8009007 -0.864117E-05  0.654E-03    1.00       1.4  T
   3   -211.8009049 -0.419161E-05  0.317E-03    1.00       2.9  T
   4   -211.8009045  0.401849E-06  0.225E-03    1.00       4.0  T
   5   -211.8009055 -0.101900E-05  0.747E-04    1.00      12.1  T
   6   -211.8009058 -0.273090E-06  0.161E-04    1.00      56.2  T
   7   -211.8009058 -0.847277E-08  0.414E-05    1.00     218.8  T
     SCC iter.                  ...        0 min,  0.396 sec
     gradient                   ...        0 min,  0.469 sec
 * total energy  :  -208.5114048 Eh     change       -0.4142357E-02 Eh
   gradient norm :     0.0202599 Eh/α   predicted    -0.3508029E-02 ( -15.31%)
   displ. norm   :     0.6630347 α      lambda       -0.3896729E-02
   maximum displ.:     0.5586778 α      in ANC's #22, #8, #24, ...

........................................................................
.............................. CYCLE   13 ..............................
........................................................................
   1   -211.7970470 -0.211797E+03  0.130E-02    1.00       0.0  T
   2   -211.7970641 -0.170532E-04  0.713E-03    1.00       1.3  T
   3   -211.7970696 -0.557259E-05  0.313E-03    1.00       2.9  T
   4   -211.7970692  0.435968E-06  0.219E-03    1.00       4.1  T
   5   -211.7970699 -0.727429E-06  0.873E-04    1.00      10.4  T
   6   -211.7970703 -0.349292E-06  0.234E-04    1.00      38.7  T
   7   -211.7970703 -0.180025E-07  0.554E-05    1.00     163.3  T
   8   -211.7970703 -0.190141E-09  0.167E-05    1.00     541.2  T
     SCC iter.                  ...        0 min,  0.453 sec
     gradient                   ...        0 min,  0.468 sec
 * total energy  :  -208.5147521 Eh     change       -0.3347385E-02 Eh
   gradient norm :     0.0159735 Eh/α   predicted    -0.2804916E-02 ( -16.21%)
   displ. norm   :     0.6656142 α      lambda       -0.3023657E-02
   maximum displ.:     0.5449920 α      in ANC's #22, #8, #24, ...

........................................................................
.............................. CYCLE   14 ..............................
........................................................................
   1   -211.7928033 -0.211793E+03  0.156E-02    1.01       0.0  T
   2   -211.7928288 -0.254441E-04  0.851E-03    1.01       1.1  T
   3   -211.7928368 -0.801350E-05  0.355E-03    1.01       2.6  T
   4   -211.7928359  0.913089E-06  0.274E-03    1.01       3.3  T
   5   -211.7928376 -0.167002E-05  0.944E-04    1.01       9.6  T
   6   -211.7928379 -0.361224E-06  0.258E-04    1.01      35.1  T
   7   -211.7928379 -0.184522E-07  0.672E-05    1.01     134.8  T
   8   -211.7928379 -0.194262E-09  0.254E-05    1.01     356.0  T
     SCC iter.                  ...        0 min,  0.453 sec
     gradient                   ...        0 min,  0.467 sec
 * total energy  :  -208.5172895 Eh     change       -0.2537320E-02 Eh
   gradient norm :     0.0125546 Eh/α   predicted    -0.2181640E-02 ( -14.02%)
   displ. norm   :     0.6418511 α      lambda       -0.2147306E-02
   maximum displ.:     0.5047963 α      in ANC's #22, #8, #20, ...

........................................................................
.............................. CYCLE   15 ..............................
........................................................................
   1   -211.7885819 -0.211789E+03  0.152E-02    1.02       0.0  T
   2   -211.7886063 -0.244037E-04  0.802E-03    1.01       1.1  T
   3   -211.7886129 -0.659668E-05  0.314E-03    1.01       2.9  T
   4   -211.7886120  0.881366E-06  0.247E-03    1.01       3.7  T
   5   -211.7886134 -0.136908E-05  0.813E-04    1.01      11.1  T
   6   -211.7886137 -0.264285E-06  0.241E-04    1.01      37.6  T
   7   -211.7886137 -0.179511E-07  0.600E-05    1.01     151.0  T
   8   -211.7886137 -0.164505E-09  0.227E-05    1.01     399.4  T
     SCC iter.                  ...        0 min,  0.451 sec
     gradient                   ...        0 min,  0.468 sec
 * total energy  :  -208.5190564 Eh     change       -0.1766940E-02 Eh
   gradient norm :     0.0100099 Eh/α   predicted    -0.1515971E-02 ( -14.20%)
   displ. norm   :     0.6217783 α      lambda       -0.1528181E-02
   maximum displ.:     0.4559184 α      in ANC's #22, #8, #14, ...

........................................................................
.............................. CYCLE   16 ..............................
........................................................................
   1   -211.7839568 -0.211784E+03  0.124E-02    1.02       0.0  T
   2   -211.7839728 -0.159357E-04  0.651E-03    1.02       1.4  T
   3   -211.7839768 -0.401330E-05  0.254E-03    1.02       3.6  T
   4   -211.7839761  0.731054E-06  0.205E-03    1.02       4.4  T
   5   -211.7839771 -0.104894E-05  0.600E-04    1.02      15.1  T
   6   -211.7839772 -0.136848E-06  0.194E-04    1.02      46.7  T
   7   -211.7839773 -0.129928E-07  0.490E-05    1.02     184.8  T
     SCC iter.                  ...        0 min,  0.395 sec
     gradient                   ...        0 min,  0.471 sec
 * total energy  :  -208.5202758 Eh     change       -0.1219388E-02 Eh
   gradient norm :     0.0083960 Eh/α   predicted    -0.1059497E-02 ( -13.11%)
   displ. norm   :     0.5962181 α      lambda       -0.1111157E-02
   maximum displ.:     0.4033130 α      in ANC's #22, #8, #20, ...

........................................................................
.............................. CYCLE   17 ..............................
........................................................................
   1   -211.7785483 -0.211779E+03  0.876E-03    1.03       0.0  T
   2   -211.7785551 -0.679880E-05  0.485E-03    1.02       1.9  T
   3   -211.7785579 -0.276104E-05  0.200E-03    1.02       4.5  T
   4   -211.7785576  0.221987E-06  0.174E-03    1.02       5.2  T
   5   -211.7785585 -0.859165E-06  0.364E-04    1.02      24.9  T
   6   -211.7785585 -0.338937E-07  0.122E-04    1.02      74.2  T
   7   -211.7785585 -0.437922E-08  0.313E-05    1.02     289.1  T
     SCC iter.                  ...        0 min,  0.398 sec
     gradient                   ...        0 min,  0.469 sec
 * total energy  :  -208.5211004 Eh     change       -0.8245693E-03 Eh
   gradient norm :     0.0084399 Eh/α   predicted    -0.7530740E-03 (  -8.67%)
   displ. norm   :     0.4835303 α      lambda       -0.7154801E-03
   maximum displ.:     0.3196817 α      in ANC's #8, #22, #14, ...

........................................................................
.............................. CYCLE   18 ..............................
........................................................................
   1   -211.7745644 -0.211775E+03  0.406E-03    1.02       0.0  T
   2   -211.7745644 -0.329912E-07  0.319E-03    1.02       2.8  T
   3   -211.7745669 -0.248337E-05  0.128E-03    1.02       7.1  T
   4   -211.7745670 -0.118148E-06  0.103E-03    1.02       8.8  T
   5   -211.7745672 -0.241940E-06  0.160E-04    1.02      56.7  T
   6   -211.7745672 -0.672068E-08  0.516E-05    1.02     175.5  T
     SCC iter.                  ...        0 min,  0.339 sec
     gradient                   ...        0 min,  0.468 sec
 * total energy  :  -208.5216369 Eh     change       -0.5364942E-03 Eh
   gradient norm :     0.0099280 Eh/α   predicted    -0.4413844E-03 ( -17.73%)
   displ. norm   :     0.3645327 α      lambda       -0.5190583E-03
   maximum displ.:     0.2704315 α      in ANC's #8, #22, #20, ...

........................................................................
.............................. CYCLE   19 ..............................
........................................................................
   1   -211.7718275 -0.211772E+03  0.371E-03    1.02       0.0  T
   2   -211.7718280 -0.487799E-06  0.281E-03    1.02       3.2  T
   3   -211.7718299 -0.190900E-05  0.108E-03    1.02       8.4  T
   4   -211.7718300 -0.980217E-07  0.910E-04    1.02      10.0  T
   5   -211.7718302 -0.176980E-06  0.173E-04    1.02      52.2  T
   6   -211.7718302 -0.734173E-08  0.522E-05    1.02     173.5  T
     SCC iter.                  ...        0 min,  0.341 sec
     gradient                   ...        0 min,  0.470 sec
 * total energy  :  -208.5220801 Eh     change       -0.4431924E-03 Eh
   gradient norm :     0.0098281 Eh/α   predicted    -0.2940202E-03 ( -33.66%)
   displ. norm   :     0.3914275 α      lambda       -0.6214738E-03
   maximum displ.:     0.3009903 α      in ANC's #8, #20, #14, ...

........................................................................
.............................. CYCLE   20 ..............................
........................................................................
   1   -211.7705783 -0.211771E+03  0.751E-03    1.02       0.0  T
   2   -211.7705843 -0.596644E-05  0.437E-03    1.02       2.1  T
   3   -211.7705868 -0.247095E-05  0.169E-03    1.02       5.4  T
   4   -211.7705867  0.508771E-07  0.147E-03    1.02       6.1  T
   5   -211.7705872 -0.506524E-06  0.365E-04    1.02      24.8  T
   6   -211.7705873 -0.351915E-07  0.112E-04    1.02      81.0  T
   7   -211.7705873 -0.361950E-08  0.300E-05    1.02     301.9  T
     SCC iter.                  ...        0 min,  0.399 sec
     gradient                   ...        0 min,  0.466 sec
 * total energy  :  -208.5225989 Eh     change       -0.5188271E-03 Eh
   gradient norm :     0.0079242 Eh/α   predicted    -0.3583504E-03 ( -30.93%)
   displ. norm   :     0.4499391 α      lambda       -0.6226210E-03
   maximum displ.:     0.3454508 α      in ANC's #8, #20, #14, ...
 * RMSD in coord.:     0.7933200 α      energy gain  -0.2374976E+01 Eh

generating ANC from model Hessian ...
Using Lindh-Hessian (1995)
 Shifting diagonal of input Hessian by    1.0022001925839122E-002
 Lowest  eigenvalues of input Hessian
    0.010000    0.010008    0.010014    0.000000    0.000000    0.000000
    0.000000    0.000000    0.000000    0.010033    0.010058    0.010180
    0.010195    0.010455    0.010589    0.010590    0.010732    0.010829
 Highest eigenvalues
    2.109568    2.141996    2.142035    2.235093    2.658317    2.986950


........................................................................
.............................. CYCLE   21 ..............................
........................................................................
   1   -211.7696841 -0.211770E+03  0.871E-03    1.01       0.0  T
   2   -211.7696932 -0.918188E-05  0.467E-03    1.02       1.9  T
   3   -211.7696954 -0.212807E-05  0.167E-03    1.02       5.4  T
   4   -211.7696951  0.262067E-06  0.140E-03    1.02       6.5  T
   5   -211.7696955 -0.398856E-06  0.462E-04    1.02      19.6  T
   6   -211.7696956 -0.760264E-07  0.140E-04    1.02      64.5  T
   7   -211.7696956 -0.684918E-08  0.320E-05    1.02     282.6  T
     SCC iter.                  ...        0 min,  0.399 sec
     gradient                   ...        0 min,  0.468 sec
 * total energy  :  -208.5230494 Eh     change       -0.4505435E-03 Eh
   gradient norm :     0.0066774 Eh/α   predicted     0.0000000E+00 (-100.00%)
   displ. norm   :     0.1077154 α      lambda       -0.2567900E-03
   maximum displ.:     0.0747895 α      in ANC's #8, #24, #26, ...

........................................................................
.............................. CYCLE   22 ..............................
........................................................................
   1   -211.7719677 -0.211772E+03  0.197E-03    1.02       0.0  T
   2   -211.7719680 -0.260419E-06  0.113E-03    1.02       8.0  T
   3   -211.7719682 -0.183530E-06  0.496E-04    1.02      18.3  T
   4   -211.7719682 -0.341056E-07  0.428E-04    1.02      21.2  T
   5   -211.7719682 -0.457503E-07  0.867E-05    1.02     104.5  T
   6   -211.7719682 -0.110938E-08  0.296E-05    1.02     306.3  T
     SCC iter.                  ...        0 min,  0.341 sec
     gradient                   ...        0 min,  0.468 sec
 * total energy  :  -208.5232075 Eh     change       -0.1580434E-03 Eh
   gradient norm :     0.0044323 Eh/α   predicted    -0.1298850E-03 ( -17.82%)
   displ. norm   :     0.2408635 α      lambda       -0.3878798E-03
   maximum displ.:     0.1589410 α      in ANC's #8, #24, #15, ...

........................................................................
.............................. CYCLE   23 ..............................
........................................................................
   1   -211.7748249 -0.211775E+03  0.448E-03    1.02       0.0  T
   2   -211.7748264 -0.150035E-05  0.261E-03    1.02       3.5  T
   3   -211.7748275 -0.106553E-05  0.991E-04    1.02       9.1  T
   4   -211.7748276 -0.113819E-06  0.900E-04    1.02      10.1  T
   5   -211.7748278 -0.202466E-06  0.225E-04    1.02      40.3  T
   6   -211.7748278 -0.744853E-08  0.538E-05    1.02     168.3  T
   7   -211.7748278 -0.649351E-09  0.172E-05    1.02     527.3  T
     SCC iter.                  ...        0 min,  0.398 sec
     gradient                   ...        0 min,  0.467 sec
 * total energy  :  -208.5231962 Eh     change        0.1125256E-04 Eh
   gradient norm :     0.0082565 Eh/α   predicted    -0.2051915E-03 (*******%)
   displ. norm   :     0.1850382 α      lambda       -0.6321811E-03
   maximum displ.:     0.1215926 α      in ANC's #8, #24, #10, ...

........................................................................
.............................. CYCLE   24 ..............................
........................................................................
   1   -211.7770896 -0.211777E+03  0.333E-03    1.02       0.0  T
   2   -211.7770904 -0.754248E-06  0.209E-03    1.02       4.3  T
   3   -211.7770908 -0.465846E-06  0.990E-04    1.02       9.1  T
   4   -211.7770908  0.429391E-07  0.858E-04    1.02      10.6  T
   5   -211.7770910 -0.198443E-06  0.186E-04    1.02      48.6  T
   6   -211.7770910 -0.990676E-08  0.538E-05    1.02     168.2  T
     SCC iter.                  ...        0 min,  0.344 sec
     gradient                   ...        0 min,  0.468 sec
 * total energy  :  -208.5235722 Eh     change       -0.3759366E-03 Eh
   gradient norm :     0.0067353 Eh/α   predicted    -0.3269135E-03 ( -13.04%)
   displ. norm   :     0.1711078 α      lambda       -0.1945674E-03
   maximum displ.:     0.1281532 α      in ANC's #8, #22, #24, ...

........................................................................
.............................. CYCLE   25 ..............................
........................................................................
   1   -211.7754702 -0.211775E+03  0.259E-03    1.02       0.0  T
   2   -211.7754707 -0.459792E-06  0.152E-03    1.02       5.9  T
   3   -211.7754709 -0.155749E-06  0.783E-04    1.02      11.6  T
   4   -211.7754708  0.524993E-07  0.545E-04    1.02      16.6  T
   5   -211.7754709 -0.817955E-07  0.162E-04    1.02      55.9  T
   6   -211.7754709 -0.128826E-07  0.401E-05    1.02     225.8  T
     SCC iter.                  ...        0 min,  0.342 sec
     gradient                   ...        0 min,  0.468 sec
 * total energy  :  -208.5237211 Eh     change       -0.1489634E-03 Eh
   gradient norm :     0.0041340 Eh/α   predicted    -0.1001333E-03 ( -32.78%)
   displ. norm   :     0.2550192 α      lambda       -0.2578487E-03
   maximum displ.:     0.1884422 α      in ANC's #8, #22, #10, ...

........................................................................
.............................. CYCLE   26 ..............................
........................................................................
   1   -211.7725492 -0.211773E+03  0.383E-03    1.02       0.0  T
   2   -211.7725500 -0.847967E-06  0.229E-03    1.02       4.0  T
   3   -211.7725503 -0.287131E-06  0.124E-03    1.02       7.3  T
   4   -211.7725501  0.157338E-06  0.870E-04    1.02      10.4  T
   5   -211.7725504 -0.267309E-06  0.212E-04    1.02      42.6  T
   6   -211.7725504 -0.180160E-07  0.606E-05    1.02     149.5  T
   7   -211.7725504 -0.494566E-09  0.231E-05    1.02     391.2  T
     SCC iter.                  ...        0 min,  0.401 sec
     gradient                   ...        0 min,  0.467 sec
 * total energy  :  -208.5238912 Eh     change       -0.1700473E-03 Eh
   gradient norm :     0.0051852 Eh/α   predicted    -0.1373097E-03 ( -19.25%)
   displ. norm   :     0.2511406 α      lambda       -0.2134559E-03
   maximum displ.:     0.1835877 α      in ANC's #8, #22, #18, ...

........................................................................
.............................. CYCLE   27 ..............................
........................................................................
   1   -211.7718561 -0.211772E+03  0.294E-03    1.02       0.0  T
   2   -211.7718566 -0.558261E-06  0.163E-03    1.02       5.6  T
   3   -211.7718568 -0.211048E-06  0.838E-04    1.02      10.8  T
   4   -211.7718567  0.780834E-07  0.691E-04    1.02      13.1  T
   5   -211.7718569 -0.173081E-06  0.930E-05    1.02      97.3  T
   6   -211.7718569 -0.234576E-08  0.338E-05    1.02     268.0  T
     SCC iter.                  ...        0 min,  0.342 sec
     gradient                   ...        0 min,  0.468 sec
 * total energy  :  -208.5240658 Eh     change       -0.1746316E-03 Eh
   gradient norm :     0.0055940 Eh/α   predicted    -0.1134635E-03 ( -35.03%)
   displ. norm   :     0.2965689 α      lambda       -0.2159217E-03
   maximum displ.:     0.2185153 α      in ANC's #8, #22, #10, ...

........................................................................
.............................. CYCLE   28 ..............................
........................................................................
   1   -211.7725846 -0.211773E+03  0.292E-03    1.03       0.0  T
   2   -211.7725852 -0.651712E-06  0.138E-03    1.03       6.5  T
   3   -211.7725854 -0.180703E-06  0.627E-04    1.03      14.4  T
   4   -211.7725854  0.239207E-07  0.515E-04    1.03      17.6  T
   5   -211.7725855 -0.900541E-07  0.851E-05    1.03     106.4  T
   6   -211.7725855 -0.140412E-08  0.263E-05    1.03     344.5  T
     SCC iter.                  ...        0 min,  0.342 sec
     gradient                   ...        0 min,  0.468 sec
 * total energy  :  -208.5242502 Eh     change       -0.1843842E-03 Eh
   gradient norm :     0.0037955 Eh/α   predicted    -0.1174568E-03 ( -36.30%)
   displ. norm   :     0.3156072 α      lambda       -0.1987493E-03
   maximum displ.:     0.2327174 α      in ANC's #8, #22, #10, ...

........................................................................
.............................. CYCLE   29 ..............................
........................................................................
   1   -211.7734834 -0.211773E+03  0.267E-03    1.03       0.0  T
   2   -211.7734839 -0.480563E-06  0.122E-03    1.03       7.4  T
   3   -211.7734840 -0.159055E-06  0.599E-04    1.03      15.1  T
   4   -211.7734841 -0.230761E-07  0.453E-04    1.03      20.0  T
   5   -211.7734841 -0.655252E-07  0.762E-05    1.03     118.9  T
   6   -211.7734841 -0.572186E-09  0.220E-05    1.03     412.2  T
     SCC iter.                  ...        0 min,  0.342 sec
     gradient                   ...        0 min,  0.466 sec
 * total energy  :  -208.5244195 Eh     change       -0.1692873E-03 Eh
   gradient norm :     0.0022657 Eh/α   predicted    -0.1092752E-03 ( -35.45%)
   displ. norm   :     0.3007360 α      lambda       -0.1587898E-03
   maximum displ.:     0.2214158 α      in ANC's #8, #22, #10, ...

........................................................................
.............................. CYCLE   30 ..............................
........................................................................
   1   -211.7738548 -0.211774E+03  0.208E-03    1.03       0.0  T
   2   -211.7738550 -0.238957E-06  0.986E-04    1.03       9.2  T
   3   -211.7738551 -0.127179E-06  0.534E-04    1.03      17.0  T
   4   -211.7738552 -0.587780E-07  0.357E-04    1.03      25.4  T
   5   -211.7738552 -0.333397E-07  0.559E-05    1.03     161.9  T
   6   -211.7738552 -0.159105E-09  0.179E-05    1.03     505.1  T
     SCC iter.                  ...        0 min,  0.342 sec
     gradient                   ...        0 min,  0.467 sec
 * total energy  :  -208.5245535 Eh     change       -0.1340812E-03 Eh
   gradient norm :     0.0024020 Eh/α   predicted    -0.8657648E-04 ( -35.43%)
   displ. norm   :     0.2621770 α      lambda       -0.1189084E-03
   maximum displ.:     0.1929007 α      in ANC's #8, #22, #18, ...

........................................................................
.............................. CYCLE   31 ..............................
........................................................................
   1   -211.7736599 -0.211774E+03  0.148E-03    1.03       0.0  T
   2   -211.7736600 -0.108856E-06  0.727E-04    1.03      12.5  T
   3   -211.7736601 -0.710203E-07  0.419E-04    1.03      21.6  T
   4   -211.7736601 -0.388188E-07  0.268E-04    1.03      33.8  T
   5   -211.7736601 -0.176219E-07  0.414E-05    1.03     218.8  T
   6   -211.7736601 -0.109253E-09  0.163E-05    1.03     556.4  T
     SCC iter.                  ...        0 min,  0.339 sec
     gradient                   ...        0 min,  0.467 sec
 * total energy  :  -208.5246525 Eh     change       -0.9891492E-04 Eh
   gradient norm :     0.0027302 Eh/α   predicted    -0.6354161E-04 ( -35.76%)
   displ. norm   :     0.2167594 α      lambda       -0.8696787E-04
   maximum displ.:     0.1608215 α      in ANC's #8, #22, #18, ...

........................................................................
.............................. CYCLE   32 ..............................
........................................................................
   1   -211.7733882 -0.211773E+03  0.120E-03    1.03       0.0  T
   2   -211.7733883 -0.989129E-07  0.605E-04    1.03      15.0  T
   3   -211.7733884 -0.459865E-07  0.324E-04    1.03      27.9  T
   4   -211.7733884 -0.134471E-07  0.219E-04    1.03      41.3  T
   5   -211.7733884 -0.121464E-07  0.538E-05    1.03     168.1  T
   6   -211.7733884 -0.559112E-09  0.197E-05    1.03     458.5  T
     SCC iter.                  ...        0 min,  0.339 sec
     gradient                   ...        0 min,  0.468 sec
 * total energy  :  -208.5247264 Eh     change       -0.7393511E-04 Eh
   gradient norm :     0.0024280 Eh/α   predicted    -0.4552917E-04 ( -38.42%)
   displ. norm   :     0.1802920 α      lambda       -0.6543865E-04
   maximum displ.:     0.1353659 α      in ANC's #8, #18, #5, ...

........................................................................
.............................. CYCLE   33 ..............................
........................................................................
   1   -211.7728184 -0.211773E+03  0.122E-03    1.02       0.0  T
   2   -211.7728185 -0.136550E-06  0.576E-04    1.03      15.7  T
   3   -211.7728185 -0.298996E-07  0.279E-04    1.03      32.4  T
   4   -211.7728185  0.390691E-08  0.206E-04    1.03      43.9  T
   5   -211.7728185 -0.114515E-07  0.661E-05    1.03     137.0  T
   6   -211.7728185 -0.153096E-08  0.190E-05    1.03     477.1  T
     SCC iter.                  ...        0 min,  0.342 sec
     gradient                   ...        0 min,  0.466 sec
 * total energy  :  -208.5247840 Eh     change       -0.5756654E-04 Eh
   gradient norm :     0.0018629 Eh/α   predicted    -0.3378504E-04 ( -41.31%)
   displ. norm   :     0.2423579 α      lambda       -0.5637240E-04
   maximum displ.:     0.1821902 α      in ANC's #8, #5, #18, ...

........................................................................
.............................. CYCLE   34 ..............................
........................................................................
   1   -211.7719588 -0.211772E+03  0.199E-03    1.02       0.0  T
   2   -211.7719592 -0.410701E-06  0.977E-04    1.02       9.3  T
   3   -211.7719592 -0.847259E-07  0.434E-04    1.02      20.8  T
   4   -211.7719592  0.116772E-07  0.300E-04    1.02      30.2  T
   5   -211.7719593 -0.159247E-07  0.119E-04    1.02      75.9  T
   6   -211.7719593 -0.632923E-08  0.326E-05    1.02     277.5  T
     SCC iter.                  ...        0 min,  0.342 sec
     gradient                   ...        0 min,  0.468 sec
 * total energy  :  -208.5248541 Eh     change       -0.7018215E-04 Eh
   gradient norm :     0.0017028 Eh/α   predicted    -0.2892333E-04 ( -58.79%)
   displ. norm   :     0.2006222 α      lambda       -0.4353555E-04
   maximum displ.:     0.1508631 α      in ANC's #8, #5, #18, ...

........................................................................
.............................. CYCLE   35 ..............................
........................................................................
   1   -211.7708669 -0.211771E+03  0.168E-03    1.02       0.0  T
   2   -211.7708672 -0.307711E-06  0.887E-04    1.02      10.2  T
   3   -211.7708673 -0.667973E-07  0.402E-04    1.02      22.5  T
   4   -211.7708673  0.168831E-07  0.286E-04    1.02      31.7  T
   5   -211.7708673 -0.199010E-07  0.963E-05    1.02      94.0  T
   6   -211.7708673 -0.439954E-08  0.254E-05    1.02     356.3  T
     SCC iter.                  ...        0 min,  0.341 sec
     gradient                   ...        0 min,  0.467 sec
 * total energy  :  -208.5249075 Eh     change       -0.5334748E-04 Eh
   gradient norm :     0.0020030 Eh/α   predicted    -0.2215779E-04 ( -58.47%)
   displ. norm   :     0.1454358 α      lambda       -0.4744629E-04
   maximum displ.:     0.1047458 α      in ANC's #8, #5, #11, ...

........................................................................
.............................. CYCLE   36 ..............................
........................................................................
   1   -211.7705671 -0.211771E+03  0.119E-03    1.02       0.0  T
   2   -211.7705673 -0.149918E-06  0.671E-04    1.02      13.5  T
   3   -211.7705673 -0.449724E-07  0.290E-04    1.02      31.2  T
   4   -211.7705673  0.792949E-08  0.226E-04    1.02      40.1  T
   5   -211.7705673 -0.120428E-07  0.670E-05    1.02     135.1  T
   6   -211.7705673 -0.201314E-08  0.178E-05    1.02     507.5  T
     SCC iter.                  ...        0 min,  0.342 sec
     gradient                   ...        0 min,  0.466 sec
 * total energy  :  -208.5249480 Eh     change       -0.4055653E-04 Eh
   gradient norm :     0.0015402 Eh/α   predicted    -0.2422714E-04 ( -40.26%)
   displ. norm   :     0.2814626 α      lambda       -0.5297332E-04
   maximum displ.:     0.1977954 α      in ANC's #8, #5, #11, ...

........................................................................
.............................. CYCLE   37 ..............................
........................................................................
   1   -211.7698944 -0.211770E+03  0.201E-03    1.02       0.0  T
   2   -211.7698948 -0.395463E-06  0.110E-03    1.02       8.2  T
   3   -211.7698949 -0.135371E-06  0.482E-04    1.02      18.8  T
   4   -211.7698949  0.159638E-07  0.387E-04    1.02      23.4  T
   5   -211.7698950 -0.393926E-07  0.101E-04    1.02      89.9  T
   6   -211.7698950 -0.389736E-08  0.284E-05    1.02     319.1  T
     SCC iter.                  ...        0 min,  0.341 sec
     gradient                   ...        0 min,  0.465 sec
 * total energy  :  -208.5250113 Eh     change       -0.6330108E-04 Eh
   gradient norm :     0.0013341 Eh/α   predicted    -0.2742049E-04 ( -56.68%)
   displ. norm   :     0.2502139 α      lambda       -0.3890732E-04
   maximum displ.:     0.1728627 α      in ANC's #8, #5, #11, ...

........................................................................
.............................. CYCLE   38 ..............................
........................................................................
   1   -211.7696147 -0.211770E+03  0.125E-03    1.02       0.0  T
   2   -211.7696148 -0.114648E-06  0.620E-04    1.02      14.6  T
   3   -211.7696149 -0.548546E-07  0.286E-04    1.02      31.6  T
   4   -211.7696149 -0.103127E-07  0.215E-04    1.02      42.1  T
   5   -211.7696149 -0.114960E-07  0.495E-05    1.02     182.9  T
   6   -211.7696149 -0.621583E-09  0.160E-05    1.02     566.1  T
     SCC iter.                  ...        0 min,  0.341 sec
     gradient                   ...        0 min,  0.463 sec
 * total energy  :  -208.5250569 Eh     change       -0.4556729E-04 Eh
   gradient norm :     0.0012802 Eh/α   predicted    -0.1999842E-04 ( -56.11%)
   displ. norm   :     0.2450241 α      lambda       -0.3399736E-04
   maximum displ.:     0.1660083 α      in ANC's #8, #5, #22, ...

........................................................................
.............................. CYCLE   39 ..............................
........................................................................
   1   -211.7697400 -0.211770E+03  0.967E-04    1.02       0.0  T
   2   -211.7697400 -0.603917E-07  0.440E-04    1.02      20.6  T
   3   -211.7697401 -0.290056E-07  0.220E-04    1.02      41.2  T
   4   -211.7697401 -0.103073E-07  0.155E-04    1.02      58.4  T
   5   -211.7697401 -0.604504E-08  0.426E-05    1.02     212.5  T
     SCC iter.                  ...        0 min,  0.279 sec
     gradient                   ...        0 min,  0.462 sec
 * total energy  :  -208.5250912 Eh     change       -0.3425010E-04 Eh
   gradient norm :     0.0016210 Eh/α   predicted    -0.1745558E-04 ( -49.03%)
   displ. norm   :     0.2128716 α      lambda       -0.2657355E-04
   maximum displ.:     0.1421559 α      in ANC's #8, #5, #22, ...

........................................................................
.............................. CYCLE   40 ..............................
........................................................................
   1   -211.7703563 -0.211770E+03  0.100E-03    1.02       0.0  T
   2   -211.7703564 -0.858941E-07  0.530E-04    1.02      17.1  T
   3   -211.7703564 -0.269403E-07  0.251E-04    1.02      36.1  T
   4   -211.7703564  0.658781E-08  0.209E-04    1.02      43.2  T
   5   -211.7703564 -0.151804E-07  0.498E-05    1.02     181.7  T
   6   -211.7703564 -0.512443E-09  0.126E-05    1.02     717.3  T
     SCC iter.                  ...        0 min,  0.337 sec
     gradient                   ...        0 min,  0.462 sec
 * total energy  :  -208.5251186 Eh     change       -0.2743536E-04 Eh
   gradient norm :     0.0015749 Eh/α   predicted    -0.1355740E-04 ( -50.58%)
   displ. norm   :     0.1484869 α      lambda       -0.1360058E-04
   maximum displ.:     0.0995464 α      in ANC's #8, #5, #24, ...

........................................................................
.............................. CYCLE   41 ..............................
........................................................................
   1   -211.7709457 -0.211771E+03  0.109E-03    1.02       0.0  T
   2   -211.7709458 -0.120574E-06  0.587E-04    1.02      15.4  T
   3   -211.7709458 -0.221012E-07  0.262E-04    1.02      34.5  T
   4   -211.7709458  0.732166E-08  0.179E-04    1.02      50.5  T
   5   -211.7709458 -0.724737E-08  0.633E-05    1.02     143.1  T
     SCC iter.                  ...        0 min,  0.283 sec
     gradient                   ...        0 min,  0.458 sec
 * total energy  :  -208.5251346 Eh     change       -0.1595350E-04 Eh
   gradient norm :     0.0015161 Eh/α   predicted    -0.6868385E-05 ( -56.95%)
   displ. norm   :     0.1475039 α      lambda       -0.1430015E-04
   maximum displ.:     0.0976660 α      in ANC's #8, #5, #24, ...

........................................................................
.............................. CYCLE   42 ..............................
........................................................................
   1   -211.7714208 -0.211771E+03  0.130E-03    1.02       0.0  T
   2   -211.7714209 -0.175760E-06  0.706E-04    1.02      12.8  T
   3   -211.7714210 -0.348774E-07  0.308E-04    1.02      29.4  T
   4   -211.7714210  0.103166E-07  0.221E-04    1.02      41.0  T
   5   -211.7714210 -0.107026E-07  0.728E-05    1.02     124.4  T
   6   -211.7714210 -0.266868E-08  0.180E-05    1.02     503.7  T
     SCC iter.                  ...        0 min,  0.335 sec
     gradient                   ...        0 min,  0.460 sec
 * total energy  :  -208.5251507 Eh     change       -0.1615101E-04 Eh
   gradient norm :     0.0012870 Eh/α   predicted    -0.7221712E-05 ( -55.29%)
   displ. norm   :     0.1449784 α      lambda       -0.1339499E-04
   maximum displ.:     0.0945978 α      in ANC's #8, #5, #1, ...
 * RMSD in coord.:     0.3723240 α      energy gain  -0.2551827E-02 Eh

generating ANC from model Hessian ...
Using Lindh-Hessian (1995)
 Shifting diagonal of input Hessian by    1.0020580194776984E-002
 Lowest  eigenvalues of input Hessian
    0.010000    0.010004    0.010013    0.000000    0.000000    0.000000
    0.000000    0.000000    0.000000    0.010035    0.010059    0.010176
    0.010195    0.010469    0.010599    0.010692    0.010718    0.010802
 Highest eigenvalues
    2.103695    2.145641    2.145658    2.236075    2.659849    2.988682


........................................................................
.............................. CYCLE   43 ..............................
........................................................................
   1   -211.7714219 -0.211771E+03  0.111E-03    1.02       0.0  T
   2   -211.7714220 -0.118934E-06  0.592E-04    1.02      15.3  T
   3   -211.7714221 -0.232354E-07  0.266E-04    1.02      34.0  T
   4   -211.7714221  0.887292E-08  0.205E-04    1.02      44.2  T
   5   -211.7714221 -0.996405E-08  0.628E-05    1.02     144.1  T
   6   -211.7714221 -0.198713E-08  0.146E-05    1.02     619.0  T
     SCC iter.                  ...        0 min,  0.335 sec
     gradient                   ...        0 min,  0.461 sec
 * total energy  :  -208.5251650 Eh     change       -0.1433014E-04 Eh
   gradient norm :     0.0011085 Eh/α   predicted     0.0000000E+00 (-100.00%)
   displ. norm   :     0.0221685 α      lambda       -0.5008468E-05
   maximum displ.:     0.0102562 α      in ANC's #26, #23, #24, ...

........................................................................
.............................. CYCLE   44 ..............................
........................................................................
   1   -211.7709698 -0.211771E+03  0.699E-04    1.02       0.0  T
   2   -211.7709699 -0.478050E-07  0.392E-04    1.02      23.1  T
   3   -211.7709699 -0.141037E-07  0.160E-04    1.02      56.7  T
   4   -211.7709699  0.265354E-08  0.132E-04    1.02      68.7  T
     SCC iter.                  ...        0 min,  0.224 sec
     gradient                   ...        0 min,  0.459 sec
 * total energy  :  -208.5251707 Eh     change       -0.5693129E-05 Eh
   gradient norm :     0.0008319 Eh/α   predicted    -0.2521904E-05 ( -55.70%)
   displ. norm   :     0.0826055 α      lambda       -0.1359472E-04
   maximum displ.:     0.0344297 α      in ANC's #26, #23, #19, ...

........................................................................
.............................. CYCLE   45 ..............................
........................................................................
   1   -211.7696152 -0.211770E+03  0.261E-03    1.02       0.0  T
   2   -211.7696159 -0.684699E-06  0.142E-03    1.02       6.4  T
   3   -211.7696161 -0.182171E-06  0.585E-04    1.02      15.5  T
   4   -211.7696161  0.364895E-07  0.456E-04    1.02      19.9  T
   5   -211.7696161 -0.485441E-07  0.138E-04    1.02      65.6  T
   6   -211.7696161 -0.917098E-08  0.342E-05    1.02     264.9  T
     SCC iter.                  ...        0 min,  0.334 sec
     gradient                   ...        0 min,  0.457 sec
 * total energy  :  -208.5251799 Eh     change       -0.9125546E-05 Eh
   gradient norm :     0.0013253 Eh/α   predicted    -0.6823894E-05 ( -25.22%)
   displ. norm   :     0.0525484 α      lambda       -0.8081508E-05
   maximum displ.:     0.0205357 α      in ANC's #24, #26, #19, ...

........................................................................
.............................. CYCLE   46 ..............................
........................................................................
   1   -211.7694373 -0.211769E+03  0.145E-03    1.02       0.0  T
   2   -211.7694376 -0.219447E-06  0.803E-04    1.02      11.3  T
   3   -211.7694376 -0.484243E-07  0.351E-04    1.02      25.8  T
   4   -211.7694376  0.656689E-08  0.205E-04    1.02      44.2  T
   5   -211.7694376 -0.608389E-08  0.690E-05    1.02     131.3  T
   6   -211.7694376 -0.225052E-08  0.229E-05    1.02     394.8  T
     SCC iter.                  ...        0 min,  0.334 sec
     gradient                   ...        0 min,  0.456 sec
 * total energy  :  -208.5251841 Eh     change       -0.4220514E-05 Eh
   gradient norm :     0.0009397 Eh/α   predicted    -0.4048113E-05 (  -4.08%)
   displ. norm   :     0.0179751 α      lambda       -0.3685817E-05
   maximum displ.:     0.0077713 α      in ANC's #19, #11, #4, ...

   *** GEOMETRY OPTIMIZATION CONVERGED AFTER 46 ITERATIONS ***

------------------------------------------------------------------------
 total energy gain   :        -2.3775616 Eh    -1491.9424 kcal/mol
 total RMSD          :         0.9893317 a0        0.5235 Å
 total power (kW/mol):      -135.7018934 (step) -126.9680 (real)
------------------------------------------------------------------------

 ANCopt (total)                0 d,  0 h,  0 min, 49.164 sec
 optimizer setup                ...        0 min,  0.000 sec (  0.001%)
 model hessian                  ...        0 min,  0.222 sec (  0.452%)
 ANC generation                 ...        0 min,  0.091 sec (  0.185%)
 coordinate transformation      ...        0 min,  0.007 sec (  0.014%)
 single point calculation       ...        0 min, 48.770 sec ( 99.198%)
 optimization log               ...        0 min,  0.032 sec (  0.064%)
 hessian update                 ...        0 min,  0.007 sec (  0.014%)
 rational function              ...        0 min,  0.029 sec (  0.060%)

================
 final structure:
================
122
 xtb: 6.5.1 (b24c23e)
Ni          12.64939172672610       -0.04082912879310       -0.00977600016680
C            9.26114415169758       -0.05670615558067       -0.15277199112716
C            9.91027572196928       -1.26792904055265       -0.02967686438930
C            9.23270537801015       -2.52350345852696        0.07740448663134
C           10.18894865825862       -3.48208082603442        0.07555831732265
C           11.45002436809919       -2.81165726405637       -0.04794704858979
N           11.27006698380472       -1.45058805072761       -0.06765715624919
C           12.66747437369152       -3.46474385638729       -0.19423579358725
C           12.68305952109447       -4.94405879838016       -0.28584829979565
C           12.05007537390104       -5.59500483665425       -1.27332788093680
C           12.04511492053333       -7.09810512307206       -1.37641008639657
N           13.10533277195473       -7.68745811007477       -0.55411131133904
C           13.57860510410855       -7.02510990202246        0.54888234693853
C           13.42977147922583       -5.69849693795466        0.71101233750066
C           13.87537756756770       -2.78256201799697       -0.26638739917990
C           15.13809580048258       -3.42319887522475       -0.47490981322039
C           16.08569324648629       -2.45815698920241       -0.39550666866246
N           14.04653107992858       -1.42611685517456       -0.10250589582252
C           15.39999151415538       -1.23070003612783       -0.14577707724940
C           16.05779140879766       -0.02259976505639        0.10232562459525
C           15.37256908190821        1.17708999663171        0.31606656924940
C           16.02763472848232        2.40997568437592        0.61520968895278
C           15.06597160068040        3.36424207916641        0.64173194518694
C           13.82667086879271        2.71179132764026        0.34796463268174
N           14.02290533420635        1.35818685427548        0.18791619654349
C           12.62014116026366        3.38173142802736        0.19117347803782
C           12.61370293086741        4.86122941699686        0.28537391596045
C           11.90874627274727        5.50390203515325        1.22824193140057
C           11.87859624624943        7.00652713766870        1.33317992166620
N           12.96681540894758        7.61434368645693        0.56246390068982
C           13.52270313153237        6.95448953284906       -0.50226101972795
C           13.41231649463896        5.62399810149911       -0.66343777698445
C           11.42476980641690        2.71804693059474       -0.05436972992142
C           10.17233484296574        3.37798132170327       -0.27998094706671
C            9.22947181785529        2.41074440130507       -0.37289153497456
C            9.90746660205912        1.16061951132753       -0.21565709159470
N           11.25700684036153        1.35531119176695       -0.05896652511893
H            8.17835230069972       -0.06147136232351       -0.20071168726027
H            8.16225725646323       -2.63641998373992        0.14550548037500
H           10.06489838417863       -4.55003256479168        0.15289909597165
H           11.49620945632475       -5.06835524949994       -2.04175130373597
H           12.21248609591225       -7.40681170376751       -2.41705498903622
H           11.06017987805400       -7.49908257731404       -1.07110172985278
H           13.05436204281169       -8.69343298625584       -0.48334639999690
H           14.15468200915394       -7.63755278297113        1.23524269865754
H           13.85362476269995       -5.18342654845221        1.56129535006463
H           15.27153061736547       -4.47682809223233       -0.65827424378361
H           17.15532437162327       -2.55289058403357       -0.49143940585229
H           17.08789554608415        2.51528177110207        0.77977088685173
H           15.17595960902109        4.41804945639068        0.83912382584046
H           11.31047761227974        4.96989191692869        1.95729319893881
H           11.99219757622048        7.31471104598240        2.38140680455168
H           10.90344526939838        7.39422339459153        0.98319425435076
H           12.89759495004441        8.61823991918785        0.47934894509590
H           14.12709624705435        7.57486970028635       -1.15635027100621
H           13.89994042504447        5.11276466373483       -1.48118581038854
H           10.04550464820118        4.44548212301040       -0.35880337724714
H            8.16792158327576        2.51423214650514       -0.53302278258317
Ni          28.64071332925125        0.04118821977437       -0.00189949349636
C           32.02921069374062        0.08505913969750       -0.13360488210856
C           31.38031516842171        1.24204764241547        0.24576230380107
C           32.05825117576833        2.44491839610480        0.62074221631492
C           31.10240677384908        3.38223054284371        0.82332993934962
C           29.84123652490324        2.75484703896514        0.55701246413812
N           30.02067254888640        1.42958354578879        0.24594545186089
C           28.62439639436780        3.42521965086150        0.55248985450257
C           28.60962467537680        4.88968070364169        0.78072153345376
C           29.24433842866544        5.73718735087054       -0.04290351693047
C           29.25022853932817        7.22729254214237        0.17962207150271
N           28.18928093132290        7.62696779805149        1.10816997948655
C           27.71398779616821        6.74330908111917        2.04226897649082
C           27.86178361248452        5.41275056329194        1.91546053540980
C           27.41622819351990        2.77545299004531        0.33421366887122
C           26.15403000722330        3.44676030723071        0.26630638531348
C           25.20593460948776        2.48767874919901        0.13661749068809
N           27.24424827460426        1.41552033903115        0.20365495979393
C           25.89091310838090        1.23484973688176        0.11793428991773
C           25.23220247830876        0.00218495844784        0.10071256556916
C           25.91657850560824       -1.21595191811991        0.05225571543863
C           25.26082326851090       -2.48404905595614        0.07929360593249
C           26.22205196754985       -3.42222112065647       -0.09948768622908
C           27.46192846255431       -2.72264915364206       -0.24498096779994
N           27.26646876954358       -1.36617414212944       -0.11043055588897
C           28.66824095343779       -3.34440122938173       -0.54068227344681
C           28.67377323388475       -4.80968454223616       -0.76603611648710
C           29.37711242157003       -5.64002674585696        0.01810450179026
C           29.40631360913114       -7.13027461804944       -0.20117808189549
N           28.31917398157147       -7.55795103729019       -1.08600062831988
C           27.76517306872443       -6.68482221768272       -1.98528919125344
C           27.87627995713451       -5.35076742660822       -1.85736836218766
C           29.86440820501930       -2.64462011502897       -0.63636893272166
C           31.11687192953362       -3.24154712518986       -0.99686409819420
C           32.06025894190187       -2.27757024573228       -0.87860782207025
C           31.38257889410115       -1.08995576142537       -0.45729517137443
N           30.03273965376671       -1.31284720452534       -0.34783460699521
H           33.11207007251232        0.09940646984183       -0.17797965417085
H           33.12864150647997        2.53978597761030        0.71296943758021
H           31.22665778030865        4.40862064056864        1.12825264318988
H           29.79911542556176        5.38761303866016       -0.90581325664003
H           29.08441822923501        7.75267156486697       -0.77050148508418
H           30.23499734442934        7.55240123785145        0.56514809038678
H           28.24090760387388        8.59408306971129        1.39383412870183
H           27.13728563706395        7.19432317766208        2.84353900715929
H           27.43634249518797        4.72721241384986        2.63446744011073
H           26.02121453390912        4.51532074517531        0.31245164006907
H           24.13644909462682        2.60145418400569        0.06207193842048
H           24.20037815096948       -2.62164921144026        0.21651751891014
H           26.11157677908946       -4.49373784329801       -0.13343094701464
H           29.97452837655893       -5.27507062726247        0.84545092009979
H           29.29064472138655       -7.65569942647118        0.75654412670043
H           30.38188681682403       -7.43492703921760       -0.62444828804880
H           28.38799538731026       -8.52079923625032       -1.38214242637432
H           27.16158084661031       -7.15014913311237       -2.75804116906397
H           27.39009153719250       -4.67584352029124       -2.54725384302612
H           31.24351362660232       -4.26725672938161       -1.30304904385580
H           33.12197977244847       -2.34498795529295       -1.05595115015853
C           21.25892516738470       -0.01917908521032        0.15652749139355
C           20.03093112650079       -0.01429736786133        0.15849501680527
C           18.68568262869691       -0.01375949805762        0.15232762370718
C           17.46241995699097       -0.01454276417245        0.13490733812759
C           22.60418697631041       -0.01767356285850        0.14786246289394
C           23.82758035694988       -0.01056046865941        0.13125339575046

 Bond Distances (Angstroems)
 ---------------------------
Ni1-N7=1.9731        Ni1-N18=1.9697       Ni1-N25=1.9705       Ni1-N37=1.9724       C2-C3=1.3797         C2-C36=1.3797        
C2-H38=1.0839        C3-C2=1.3797         C3-C4=1.4307         C3-N7=1.3725         C4-C3=1.4307         C4-C5=1.3540         
C4-H39=1.0785        C5-C4=1.3540         C5-C6=1.4335         C5-H40=1.0779        C6-C5=1.4335         C6-N7=1.3731         
C6-C8=1.3893         N7-Ni1=1.9731        N7-C3=1.3725         N7-C6=1.3731         C8-C6=1.3893         C8-C9=1.4822         
C8-C15=1.3891        C9-C8=1.4822         C9-C10=1.3415        C9-C14=1.4562        C10-C9=1.3415        C10-C11=1.5066       
C10-H41=1.0838       C11-C10=1.5066       C11-N12=1.4655       C11-H42=1.0983       C11-H43=1.1064       N12-C11=1.4655       
N12-C13=1.3709       N12-H44=1.0097       C13-N12=1.3709       C13-C14=1.3447       C13-H45=1.0854       C14-C9=1.4562        
C14-C13=1.3447       C14-H46=1.0807       C15-C8=1.3891        C15-C16=1.4312       C15-N18=1.3770       C16-C15=1.4312       
C16-C17=1.3548       C16-H47=1.0778       C17-C16=1.3548       C17-C19=1.4280       C17-H48=1.0781       N18-Ni1=1.9697       
N18-C15=1.3770       N18-C19=1.3682       C19-C17=1.4280       C19-N18=1.3682       C19-C20=1.3978       C20-C19=1.3978       
C20-C21=1.3980       C20-C120=1.4050      C21-C20=1.3980       C21-C22=1.4278       C21-N25=1.3678       C22-C21=1.4278       
C22-C23=1.3550       C22-H49=1.0781       C23-C22=1.3550       C23-C24=1.4310       C23-H50=1.0778       C24-C23=1.4310       
C24-N25=1.3771       C24-C26=1.3889       N25-Ni1=1.9705       N25-C21=1.3678       N25-C24=1.3771       C26-C24=1.3889       
C26-C27=1.4825       C26-C33=1.3891       C27-C26=1.4825       C27-C28=1.3413       C27-C32=1.4560       C28-C27=1.3413       
C28-C29=1.5066       C28-H51=1.0838       C29-C28=1.5066       C29-N30=1.4655       C29-H52=1.0985       C29-H53=1.1062       
N30-C29=1.4655       N30-C31=1.3704       N30-H54=1.0097       C31-N30=1.3704       C31-C32=1.3448       C31-H55=1.0854       
C32-C27=1.4560       C32-C31=1.3448       C32-H56=1.0807       C33-C26=1.3891       C33-C34=1.4335       C33-N37=1.3730       
C34-C33=1.4335       C34-C35=1.3539       C34-H57=1.0779       C35-C34=1.3539       C35-C36=1.4308       C35-H58=1.0785       
C36-C2=1.3797        C36-C35=1.4308       C36-N37=1.3725       N37-Ni1=1.9724       N37-C33=1.3730       N37-C36=1.3725       
H38-C2=1.0839        H39-C4=1.0785        H40-C5=1.0779        H41-C10=1.0838       H42-C11=1.0983       H43-C11=1.1064       
H44-N12=1.0097       H45-C13=1.0854       H46-C14=1.0807       H47-C16=1.0778       H48-C17=1.0781       H49-C22=1.0781       
H50-C23=1.0778       H51-C28=1.0838       H52-C29=1.0985       H53-C29=1.1062       H54-N30=1.0097       H55-C31=1.0854       
H56-C32=1.0807       H57-C34=1.0779       H58-C35=1.0785       Ni59-N65=1.9732      Ni59-N76=1.9701      Ni59-N83=1.9700      
Ni59-N95=1.9725      C60-C61=1.3797       C60-C94=1.3797       C60-H96=1.0839       C61-C60=1.3797       C61-C62=1.4308       
C61-N65=1.3725       C62-C61=1.4308       C62-C63=1.3540       C62-H97=1.0785       C63-C62=1.3540       C63-C64=1.4336       
C63-H98=1.0779       C64-C63=1.4336       C64-N65=1.3731       C64-C66=1.3893       N65-Ni59=1.9732      N65-C61=1.3725       
N65-C64=1.3731       C66-C64=1.3893       C66-C67=1.4822       C66-C73=1.3891       C67-C66=1.4822       C67-C68=1.3414       
C67-C72=1.4562       C68-C67=1.3414       C68-C69=1.5066       C68-H99=1.0838       C69-C68=1.5066       C69-N70=1.4655       
C69-H100=1.0983      C69-H101=1.1064      N70-C69=1.4655       N70-C71=1.3709       N70-H102=1.0097      C71-N70=1.3709       
C71-C72=1.3447       C71-H103=1.0854      C72-C67=1.4562       C72-C71=1.3447       C72-H104=1.0807      C73-C66=1.3891       
C73-C74=1.4312       C73-N76=1.3770       C74-C73=1.4312       C74-C75=1.3548       C74-H105=1.0778      C75-C74=1.3548       
C75-C77=1.4280       C75-H106=1.0781      N76-Ni59=1.9701      N76-C73=1.3770       N76-C77=1.3680       C77-C75=1.4280       
C77-N76=1.3680       C77-C78=1.3977       C78-C77=1.3977       C78-C79=1.3981       C78-C122=1.4050      C79-C78=1.3981       
C79-C80=1.4279       C79-N83=1.3679       C80-C79=1.4279       C80-C81=1.3550       C80-H107=1.0781      C81-C80=1.3550       
C81-C82=1.4310       C81-H108=1.0777      C82-C81=1.4310       C82-N83=1.3771       C82-C84=1.3890       N83-Ni59=1.9700      
[...]
   120C    -0.02889 -0.03059   1.103  2.926  0.000
   121C    -0.01859 -0.01932   1.074  2.945  0.000
   122C    -0.02890 -0.03060   1.103  2.926  0.000

Wiberg/Mayer (AO) data.
largest (>0.10) Wiberg bond orders for each atom

 ---------------------------------------------------------------------------
     #   Z sym  total        # sym  WBO       # sym  WBO       # sym  WBO
 ---------------------------------------------------------------------------
     1  28 Ni   3.018 --    37 N    0.664     7 N    0.664    18 N    0.663
                            25 N    0.663
     2   6 C    3.932 --    36 C    1.363     3 C    1.363    38 H    0.970
     3   6 C    3.926 --     2 C    1.363     7 N    1.213     4 C    1.177
     4   6 C    3.959 --     5 C    1.646     3 C    1.177    39 H    0.975
     5   6 C    3.963 --     4 C    1.646     6 C    1.179    40 H    0.973
     6   6 C    3.920 --     8 C    1.322     7 N    1.220     5 C    1.179
     7   7 N    3.400 --     6 C    1.220     3 C    1.213     1 Ni   0.664
     8   6 C    3.940 --    15 C    1.327     6 C    1.322     9 C    1.026
     9   6 C    3.988 --    10 C    1.767    14 C    1.098     8 C    1.026
    10   6 C    3.972 --     9 C    1.767    11 C    1.013    41 H    0.972
    11   6 C    3.961 --    10 C    1.013    42 H    0.976    43 H    0.966
                            12 N    0.949
    12   7 N    3.248 --    13 C    1.161    11 C    0.949    44 H    0.928
                            14 C    0.127
    13   6 C    3.958 --    14 C    1.692    12 N    1.161    45 H    0.971
    14   6 C    3.967 --    13 C    1.692     9 C    1.098    46 H    0.974
                            12 N    0.127
    15   6 C    3.914 --     8 C    1.327    18 N    1.205    16 C    1.186
    16   6 C    3.959 --    17 C    1.634    15 C    1.186    47 H    0.972
    17   6 C    3.961 --    16 C    1.634    19 C    1.192    48 H    0.973
    18   7 N    3.406 --    19 C    1.237    15 C    1.205     1 Ni   0.663
    19   6 C    3.904 --    20 C    1.263    18 N    1.237    17 C    1.192
    20   6 C    3.943 --    19 C    1.263    21 C    1.262   120 C    1.185
    21   6 C    3.904 --    20 C    1.262    25 N    1.238    22 C    1.193
    22   6 C    3.961 --    23 C    1.634    21 C    1.193    49 H    0.973
    23   6 C    3.959 --    22 C    1.634    24 C    1.186    50 H    0.972
    24   6 C    3.914 --    26 C    1.327    25 N    1.205    23 C    1.186
    25   7 N    3.406 --    21 C    1.238    24 C    1.205     1 Ni   0.663
    26   6 C    3.940 --    24 C    1.327    33 C    1.322    27 C    1.025
    27   6 C    3.988 --    28 C    1.768    32 C    1.098    26 C    1.025
    28   6 C    3.973 --    27 C    1.768    29 C    1.013    51 H    0.972
    29   6 C    3.961 --    28 C    1.013    52 H    0.976    53 H    0.966
                            30 N    0.949
    30   7 N    3.249 --    31 C    1.162    29 C    0.949    54 H    0.928
                            32 C    0.128
    31   6 C    3.958 --    32 C    1.691    30 N    1.162    55 H    0.971
    32   6 C    3.968 --    31 C    1.691    27 C    1.098    56 H    0.974
                            30 N    0.128
    33   6 C    3.920 --    26 C    1.322    37 N    1.220    34 C    1.179
    34   6 C    3.963 --    35 C    1.646    33 C    1.179    57 H    0.973
    35   6 C    3.960 --    34 C    1.646    36 C    1.177    58 H    0.975
    36   6 C    3.926 --     2 C    1.363    37 N    1.213    35 C    1.177
    37   7 N    3.400 --    33 C    1.220    36 C    1.213     1 Ni   0.664
    38   1 H    1.001 --     2 C    0.970
    39   1 H    0.998 --     4 C    0.975
    40   1 H    1.007 --     5 C    0.973
    41   1 H    1.003 --    10 C    0.972
    42   1 H    1.019 --    11 C    0.976
    43   1 H    1.008 --    11 C    0.966
    44   1 H    0.964 --    12 N    0.928
    45   1 H    1.001 --    13 C    0.971
    46   1 H    1.003 --    14 C    0.974
    47   1 H    1.005 --    16 C    0.972
    48   1 H    1.002 --    17 C    0.973
    49   1 H    1.002 --    22 C    0.973
    50   1 H    1.005 --    23 C    0.972
    51   1 H    1.003 --    28 C    0.972
    52   1 H    1.019 --    29 C    0.976
    53   1 H    1.008 --    29 C    0.966
    54   1 H    0.963 --    30 N    0.928
    55   1 H    1.001 --    31 C    0.971
    56   1 H    1.003 --    32 C    0.974
    57   1 H    1.007 --    34 C    0.973
    58   1 H    0.998 --    35 C    0.975
    59  28 Ni   3.018 --    95 N    0.664    65 N    0.664    83 N    0.663
                            76 N    0.663
    60   6 C    3.932 --    94 C    1.363    61 C    1.363    96 H    0.970
    61   6 C    3.926 --    60 C    1.363    65 N    1.213    62 C    1.177
    62   6 C    3.959 --    63 C    1.646    61 C    1.177    97 H    0.975
    63   6 C    3.963 --    62 C    1.646    64 C    1.179    98 H    0.973
    64   6 C    3.920 --    66 C    1.322    65 N    1.220    63 C    1.179
    65   7 N    3.400 --    64 C    1.220    61 C    1.213    59 Ni   0.664
    66   6 C    3.940 --    73 C    1.327    64 C    1.322    67 C    1.026
    67   6 C    3.988 --    68 C    1.767    72 C    1.098    66 C    1.026
    68   6 C    3.972 --    67 C    1.767    69 C    1.013    99 H    0.972
    69   6 C    3.961 --    68 C    1.013   100 H    0.976   101 H    0.966
                            70 N    0.949
    70   7 N    3.248 --    71 C    1.161    69 C    0.949   102 H    0.928
                            72 C    0.127
    71   6 C    3.958 --    72 C    1.692    70 N    1.161   103 H    0.971
    72   6 C    3.967 --    71 C    1.692    67 C    1.098   104 H    0.974
                            70 N    0.127
    73   6 C    3.914 --    66 C    1.327    76 N    1.205    74 C    1.186
    74   6 C    3.959 --    75 C    1.634    73 C    1.186   105 H    0.972
    75   6 C    3.961 --    74 C    1.634    77 C    1.192   106 H    0.973
    76   7 N    3.406 --    77 C    1.238    73 C    1.205    59 Ni   0.663
    77   6 C    3.904 --    78 C    1.262    76 N    1.238    75 C    1.192
    78   6 C    3.943 --    77 C    1.262    79 C    1.262   122 C    1.185
    79   6 C    3.904 --    78 C    1.262    83 N    1.238    80 C    1.193
    80   6 C    3.961 --    81 C    1.634    79 C    1.193   107 H    0.973
    81   6 C    3.959 --    80 C    1.634    82 C    1.186   108 H    0.972
    82   6 C    3.914 --    84 C    1.327    83 N    1.205    81 C    1.186
    83   7 N    3.406 --    79 C    1.238    82 C    1.205    59 Ni   0.663
    84   6 C    3.940 --    82 C    1.327    91 C    1.322    85 C    1.025
    85   6 C    3.988 --    86 C    1.768    90 C    1.098    84 C    1.025
    86   6 C    3.973 --    85 C    1.768    87 C    1.013   109 H    0.972
    87   6 C    3.961 --    86 C    1.013   110 H    0.976   111 H    0.967
                            88 N    0.949
    88   7 N    3.249 --    89 C    1.162    87 C    0.949   112 H    0.928
                            90 C    0.128
    89   6 C    3.958 --    90 C    1.691    88 N    1.162   113 H    0.971
    90   6 C    3.968 --    89 C    1.691    85 C    1.098   114 H    0.974
                            88 N    0.128
    91   6 C    3.920 --    84 C    1.322    95 N    1.220    92 C    1.179
    92   6 C    3.963 --    93 C    1.646    91 C    1.179   115 H    0.973
    93   6 C    3.960 --    92 C    1.646    94 C    1.177   116 H    0.975
    94   6 C    3.926 --    60 C    1.363    95 N    1.213    93 C    1.177
    95   7 N    3.400 --    91 C    1.220    94 C    1.213    59 Ni   0.664
    96   1 H    1.001 --    60 C    0.970
    97   1 H    0.998 --    62 C    0.975
    98   1 H    1.007 --    63 C    0.973
    99   1 H    1.003 --    68 C    0.972
   100   1 H    1.019 --    69 C    0.976
   101   1 H    1.008 --    69 C    0.966
   102   1 H    0.964 --    70 N    0.928
   103   1 H    1.001 --    71 C    0.971
   104   1 H    1.003 --    72 C    0.974
   105   1 H    1.005 --    74 C    0.972
   106   1 H    1.002 --    75 C    0.973
   107   1 H    1.002 --    80 C    0.973
   108   1 H    1.005 --    81 C    0.972
   109   1 H    1.003 --    86 C    0.972
   110   1 H    1.019 --    87 C    0.976
   111   1 H    1.008 --    87 C    0.967
   112   1 H    0.963 --    88 N    0.928
   113   1 H    1.001 --    89 C    0.971
   114   1 H    1.003 --    90 C    0.974
   115   1 H    1.007 --    92 C    0.973
   116   1 H    0.998 --    93 C    0.975
   117   6 C    3.928 --   118 C    2.375   121 C    1.331   120 C    0.191
   118   6 C    3.928 --   117 C    2.375   119 C    1.331   122 C    0.191
   119   6 C    3.937 --   120 C    2.456   118 C    1.331
   120   6 C    3.892 --   119 C    2.456    20 C    1.185   117 C    0.191
   121   6 C    3.937 --   122 C    2.456   117 C    1.331
   122   6 C    3.892 --   121 C    2.456    78 C    1.185   118 C    0.191
 ---------------------------------------------------------------------------

Topologies differ in total number of bonds
Writing topology from bond orders to xtbtopo.mol

 dipole moment from electron density (au)
     X       Y       Z   
   0.0002   0.0058  -0.0630  total (Debye):    0.161

           -------------------------------------------------
          |                Geometry Summary                 |
           -------------------------------------------------

      molecular mass/u    :     1120.5092136
   center of mass at/Å    :       20.6450745      -0.0008070       0.0051367
  moments of inertia/u·Å² :        0.1727193E+05   0.7103764E+05   0.8769569E+05
rotational constants/cm⁻¹ :        0.9760130E-03   0.2373056E-03   0.1922287E-03

 * 117 selected distances

     #   Z          #   Z                                           value/Å
     2   6 C        3   6 C                                       1.3797048
     3   6 C        4   6 C                                       1.4307465
     4   6 C        5   6 C                                       1.3539851
     5   6 C        6   6 C                                       1.4335389
     3   6 C        7   7 N                                       1.3725303
     6   6 C        7   7 N                                       1.3730560
     6   6 C        8   6 C                                       1.3892830
     9   6 C       10   6 C                                       1.3414604
    11   6 C       12   7 N                                       1.4654605
    12   7 N       13   6 C                                       1.3708710
    13   6 C       14   6 C                                       1.3447453
     8   6 C       15   6 C                                       1.3891035
    15   6 C       16   6 C                                       1.4312075
    16   6 C       17   6 C                                       1.3548254
    15   6 C       18   7 N                                       1.3769875
    17   6 C       19   6 C                                       1.4280065
    18   7 N       19   6 C                                       1.3681797
    19   6 C       20   6 C                                       1.3977705
    20   6 C       21   6 C                                       1.3980239
    21   6 C       22   6 C                                       1.4277973
    22   6 C       23   6 C                                       1.3550366
    23   6 C       24   6 C                                       1.4310339
    21   6 C       25   7 N                                       1.3677760
    24   6 C       25   7 N                                       1.3770871
    24   6 C       26   6 C                                       1.3889267
    27   6 C       28   6 C                                       1.3412652
    29   6 C       30   7 N                                       1.4654916
    30   7 N       31   6 C                                       1.3704226
    31   6 C       32   6 C                                       1.3447568
    26   6 C       33   6 C                                       1.3891298
    33   6 C       34   6 C                                       1.4335297
    34   6 C       35   6 C                                       1.3539463
     2   6 C       36   6 C                                       1.3796990
    35   6 C       36   6 C                                       1.4308082
    33   6 C       37   7 N                                       1.3730312
    36   6 C       37   7 N                                       1.3724853
     2   6 C       38   1 H                                       1.0838632
     4   6 C       39   1 H                                       1.0785394
     5   6 C       40   1 H                                       1.0779106
    10   6 C       41   1 H                                       1.0837906
    11   6 C       42   1 H                                       1.0982964
    11   6 C       43   1 H                                       1.1063875
    12   7 N       44   1 H                                       1.0097482
    13   6 C       45   1 H                                       1.0853763
    14   6 C       46   1 H                                       1.0807083
    16   6 C       47   1 H                                       1.0777579
    17   6 C       48   1 H                                       1.0780948
    22   6 C       49   1 H                                       1.0781108
    23   6 C       50   1 H                                       1.0777621
    28   6 C       51   1 H                                       1.0837934
    29   6 C       52   1 H                                       1.0984819
    29   6 C       53   1 H                                       1.1062179
    30   7 N       54   1 H                                       1.0097066 (min)
    31   6 C       55   1 H                                       1.0853550
    32   6 C       56   1 H                                       1.0806705
    34   6 C       57   1 H                                       1.0778947
    35   6 C       58   1 H                                       1.0785364
    60   6 C       61   6 C                                       1.3797129
    61   6 C       62   6 C                                       1.4307710
    62   6 C       63   6 C                                       1.3539700
    63   6 C       64   6 C                                       1.4335571
    61   6 C       65   7 N                                       1.3725153
    64   6 C       65   7 N                                       1.3730563
    64   6 C       66   6 C                                       1.3892876
    67   6 C       68   6 C                                       1.3414498
    69   6 C       70   7 N                                       1.4654527
    70   7 N       71   6 C                                       1.3708747
    71   6 C       72   6 C                                       1.3447343
    66   6 C       73   6 C                                       1.3890687
    73   6 C       74   6 C                                       1.4312266
    74   6 C       75   6 C                                       1.3548217
    73   6 C       76   7 N                                       1.3769676
    75   6 C       77   6 C                                       1.4279795
    76   7 N       77   6 C                                       1.3680301
    77   6 C       78   6 C                                       1.3977336
    78   6 C       79   6 C                                       1.3980617
    79   6 C       80   6 C                                       1.4278714
    80   6 C       81   6 C                                       1.3550242
    81   6 C       82   6 C                                       1.4310358
    79   6 C       83   7 N                                       1.3679319
    82   6 C       83   7 N                                       1.3770741
    82   6 C       84   6 C                                       1.3889583
    85   6 C       86   6 C                                       1.3412796
    87   6 C       88   7 N                                       1.4655003 (max)
    88   7 N       89   6 C                                       1.3703982
    89   6 C       90   6 C                                       1.3447717
    84   6 C       91   6 C                                       1.3891242
    91   6 C       92   6 C                                       1.4335077
    92   6 C       93   6 C                                       1.3539628
    60   6 C       94   6 C                                       1.3796987
    93   6 C       94   6 C                                       1.4307981
    91   6 C       95   7 N                                       1.3730284
    94   6 C       95   7 N                                       1.3724899
    60   6 C       96   1 H                                       1.0838633
    62   6 C       97   1 H                                       1.0785367
    63   6 C       98   1 H                                       1.0779114
    68   6 C       99   1 H                                       1.0837865
    69   6 C      100   1 H                                       1.0982947
    69   6 C      101   1 H                                       1.1063886
    70   7 N      102   1 H                                       1.0097433
    71   6 C      103   1 H                                       1.0853723
    72   6 C      104   1 H                                       1.0807099
    74   6 C      105   1 H                                       1.0777713
    75   6 C      106   1 H                                       1.0781008
    80   6 C      107   1 H                                       1.0781040
    81   6 C      108   1 H                                       1.0777315
    86   6 C      109   1 H                                       1.0837902
    87   6 C      110   1 H                                       1.0984910
    87   6 C      111   1 H                                       1.1062161
    88   7 N      112   1 H                                       1.0097095
    89   6 C      113   1 H                                       1.0853564
    90   6 C      114   1 H                                       1.0806682
    92   6 C      115   1 H                                       1.0778997
    93   6 C      116   1 H                                       1.0785394
   117   6 C      118   6 C                                       1.2280054
   119   6 C      120   6 C                                       1.2233871
   121   6 C      122   6 C                                       1.2235269

 * 4 distinct bonds (by element types)

   Z      Z             #   av. dist./Å        max./Å        min./Å
   1 H    6 C          38     1.0851337     1.1063886     1.0777315
   6 C    6 C          51     1.3798364     1.4335571     1.2233871
   1 H    7 N           4     1.0097269     1.0097482     1.0097066
   6 C    7 N          24     1.3877791     1.4655003     1.3677760


optimized geometry written to: xtbopt.xyz


           -------------------------------------------------
          | TOTAL ENERGY             -208.525184076074 Eh   |
          | GRADIENT NORM               0.000939657538 Eh/α |
          | HOMO-LUMO GAP               1.017072338879 eV   |
           -------------------------------------------------

------------------------------------------------------------------------
 * finished run on 2022/07/30 at 03:31:36.361     
------------------------------------------------------------------------
 total:
 * wall-time:     0 d,  0 h,  0 min, 52.865 sec
 *  cpu-time:     0 d,  0 h,  0 min, 52.445 sec
 * ratio c/w:     0.992 speedup
 SCF:
 * wall-time:     0 d,  0 h,  0 min,  2.646 sec
 *  cpu-time:     0 d,  0 h,  0 min,  2.626 sec
 * ratio c/w:     0.992 speedup
 ANC optimizer:
 * wall-time:     0 d,  0 h,  0 min, 50.006 sec
 *  cpu-time:     0 d,  0 h,  0 min, 49.625 sec
 * ratio c/w:     0.992 speedup

