122
 energy: -206.147622489021 gnorm: 6.982554369342 xtb: 6.5.1 (b24c23e)
Ni          13.06569700000000        0.03077200000000       -0.00149800000000
C            9.73115400000000       -0.09539300000000       -0.04315600000000
C           10.39204600000000       -1.25679300000000       -0.04238900000000
C            9.74016100000000       -2.55947400000000        0.00800800000000
C           10.67885500000000       -3.48636400000000       -0.04684700000000
C           11.98374000000000       -2.81835600000000       -0.14610000000000
N           11.80814100000000       -1.40097000000000       -0.13172200000000
C           13.17417800000000       -3.44456200000000       -0.26096300000000
C           13.22542100000000       -4.92521100000000       -0.31024300000000
C           12.75471900000000       -5.58586500000000       -1.37905600000000
C           12.74385900000000       -7.09150500000000       -1.45324800000000
N           13.54752000000000       -7.70896700000000       -0.39512200000000
C           13.99427300000000       -6.98068400000000        0.75320600000000
C           13.84509000000000       -5.65933400000000        0.80983700000000
C           14.46456900000000       -2.71001800000000       -0.33815100000000
C           15.74484900000000       -3.33955100000000       -0.68562600000000
C           16.67935400000000       -2.41208300000000       -0.62534700000000
N           14.61033900000000       -1.44691200000000       -0.07890200000000
C           16.00335500000000       -1.17988100000000       -0.23953600000000
C           16.59936600000000       -0.00020200000000        0.00005600000000
C           15.83534300000000        1.20907800000000        0.37539500000000
C           16.35947600000000        2.27068500000000        0.97532500000000
C           15.31736700000000        3.27653500000000        1.05865200000000
C           14.22743600000000        2.76279700000000        0.49889800000000
N           14.46558200000000        1.43095400000000        0.04133600000000
C           12.95631100000000        3.50355600000000        0.29828500000000
C           12.99553100000000        4.98745000000000        0.30361600000000
C           12.31886400000000        5.68588800000000        1.23063000000000
C           12.29443500000000        7.19294500000000        1.24190800000000
N           13.30122400000000        7.77607000000000        0.35131800000000
C           13.97750700000000        7.00767900000000       -0.64973900000000
C           13.83894700000000        5.68435000000000       -0.68763100000000
C           11.79496700000000        2.85516000000000        0.08473300000000
C           10.49352800000000        3.46815200000000       -0.17673200000000
C            9.63022100000000        2.47390100000000       -0.26112300000000
C           10.37212100000000        1.22896700000000       -0.06902500000000
N           11.63413300000000        1.43904300000000        0.13324700000000
H            8.64792800000000       -0.12038400000000       -0.02834200000000
H            8.67726500000000       -2.75050400000000        0.08113300000000
H           10.48952400000000       -4.55110700000000       -0.02404500000000
H           12.30769100000000       -5.03579000000000       -2.19929600000000
H           13.14116100000000       -7.40759300000000       -2.44150400000000
H           11.69534100000000       -7.44554100000000       -1.36464900000000
H           13.69833500000000       -8.74186100000000       -0.42187800000000
H           14.47601600000000       -7.50549400000000        1.56873300000000
H           14.20428700000000       -5.11731300000000        1.67688100000000
H           15.91225100000000       -4.37617100000000       -0.94777000000000
H           17.73050200000000       -2.56714200000000       -0.82668000000000
H           17.38090600000000        2.38420600000000        1.31362900000000
H           15.42135600000000        4.27176300000000        1.47179500000000
H           11.71925400000000        5.16380100000000        1.96727600000000
H           12.47938500000000        7.54633200000000        2.27800100000000
H           11.28677500000000        7.53649500000000        0.92640000000000
H           13.44390200000000        8.80987400000000        0.36747800000000
H           14.61832500000000        7.50481600000000       -1.36726200000000
H           14.36737700000000        5.11370400000000       -1.44190800000000
H           10.25537900000000        4.51801300000000       -0.28440000000000
H            8.56779700000000        2.57630300000000       -0.44264800000000
Ni          28.22453399999999       -0.03012100000000       -0.00811000000000
C           31.55907700000000        0.10204500000000       -0.02171700000000
C           30.89818600000000        1.23621100000000        0.22831500000000
C           31.55007000000000        2.49771400000000        0.55714500000000
C           30.61137600000000        3.41477500000000        0.70251600000000
C           29.30649100000000        2.78364000000000        0.46219500000000
N           29.48209000000000        1.39620300000000        0.17201000000000
C           28.11605399999999        3.41990500000000        0.48441800000000
C           28.06481100000000        4.87662200000000        0.75409300000000
C           28.53551300000000        5.75128900000000       -0.14800700000000
C           28.54637300000000        7.23776200000000        0.10270100000000
N           27.74271200000000        7.61371700000000        1.26869800000000
C           27.29595800000000        6.65593100000000        2.23394300000000
C           27.44514100000000        5.35322200000000        2.00564000000000
C           26.82566300000000        2.71904800000000        0.25136700000000
C           25.54538300000000        3.40849200000000        0.04711300000000
C           24.61087800000000        2.48970100000000       -0.09308500000000
N           26.67989300000000        1.42973600000000        0.23346000000000
C           25.28687700000000        1.20340800000000        0.01925400000000
C           24.69086600000000       -0.00020200000000        0.00005600000000
C           25.45488900000000       -1.26186100000000        0.10708700000000
C           24.93075600000000       -2.42749400000000        0.46517100000000
C           25.97286500000000       -3.42778700000000        0.33066000000000
C           27.06279600000000       -2.80587700000000       -0.10577800000000
N           26.82464900000000       -1.40686300000000       -0.26681000000000
C           28.33392100000000       -3.48631100000000       -0.46071300000000
C           28.29470100000000       -4.93676500000000       -0.77400900000000
C           28.97136700000000       -5.81789900000000       -0.01851300000000
C           28.99579600000000       -7.29225200000000       -0.33097300000000
N           27.98900800000000       -7.67063000000000       -1.32596800000000
C           27.31272500000000       -6.70528000000000       -2.13876700000000
C           27.45128500000000       -5.40466100000000       -1.89173600000000
C           29.49526500000000       -2.80719100000000       -0.53011600000000
C           30.79670300000000       -3.34977500000000       -0.91705900000000
C           31.66001000000000       -2.36058200000000       -0.78607800000000
C           30.91811100000000       -1.18589600000000       -0.33124300000000
N           29.65609900000000       -1.43449200000000       -0.17877700000000
H           32.64230400000000        0.12327400000000       -0.00188500000000
H           32.61296700000000        2.66859600000000        0.66956900000000
H           30.80070800000000        4.44980800000000        0.95332300000000
H           28.98254100000000        5.39009100000000       -1.06719700000000
H           28.14907100000000        7.75860300000000       -0.79467700000000
H           29.59489100000000        7.56453000000000        0.26522600000000
H           27.59189700000000        8.62828000000000        1.46426600000000
H           26.81421600000000        6.99346400000000        3.14310800000000
H           27.08594500000000        4.63773100000000        2.73613700000000
H           25.37798100000000        4.47721700000000        0.01357900000000
H           23.55973000000000        2.68436100000000       -0.25644300000000
H           23.90932600000000       -2.61098300000000        0.77122400000000
H           25.86887600000000       -4.48849600000000        0.52055900000000
H           29.57097800000000       -5.46609400000000        0.81302500000000
H           28.81084600000000       -7.85978900000000        0.60512100000000
H           30.00345600000000       -7.56007400000000       -0.71286700000000
H           27.84633000000000       -8.68380700000000       -1.53208100000000
H           26.67190700000000       -7.03682200000000       -2.94627200000000
H           26.92285500000000       -4.68541700000000       -2.50595000000000
H           31.03485299999999       -4.35205700000000       -1.24756000000000
H           32.72243500000000       -2.42163500000000       -0.98535100000000
C           21.24903600000000        0.00110900000000        0.00848800000000
C           20.04009700000000       -0.01234600000000        0.00004100000000
C           18.61856800000000       -0.00352700000000       -0.01194200000000
C           17.40689800000000        0.00391200000000       -0.00107900000000
C           22.66564000000000       -0.00556600000000        0.00902100000000
C           23.88633600000000        0.00391200000000       -0.00107900000000
122
 energy: -208.080516167803 gnorm: 0.915893441085 xtb: 6.5.1 (b24c23e)
Ni          13.06733876238308        0.03042039323341       -0.00146739279910
C            9.73133544952620       -0.09060378365880       -0.04329419531948
C           10.39484049631940       -1.25835371248935       -0.04237217697500
C            9.73940753646419       -2.55773579232361        0.00805338514002
C           10.68112133461913       -3.48721199854851       -0.04699354609821
C           11.98239931702647       -2.81595204769836       -0.14578374229337
N           11.80477699734611       -1.40353516977580       -0.13171371433282
C           13.17838208837887       -3.44383641947944       -0.26106383032601
C           13.22608462684650       -4.92547324876613       -0.30990127137798
C           12.75479861199507       -5.58586977551913       -1.37817584280330
C           12.74397352710905       -7.09185281727154       -1.45323938188928
N           13.54931208295067       -7.70931797109392       -0.39239154780010
C           13.99301462314879       -6.98255519311720        0.75017759252897
C           13.84470867747564       -5.65785066113446        0.80916968196728
C           14.46219274532281       -2.71603683379676       -0.33874444882646
C           15.74095712104576       -3.34220200969381       -0.68536381617241
C           16.68004201802257       -2.40803743259015       -0.62455212682099
N           14.61054967512982       -1.44492025731450       -0.07952051481428
C           15.98398571184216       -1.19087318016989       -0.24168637648992
C           16.41051840934088        0.00267984150645        0.00210542259598
C           15.81916115762618        1.21047035413812        0.37433650271714
C           16.35976435360725        2.27557674456935        0.97702594525545
C           15.32293720602715        3.27685810031646        1.06003326282673
C           14.22285088768530        2.76070530562755        0.49606409982259
N           14.46476980414621        1.43258462378078        0.04329166656423
C           12.95955458987240        3.50242790358529        0.29836431890883
C           12.99642101694850        4.98731881695053        0.30343785346490
C           12.31912045399191        5.68574678971154        1.22968098514349
C           12.29460284639706        7.19325335792725        1.24191577095784
N           13.30353525856541        7.77629137524814        0.34898288261222
C           13.97558771687931        7.00961154181672       -0.64710175828211
C           13.83838635053283        5.68287472110678       -0.68700015702592
C           11.79406633625911        2.85460958554825        0.08451793329237
C           10.49586605829463        3.46893779845365       -0.17639135958432
C            9.62832942293683        2.47114025821163       -0.26110823578334
C           10.36711375865804        1.22598414221737       -0.06926929961587
N           11.63689173281520        1.44050453534827        0.13288160875154
H            8.64795828990504       -0.12004520626674       -0.02845419614062
H            8.67730167773415       -2.74981045339112        0.08113233395331
H           10.49033746894329       -4.55113769352642       -0.02408709669661
H           12.30775335865505       -5.03617313212338       -2.19943443932900
H           13.14084872697234       -7.40767582379155       -2.44089196247325
H           11.69561867898069       -7.44562713555747       -1.36498564130690
H           13.69778514288443       -8.73914574272567       -0.42176862784874
H           14.47581559459208       -7.50629518355443        1.56802718127447
H           14.20412806198676       -5.11710759130337        1.67666555039333
H           15.91159293603516       -4.37628715789944       -0.94767643323009
H           17.73043116288936       -2.56615873141448       -0.82648177430944
H           17.38080983019005        2.38419949602546        1.31369124909364
H           15.42162050477720        4.27156306092957        1.47185194471173
H           11.71927330218374        5.16419271731106        1.96741669383048
H           12.47920317413215        7.54642243148874        2.27737668966114
H           11.28700240948166        7.53657138135909        0.92676857523001
H           13.44338441812665        8.80717570509437        0.36738315627410
H           14.61798555827617        7.50562475911365       -1.36662805130512
H           14.36719591693427        5.11349288410449       -1.44171870084533
H           10.25616170248314        4.51794482606861       -0.28428790447222
H            8.56776561341722        2.57568503251031       -0.44263924174384
Ni          28.22289658593647       -0.02978311195172       -0.00800401419284
C           31.55889692252276        0.09739361488942       -0.02288062756663
C           30.89538889170333        1.23773370312411        0.22866725073374
C           31.55082361005815        2.49600528966438        0.55681586624124
C           30.60910763287739        3.41563477242111        0.70255513357068
C           29.30783029585972        2.78123056595099        0.46198923597712
N           29.48545660766132        1.39870254914111        0.17256627217550
C           28.11185410845492        3.41921834532165        0.48416429010480
C           28.06414739799241        4.87680421394738        0.75448296241081
C           28.53543338122692        5.75110469556325       -0.14714625274242
C           28.54625843980646        7.23809981986467        0.10278410513816
N           27.74091997170651        7.61347390037697        1.27143995947146
C           27.29721637231183        6.65840824415506        2.23138689382817
C           27.44552231946647        5.35191653260992        2.00466981452486
C           26.82802534556072        2.72507875118209        0.25207977598736
C           25.54929767049891        3.41103299998657        0.04794366625747
C           24.61019271534701        2.48554542389587       -0.09317149945159
N           26.67968799690868        1.42792467000195        0.23243340798830
C           25.30634483170903        1.21467518706918        0.01945857718455
C           24.88214160139659       -0.00483344429979        0.00117000328643
C           25.47121693110585       -1.26310715966204        0.10572136326123
C           24.93046024775440       -2.43262122477908        0.46578712047516
C           25.96730455182809       -3.42839830499525        0.33193930219913
C           27.06737229525129       -2.80322844640675       -0.10809282112331
N           26.82546380345767       -1.40887891092537       -0.26525875885465
C           28.33068587828268       -3.48522651625302       -0.46039433809594
C           28.29381056376975       -4.93659818329510       -0.77415522553929
C           28.97111053954767       -5.81755731475336       -0.01940953292083
C           28.99562824136478       -7.29255476595914       -0.33103165187085
N           27.98669667012780       -7.67034492309737       -1.32829623958738
C           27.31464427072224       -6.70773370301154       -2.13660602522683
C           27.45184548820693       -5.40335559745076       -1.89080319147402
C           29.49616151343758       -2.80661066302676       -0.53020737618258
C           30.79436700323280       -3.35061529911217       -0.91689541951824
C           31.66190107552720       -2.35789072451852       -0.78547152596739
C           30.92311824198554       -1.18292743211867       -0.33084071359444
N           29.65334052403065       -1.43583903406728       -0.17944576784660
H           32.64227368716657        0.12296708768902       -0.00206750483186
H           32.61293026017051        2.66791863971924        0.66941948458636
H           30.79989449910625        4.44984702920264        0.95328845458411
H           28.98247866194071        5.39049490514662       -1.06725001520095
H           28.14938327936316        7.75855253863363       -0.79406145109221
H           29.59461332999332        7.56468638556009        0.26491568362939
H           27.59244686250323        8.62560458056826        1.46379002017949
H           26.81441639312969        6.99439803357646        3.14259065008980
H           27.08610389425958        4.63757662383977        2.73588245657790
H           25.37863951213465        4.47731020193918        0.01369499493497
H           23.55980028141452        2.68335507544582       -0.25646131873944
H           23.90941925048046       -2.61098535595165        0.77128439020737
H           25.86861056767553       -4.48831196617340        0.52065762127565
H           29.57095867386468       -5.46650677745487        0.81307829304262
H           28.81102782125667       -7.85974331488219        0.60449183541570
H           30.00322858339001       -7.56022772467226       -0.71252341461351
H           27.84684757840854       -8.68115127978918       -1.53159448393213
H           26.67224645853707       -7.03774799760744       -2.94582645759146
H           26.92303606390081       -4.68525145510473       -2.50571986079954
H           31.03407036183383       -4.35201452382125       -1.24743594036815
H           32.72246629471034       -2.42103338602970       -0.98520982591552
C           21.25497153198380        0.00121913328337        0.00849514817694
C           20.03405569789522       -0.01238822146183       -0.00001699490324
C           18.65913894664532       -0.00292478286951       -0.01179036420266
C           17.59104423258927        0.00843712622662       -0.00208873488868
C           22.62653581133661       -0.00634303237230        0.00934586759202
C           23.69813463255385        0.00121861057022       -0.00307103411367
122
 energy: -208.292799075868 gnorm: 0.536186876085 xtb: 6.5.1 (b24c23e)
Ni          13.07234426275657        0.02445268207911       -0.00164790465785
C            9.73233985176702       -0.07569173701936       -0.04394101506118
C           10.40092498598908       -1.25798862132430       -0.04156102982646
C            9.74035164344836       -2.55109921815201        0.00814135401544
C           10.69031015050762       -3.48748710113542       -0.04745739634233
C           11.98214302087258       -2.80944626648264       -0.14395343270587
N           11.79180922495466       -1.41308769166374       -0.13245840596454
C           13.18855858666672       -3.44415619694564       -0.26033043314323
C           13.23052084911472       -4.92554672079482       -0.30902081481268
C           12.75466703776830       -5.58707332060725       -1.37284775556317
C           12.74607065286401       -7.09384390932953       -1.44962362781535
N           13.55592370804806       -7.70738901872541       -0.38410633617003
C           13.98786337574684       -6.98671099635046        0.73886071989387
C           13.84359933246571       -5.65432257222850        0.80479329268009
C           14.44622714268456       -2.74149683174591       -0.33972271717857
C           15.72582108059320       -3.35456864654835       -0.68350530532485
C           16.66794545391807       -2.40420043131007       -0.62310596260474
N           14.58598203138067       -1.45600712743589       -0.08920385197724
C           15.93471070895896       -1.21463978083391       -0.24927496230510
C           16.34770268427525        0.01862177735610        0.00715151072542
C           15.77011763238016        1.22002025631142        0.37413982797677
C           16.35273154413857        2.29784897174776        0.98050882326099
C           15.33926303177413        3.28113372676441        1.06124660054578
C           14.20976535144759        2.75947471300597        0.48758763413102
N           14.43872268354108        1.44326871707645        0.05724026671673
C           12.97148956870526        3.49704439712949        0.29603121728277
C           13.00358087597453        4.98336648106739        0.30431195960697
C           12.32058007526176        5.68489886470252        1.22338647981121
C           12.29786581020030        7.19423601433014        1.23870269272085
N           13.31163405667142        7.77379805735001        0.34222969730354
C           13.96760738389383        7.01356840144750       -0.63726552756192
C           13.83616577604312        5.67871529562107       -0.68276689502510
C           11.79487961097477        2.85121621277191        0.08289490333477
C           10.50320296518824        3.46549839940798       -0.17484295090160
C            9.62152876431261        2.45995796806641       -0.25965756895396
C           10.35191335032228        1.21727484970964       -0.06871696951296
N           11.64223397184420        1.44333878802095        0.12631445607205
H            8.64870023613841       -0.11497965735451       -0.02977114148934
H            8.67808055889843       -2.74217295345318        0.08108216502814
H           10.49977003714357       -4.55132159268971       -0.02456927270967
H           12.30911193622598       -5.04065625100506       -2.19937377153706
H           13.13896040297610       -7.40918002632405       -2.43565033074279
H           11.69831288526884       -7.44724738510091       -1.36746611819913
H           13.69510711998238       -8.72338786224275       -0.41894240106330
H           14.47227671792345       -7.51348043196866        1.55823673151491
H           14.20240435582046       -5.11556460144622        1.67405798083910
H           15.90492851513455       -4.38189798786464       -0.94737824685519
H           17.72433679429904       -2.55488663196965       -0.82344625084434
H           17.37772717124144        2.38576479188698        1.31426408389361
H           15.42699584236062        4.27225281323740        1.47399825797353
H           11.72059941539091        5.16853762187985        1.96734811616391
H           12.47843848106322        7.54780830670106        2.27197660007894
H           11.28956203839402        7.53792180280518        0.92955514961496
H           13.44133519453923        8.79129249962412        0.36486580543023
H           14.61240220078090        7.51281270950341       -1.35779053849581
H           14.36525325164016        5.11189128289071       -1.43946840307677
H           10.26510501828354        4.51585051690114       -0.28293938695188
H            8.56484892815511        2.56905868936351       -0.44275651514803
Ni          28.21786570419779       -0.02389112890218       -0.00689586178481
C           31.55789154008021        0.08296293089836       -0.02671039363274
C           30.88930198225237        1.23720403334421        0.22938535480451
C           31.54987794445504        2.48950228327927        0.55548041136274
C           30.59991470926283        3.41600262204903        0.70216451831927
C           29.30808787445035        2.77448288104044        0.46238502333446
N           29.49842357129131        1.40819358723852        0.17388777946929
C           28.10167112266969        3.41937542000318        0.48496004000581
C           28.05971666737796        4.87668906853882        0.75536339328262
C           28.53556630150378        5.75113623423176       -0.14168157194720
C           28.54416126435765        7.23926777695319        0.10674532396256
N           27.73430803110383        7.60980988123816        1.27912080205367
C           27.30236840186499        6.66489523021136        2.22122801508277
C           27.44663137426787        5.34940852240643        1.99964038203749
C           26.84397056366964        2.75018483163541        0.25662125085934
C           25.56442579961930        3.42274718251046        0.05243639740198
C           24.62218744510504        2.48165332837400       -0.09262375078308
N           26.70403269885975        1.44090598385339        0.22534547281806
C           25.35495415400874        1.23969025565588        0.01689088540598
C           24.94307305365389       -0.02037067792542        0.00142466990770
C           25.51983225873037       -1.27225092405816        0.10319490136595
C           24.93741909897891       -2.45514889524314        0.46437272444776
C           25.95094570047649       -3.43280579084448        0.33223411408389
C           27.08045314655583       -2.80017032370157       -0.11609795181087
N           26.85145920087975       -1.42227883588504       -0.25387304383543
C           28.31874219442787       -3.47946167238242       -0.46151122808344
C           28.28664816781009       -4.93292534537757       -0.77244923157555
C           28.96965009719467       -5.81537789210727       -0.02537290270680
C           28.99236520291714       -7.29282488693139       -0.33437755244732
N           27.97859815559326       -7.66646095335073       -1.33435465018791
C           27.32262533123522       -6.71371191105297       -2.12784448635829
C           27.45406658053056       -5.40020273712381       -1.88577344261820
C           29.49534803995354       -2.80294043457821       -0.53106059979945
C           30.78703234876070       -3.34758648403524       -0.91464103521620
C           31.66870196468755       -2.34727903309384       -0.78164954085002
C           30.93831874339802       -1.17453400664209       -0.32842648972736
N           29.64799079896808       -1.43719355707931       -0.18646260520914
H           32.64153116499237        0.11830269315101       -0.00443678508193
H           32.61214895909038        2.66047009861822        0.66773798286123
H           30.79045956499624        4.45013041179542        0.95286113659025
H           28.98112303051195        5.39485875616588       -1.06622528822353
H           28.15127168328793        7.75889451876541       -0.78861649670055
H           29.59191930003930        7.56679968161633        0.26284354734590
H           27.59512460510412        8.60960519944768        1.46317101882199
H           26.81795457147128        7.00351509909165        3.13457357929300
H           27.08782581908128        4.63662666272029        2.73300613535524
H           25.38531482260468        4.48274598121751        0.01519917647015
H           23.56585222127577        2.67177564468120       -0.25594289232933
H           23.91247298964524       -2.61267115006368        0.77150688587843
H           25.86323517954678       -4.48943341505661        0.52261616580755
H           29.56963076326582       -5.47073863507592        0.81208317458084
H           28.81179199340717       -7.85994080629097        0.59892236159364
H           30.00066872794445       -7.56214667487235       -0.71008888776524
H           27.84889659608590       -8.66510001812035       -1.53064243608667
H           26.67783003748801       -7.04666651349915       -2.93873491417866
H           26.92498077826575       -4.68417179991167       -2.50317617962481
H           31.02512745005620       -4.35025683173251       -1.24566683173714
H           32.72538444115446       -2.41453564181733       -0.98389483415238
C           21.22969339932518        0.00104952448172        0.00876441481898
C           20.05914898163767       -0.01230681623096        0.00024067903339
C           18.78998278322595        0.00137476136825       -0.01109213011874
C           17.55954327180773        0.02724256018262       -0.00361535275092
C           22.49951239497256       -0.01197708402240        0.01341411300850
C           23.72960789545044       -0.01751580846312       -0.01032055023479
122
 energy: -208.378949125026 gnorm: 0.357816491721 xtb: 6.5.1 (b24c23e)
Ni          13.07286598749138        0.01321771014343       -0.00493330047498
C            9.73322537173172       -0.06008822748785       -0.04491688690012
C           10.40493147030055       -1.25589741414021       -0.03983583962524
C            9.74374997627990       -2.54134228057001        0.00879665230466
C           10.70104985545604       -3.48453381541926       -0.04667386024124
C           11.97917022031486       -2.80458884233407       -0.14020803706546
N           11.77591063879024       -1.42499164334561       -0.13288547878593
C           13.19099140343332       -3.45121616156901       -0.25858522578977
C           13.23187781495073       -4.92885123461168       -0.30750927785813
C           12.75178001053228       -5.59163616376619       -1.36620720923638
C           12.74763932964964       -7.09643129347754       -1.44439809928319
N           13.56256496142354       -7.69908650971406       -0.37747678722872
C           13.98178440175329       -6.98810954594291        0.72411308889615
C           13.84320795764112       -5.65102095851605        0.79925052433456