189
 energy: -357.996925943098 gnorm: 0.000430784242 xtb: 6.5.1 (b24c23e)
Fe          34.32261532374685        0.01909184081768       -0.22524580328010
C           31.00396921789367       -0.22423736712236        0.37957329258018
C           31.53864464008192        1.03915010461479        0.22330247140919
C           30.76447246080733        2.24338621918697        0.24298024585968
C           31.63781936422940        3.26893692425601        0.10567355674720
C           32.94927590439528        2.69021345349931        0.04018809531802
N           32.86796651458951        1.32388743113254        0.05864536927535
C           34.13224579286838        3.42145320500562        0.06915975133723
C           34.05839155604103        4.89863181551337        0.15838573293710
C           33.42351922038000        5.51769507903220        1.23137894499165
C           33.35779333284444        6.90834858557889        1.30704849597976
C           32.66474567736858        7.50856967752248        2.47514251051379
O           32.65209759460282        8.84912038093830        2.45970440666261
O           32.15409103332621        6.87372148267273        3.36196232354784
C           33.92984731825280        7.69132257508413        0.30455303171365
C           34.56522364095824        7.07724063179041       -0.76340961871505
C           34.63215108239058        5.69326390625605       -0.83736137468913
C           35.38622297475735        2.82424561567453        0.05929407377067
C           36.61557990973707        3.53539948825795        0.24659364815745
C           37.61397909121908        2.62712837318290        0.12660586060725
N           35.63622185261238        1.48922894588273       -0.14302461468287
C           36.99460263124583        1.36753623263383       -0.14337796208253
C           37.70801897029141        0.22076426967385       -0.51666298239771
C           37.07790289416173       -0.98438936027116       -0.85794870552419
C           37.77431478829799       -2.12370474415914       -1.36736275964836
C           36.85725924664803       -3.11038225597127       -1.51146190429297
C           35.60689205338770       -2.58056370286186       -1.05381026834493
N           35.75213975917746       -1.25795277306664       -0.70516198311067
C           34.45409653318832       -3.33423751949493       -0.88856845835053
C           34.49136189852856       -4.78108593515967       -1.20769513858568
C           35.36342493442760       -5.63897819154513       -0.53395061003159
C           35.39253321216948       -6.99400353922252       -0.83314194285372
C           34.55433845373749       -7.50845590582808       -1.80804384714988
C           33.67698802611132       -6.66138014447565       -2.48681300076127
C           32.79283305026377       -7.25129887534867       -3.52322653197286
O           31.98441399409357       -6.35757839024555       -4.11128906324180
O           32.78200113080996       -8.41773740653387       -3.82297000600601
C           33.64501401537800       -5.30174836644647       -2.18445064104471
C           33.26536401792933       -2.79741368123955       -0.40116173707174
C           32.10047911655349       -3.57325871919340       -0.08633012374853
C           31.14330224538441       -2.70024474428642        0.30771016056296
C           31.72086823006675       -1.39252202137661        0.22274202183740
N           33.03153255640449       -1.47060432528396       -0.17204785602550
H           29.94501072170918       -0.30376194243215        0.59778404116589
H           29.69105012357639        2.27939178748221        0.33938828326817
H           31.42460852587499        4.32436627600856        0.05789660152144
H           32.98810391756884        4.92603397170449        2.02917354729925
H           32.18340120271355        9.16209677805356        3.25043072148940
H           33.87585460260043        8.77156491343120        0.36429577749996
H           35.01125518400916        7.67962441584189       -1.54669749978033
H           35.12058579810373        5.21864187641766       -1.68107719300124
H           36.69468465131993        4.58970539551307        0.45622966106603
H           38.67735763345010        2.78720747701993        0.19691177321306
H           38.82870134872417       -2.15255510955566       -1.58717421313870
H           37.00707036377223       -4.10920841598466       -1.88732196184633
H           36.00930182828382       -5.24114012257192        0.24063285881839
H           36.07212711697078       -7.64855441830015       -0.29962645771265
H           34.56490592167818       -8.56416082420658       -2.05449171455610
H           31.44224143024059       -6.81953542249736       -4.77138020682475
H           32.97110586337151       -4.64361576311680       -2.71999642035324
H           32.03912075331919       -4.64746104741101       -0.15177811248911
H           30.13072237410893       -2.90306808191426        0.61825544856230
Fe          55.90785414675167        0.13158052368454       -0.22359792005567
C           59.27692472651238       -0.02974160182962        0.02076169653985
C           58.60623271008041       -1.14731517635241       -0.43384508770181
C           59.24926305422503       -2.35864745559081       -0.84634547280487
C           58.26673801262539       -3.26270135202267       -1.07252780490580
C           57.02436610518431       -2.60631616761701       -0.78168264850650
N           57.24429003308385       -1.29728942204068       -0.45013829600663
C           55.78746016146302       -3.24276422070846       -0.74125046996299
C           55.73038981046718       -4.70514823591079       -0.96873398043589
C           56.43772925859233       -5.57952076107699       -0.14821436642713
C           56.37814783740346       -6.95565133736946       -0.36379043519308
C           57.15275980046263       -7.83625924371132        0.54692566656010
O           57.01987230345143       -9.14158234993021        0.27106454523262
O           57.84167464572361       -7.44026350970917        1.45171563102620
C           55.60964696756911       -7.46739022595891       -1.40918355062837
C           54.90630982576494       -6.59885324322930       -2.22908755366126
C           54.96267734644824       -5.22957254666404       -2.01178687841978
C           54.60233594722693       -2.56374073870465       -0.48982538446191
C           53.32258734791091       -3.19286287854708       -0.35327529155285
C           52.40621064920782       -2.19771208377762       -0.26729647439210
N           54.46764800522249       -1.19799620777758       -0.42404203617648
C           53.12617799743074       -0.96621474136505       -0.34876366427940
C           52.51377446553600        0.29056994112442       -0.45495264376633
C           53.24851207902636        1.48436427135346       -0.46794255253538
C           52.66364522192078        2.77635161836253       -0.64077571881626
C           53.65043956669200        3.68309473569949       -0.43797150433819
C           54.83707561366150        2.93968003674035       -0.13526974348421
N           54.58457259592998        1.59141352827770       -0.21785733439974
C           56.03656156584459        3.50920465685668        0.27157180257466
C           56.08982391518818        4.97444282774563        0.48174031485586
C           55.24016022815154        5.58790758898639        1.40555477000531
C           55.28506914692312        6.96058559071744        1.60483409744631
C           56.17524685171314        7.73828061917988        0.88336866316739
C           57.02895930679498        7.13737334002034       -0.04302679514086
C           57.96806244553284        8.00563128544249       -0.79709147271899
O           58.75052025105983        7.33348480878696       -1.65367373505984
O           58.03982457499516        9.20081159185078       -0.66786879242838
C           56.98635555732199        5.75897796920469       -0.24114280620297
C           57.18966289982605        2.75985193409468        0.48627009219773
C           58.43408147329564        3.29969713104454        0.95383353981106
C           59.34690348927469        2.30213240162517        0.87719391720056
C           58.65713835372166        1.15144455915936        0.37628287145693
N           57.32858776954034        1.43135328443872        0.19099419114199
H           60.35677817433812       -0.08201567533349        0.10117118921429
H           60.31611687841404       -2.48327353774921       -0.94199352815879
H           58.36245021247517       -4.28359661475869       -1.40496691015003
H           57.02835465683741       -5.20110476694890        0.67887412084287
H           57.55280329292752       -9.64675856345693        0.90641349187108
H           55.56639091235910       -8.53677825097686       -1.57624951678579
H           54.30994297283932       -6.98938287731824       -3.04590134792674
H           54.42022966781111       -4.55491795484015       -2.66474290144794
H           53.15638722003393       -4.25729054693112       -0.31885918531136
H           51.33785178377646       -2.27875819615743       -0.15266037279270
H           51.63050306519681        2.95499567034267       -0.88904226155608
H           53.59019557794912        4.75777267913337       -0.49387682453215
H           54.55168662019101        4.97898706400242        1.98079767118751
H           54.62194683643725        7.42186153488780        2.32776106007006
H           56.22250429740465        8.81201794287125        1.02546091463147
H           59.33075137785631        7.96840629677807       -2.10427802033041
H           57.63962670093314        5.29732548462442       -0.97210433817579
H           58.57832015443192        4.31191403218939        1.29537161030418
H           60.39516116497137        2.32572796945811        1.12918428599130
C           39.10597615950555        0.29582927623664       -0.60598613295408
C           40.32064906278539        0.36281335691218       -0.69245343252669
C           49.90181156093146        0.39877656669097       -0.66785248577123
C           51.11629234692007        0.35205158876087       -0.56302011803746
Fe          45.11097587941908        0.50776288458368       -0.95575698669029
C           41.71637228013790        0.43031298586714       -0.80249351777675
C           42.37491030397611       -0.51802506618815       -1.60127178880700
C           41.70426012949025       -1.46729689936404       -2.43149243187592
C           42.66274894491880       -2.26024253085061       -2.97143263989715
C           43.91448747826716       -1.80968306732715       -2.44095569413950
N           43.72359088762217       -0.69276185194949       -1.66264027022847
C           45.11658289583040       -2.49576216197289       -2.56139735265857
C           45.12890580939499       -3.79426393405547       -3.27213266827023
C           44.30397846770207       -4.83727728121681       -2.85953006110070
C           44.31926470831172       -6.05898765761443       -3.53069541445696
C           43.41361860789787       -7.13046779321542       -3.04340519771632
O           43.51361141786734       -8.27254563091123       -3.73758767055432
O           42.65252625649990       -7.00731871921313       -2.11824945107968
C           45.16373057648860       -6.24497331584796       -4.62503157175431
C           45.98735614540323       -5.20875469692866       -5.03680701427751
C           45.97429675630549       -3.99388467877079       -4.36666232518598
C           46.30443182456678       -2.04016038210768       -1.99645373813178
C           47.52172739783474       -2.79130092212708       -1.95007292941478
C           48.46204995639676       -1.97622473096731       -1.41045059378277
N           46.49416830659119       -0.79490627263750       -1.45501103977881
C           47.81962509831973       -0.72969444903528       -1.13789064990057
C           48.50589381264046        0.44364258114679       -0.79197268093685
C           47.84810142549703        1.67262587699395       -0.62206367996839
C           48.52043689255208        2.91912769729828       -0.43778278596926
C           47.56258068751551        3.85166037298455       -0.21062774020855
C           46.30820437894943        3.16081794969112       -0.21752413184076
N           46.49889455281085        1.83780067482718       -0.53990479349629
C           45.10375665494052        3.71109162869197        0.20253490702282
C           45.08119801933573        5.11167058615391        0.68299779776162
C           44.24898417051519        6.04927763639385        0.06650418068253
C           44.21761384669388        7.36455153968371        0.50763478601072
C           45.00945336091026        7.75836896763562        1.57343703828278
C           45.83955090783093        6.82915276731735        2.20211445414957
C           46.66739029112338        7.28938634996859        3.34596495218835
O           47.43295328989677        6.32518939029987        3.87621283785395
O           46.66841118618233        8.41539618587009        3.77256439177531
C           45.87570869978870        5.50972968193885        1.75614153302541
C           43.91537697207082        2.98719545692912        0.23756628775373
C           42.70026278278688        3.44935671372217        0.83647904742854
C           41.76173483614458        2.49980655836991        0.59606145467207
C           42.40134734418930        1.47384962436201       -0.16477745210436
N           43.72611507718613        1.75454947524251       -0.33078593850699
H           40.63883261844340       -1.50278280281877       -2.58876590190389
H           42.53934621886958       -3.07803268798779       -3.66234825666029
H           43.65407011719917       -4.71742664420475       -1.99962753390754
H           42.89357840040876       -8.91843866263618       -3.36158835453006
H           45.17240158634432       -7.19415865515569       -5.14690890415588
H           46.64473633949926       -5.34585899091655       -5.88788360225449
H           46.61176249855495       -3.18335841265579       -4.70168762766822
H           47.63300761706968       -3.81206010811940       -2.27786071181163
H           49.50287806672014       -2.18577341390658       -1.22742617005792
H           49.58814787317111        3.05479899095236       -0.48497848003106
H           47.68816493587677        4.90891413558731       -0.04361460410671
H           43.63512884400013        5.74356792197745       -0.77333980616201
H           43.57118879787709        8.08239864773045        0.01582046183545
H           44.99562463570751        8.78122884135038        1.93251513827271
H           47.93581972987025        6.70236637030660        4.61636445541487
H           46.50783264492993        4.78667481293016        2.25777784756835
H           42.59139870393237        4.37212840793995        1.38273651840371
H           40.72622066756358        2.48952347088094        0.89439272769067
