      -----------------------------------------------------------      
     |                   =====================                   |     
     |                           x T B                           |     
     |                   =====================                   |     
     |                         S. Grimme                         |     
     |          Mulliken Center for Theoretical Chemistry        |     
     |                    University of Bonn                     |     
      -----------------------------------------------------------      

   * xtb version 6.5.1 (b24c23e) compiled by 'conda@728c89f4b128' on 2022-07-12

   xtb is free software: you can redistribute it and/or modify it under
   the terms of the GNU Lesser General Public License as published by
   the Free Software Foundation, either version 3 of the License, or
   (at your option) any later version.
   
   xtb is distributed in the hope that it will be useful,
   but WITHOUT ANY WARRANTY; without even the implied warranty of
   MERCHANTABILITY or FITNESS FOR A PARTICULAR PURPOSE.  See the
   GNU Lesser General Public License for more details.
   
   Cite this work as:
   * C. Bannwarth, E. Caldeweyher, S. Ehlert, A. Hansen, P. Pracht,
     J. Seibert, S. Spicher, S. Grimme, WIREs Comput. Mol. Sci., 2020, 11,
     e01493. DOI: 10.1002/wcms.1493
   
   for GFN2-xTB:
   * C. Bannwarth, S. Ehlert and S. Grimme., J. Chem. Theory Comput., 2019,
     15, 1652-1671. DOI: 10.1021/acs.jctc.8b01176
   for GFN1-xTB:
   * S. Grimme, C. Bannwarth, P. Shushkov, J. Chem. Theory Comput., 2017,
     13, 1989-2009. DOI: 10.1021/acs.jctc.7b00118
   for GFN0-xTB:
   * P. Pracht, E. Caldeweyher, S. Ehlert, S. Grimme, ChemRxiv, 2019, preprint.
     DOI: 10.26434/chemrxiv.8326202.v1
   for GFN-FF:
   * S. Spicher and S. Grimme, Angew. Chem. Int. Ed., 2020, 59, 15665-15673.
     DOI: 10.1002/anie.202004239
   
   for ALPB and GBSA implicit solvation:
   * S. Ehlert, M. Stahn, S. Spicher, S. Grimme, J. Chem. Theory Comput.,
     2021, 17, 4250-4261. DOI: 10.1021/acs.jctc.1c00471
   
   for DFT-D4:
   * E. Caldeweyher, C. Bannwarth and S. Grimme, J. Chem. Phys., 2017,
     147, 034112. DOI: 10.1063/1.4993215
   * E. Caldeweyher, S. Ehlert, A. Hansen, H. Neugebauer, S. Spicher,
     C. Bannwarth and S. Grimme, J. Chem. Phys., 2019, 150, 154122.
     DOI: 10.1063/1.5090222
   * E. Caldeweyher, J.-M. Mewes, S. Ehlert and S. Grimme, Phys. Chem. Chem. Phys.
     2020, 22, 8499-8512. DOI: 10.1039/D0CP00502A
   
   for sTDA-xTB:
   * S. Grimme and C. Bannwarth, J. Chem. Phys., 2016, 145, 054103.
     DOI: 10.1063/1.4959605
   
   in the mass-spec context:
   * V. Asgeirsson, C. Bauer and S. Grimme, Chem. Sci., 2017, 8, 4879.
     DOI: 10.1039/c7sc00601b
   * J. Koopman and S. Grimme, ACS Omega 2019, 4, 12, 15120-15133.
     DOI: 10.1021/acsomega.9b02011
   
   for metadynamics refer to:
   * S. Grimme, J. Chem. Theory Comput., 2019, 155, 2847-2862
     DOI: 10.1021/acs.jctc.9b00143
   
   for SPH calculations refer to:
   * S. Spicher and S. Grimme, J. Chem. Theory Comput., 2021, 17, 1701-1714
     DOI: 10.1021/acs.jctc.0c01306
   
   with help from (in alphabetical order)
   P. Atkinson, C. Bannwarth, F. Bohle, G. Brandenburg, E. Caldeweyher
   M. Checinski, S. Dohm, S. Ehlert, S. Ehrlich, I. Gerasimov, C. Hölzer
   A. Katbashev, J. Koopman, C. Lavigne, S. Lehtola, F. März, M. Müller,
   F. Musil, H. Neugebauer, J. Pisarek, C. Plett, P. Pracht, F. Pultar,
   J. Seibert, P. Shushkov, S. Spicher, M. Stahn, M. Steiner, T. Strunk,
   J. Stückrath, T. Rose, and J. Unsleber
   
 * started run on 2022/07/29 at 02:57:34.228     

           -------------------------------------------------
          |                Calculation Setup                |
           -------------------------------------------------

          program call               : xtb PhOH_C8_8.xyz --gfn 1 --opt -T 48
          hostname                   : cx3-5-14.cx3.hpc.ic.ac.uk
          coordinate file            : PhOH_C8_8.xyz
          omp threads                :                     1

   ID    Z sym.   atoms
    1    6 C      1-5, 7-11, 13-17, 19-24, 26-30, 32-37, 60-64, 66-70, 72-76,
                  78-83, 85-89, 91-96, 119-179, 181-185, 187-191, 193-198,
                  200-204, 206-211, 233-237, 239-243, 245-249, 251-256,
                  258-262, 264-269, 291-295, 297-301, 303-307, 309-314,
                  316-320, 322-327, 349-353, 355-359, 361-365, 367-372,
                  374-378, 380-385, 407-411, 413-417, 419-423, 425-430,
                  432-436, 438-443, 465-469, 471-475, 477-481, 483-488,
                  490-494, 496-501
    2    7 N      6, 18, 25, 38, 65, 77, 84, 97, 180, 192, 199, 212, 238,
                  250, 257, 270, 296, 308, 315, 328, 354, 366, 373, 386, 412,
                  424, 431, 444, 470, 482, 489, 502
    3    8 O      12, 31, 71, 90, 186, 205, 244, 263, 302, 321, 360, 379,
                  418, 437, 476, 495
    4    1 H      39-59, 98-118, 213-232, 271-290, 329-348, 387-406, 445-464,
                  503-522

molecular fragmentation (1/2 indicates fragments):
111111111111111111111111111111111111111111111111111111111112222222222222
222222222222222222222222222222222222222222222222222222222222222222222222
222222222222222222222222222222222222222222222222222222222222222222222222
222222222222222222222222222222222222222222222222222222222222222222222222
222222222222222222222222222222222222222222222222222222222222222222222222
222222222222222222222222222222222222222222222222222222222222222222222222
222222222222222222222222222222222222222222222222222222222222222222222222
222222222222222222
# atoms in fragment 1/2:    59   463
 fragment masses (1/2) :      493.54     4121.31
CMA distance (Bohr)    : 143.821
constraining FC (au)   :  0.0500
########################################################################
[WARNING] Please study the warnings concerning your input carefully
-1- prog_main_parseArguments: Unknown option '-T' provided
########################################################################

           -------------------------------------------------
          |                 G F N 1 - x T B                 |
           -------------------------------------------------

        Reference                      10.1021/acs.jctc.7b00118
      * Hamiltonian:
        H0-scaling (s, p, d)           1.850000    2.250000    2.000000
        zeta-weighting                 0.000000
      * Dispersion:
        s8                             2.400000
        a1                             0.630000
        a2                             5.000000
        s9                             0.000000
      * Repulsion:
        kExp                           1.500000
        rExp                           1.000000
      * Coulomb:
        alpha                          2.000000
        third order                    atomic
        anisotropic                    false
      * Halogen bond correction:
        rad-scale                      1.300000
        damping                        0.440000


          ...................................................
          :                      SETUP                      :
          :.................................................:
          :  # basis functions                1764          :
          :  # atomic orbitals                1764          :
          :  # shells                         1044          :
          :  # electrons                      1666          :
          :  # halogen bonds                     0          :
          :  max. iterations                   250          :
          :  Hamiltonian                  GFN1-xTB          :
          :  restarted?                      false          :
          :  GBSA solvation                  false          :
          :  PC potential                    false          :
          :  electronic temp.          300.0000000     K    :
          :  accuracy                    1.0000000          :
          :  -> integral cutoff          0.2500000E+02      :
          :  -> integral neglect         0.1000000E-07      :
          :  -> SCF convergence          0.1000000E-05 Eh   :
          :  -> wf. convergence          0.2000000E-04 e    :
          :  Broyden damping             0.4000000          :
          ...................................................

 iter      E             dE          RMSdq      gap      omega  full diag
   1   -934.6989095 -0.934699E+03  0.105E+01    0.07       0.0  T
   2   -878.8098622  0.558890E+02  0.720E+00    0.00       1.0  T
   3   6523.4158208  0.740223E+04  0.195E+01    0.04       1.0  T
   4  10817.1117545  0.429370E+04  0.232E+01    0.04       1.0  T
   5   1385.8357912 -0.943128E+04  0.139E+01    0.01       1.0  T
   6   -592.0242913 -0.197786E+04  0.716E+00    0.00       1.0  T
   7   1359.0470378  0.195107E+04  0.115E+01    0.01       1.0  T
   8    635.2190882 -0.723828E+03  0.993E+00    0.04       1.0  T
   9   -396.7898143 -0.103201E+04  0.706E+00    0.02       1.0  T
  10   -612.5317894 -0.215742E+03  0.542E+00    0.03       1.0  T
  11   -583.2265663  0.293052E+02  0.540E+00    0.02       1.0  T
  12   -473.5461244  0.109680E+03  0.579E+00    0.03       1.0  T
  13   -413.3700701  0.601761E+02  0.602E+00    0.01       1.0  T
  14   -383.1360589  0.302340E+02  0.614E+00    0.02       1.0  T
  15   -386.9792619 -0.384320E+01  0.617E+00    0.03       1.0  T
  16   -372.7295727  0.142497E+02  0.627E+00    0.01       1.0  T
  17   -365.0159270  0.771365E+01  0.632E+00    0.04       1.0  T
  18   -346.2698065  0.187461E+02  0.640E+00    0.04       1.0  T
  19   -350.0339866 -0.376418E+01  0.641E+00    0.02       1.0  T
  20   -352.4022757 -0.236829E+01  0.641E+00    0.05       1.0  T
  21   -323.8928684  0.285094E+02  0.652E+00    0.08       1.0  T
  22   -307.0941800  0.167987E+02  0.658E+00    0.00       1.0  T
  23   -352.1232080 -0.450290E+02  0.644E+00    0.01       1.0  T
  24   -349.5824539  0.254075E+01  0.645E+00    0.01       1.0  T
  25   -341.8541398  0.772831E+01  0.636E+00    0.00       1.0  T
  26   -399.5894989 -0.577354E+02  0.597E+00    0.02       1.0  T
  27   -357.9883347  0.416012E+02  0.603E+00    0.00       1.0  T
  28   -414.9725729 -0.569842E+02  0.572E+00    0.01       1.0  T
  29   -401.0544306  0.139181E+02  0.567E+00    0.01       1.0  T
  30   -529.1308183 -0.128076E+03  0.515E+00    0.03       1.0  T
  31   -571.6448535 -0.425140E+02  0.477E+00    0.02       1.0  T
  32   -738.2701875 -0.166625E+03  0.383E+00    0.00       1.0  T
  33   -778.4941694 -0.402240E+02  0.347E+00    0.00       1.0  T
  34   -823.1895598 -0.446954E+02  0.327E+00    0.00       1.0  T
  35   -881.8239754 -0.586344E+02  0.270E+00    0.01       1.0  T
  36   -910.6906269 -0.288667E+02  0.231E+00    0.08       1.0  T
  37   -918.8117941 -0.812117E+01  0.228E+00    0.00       1.0  T
  38   -924.5696732 -0.575788E+01  0.209E+00    0.05       1.0  T
  39   -925.3491039 -0.779431E+00  0.206E+00    0.01       1.0  T
  40   -922.7057147  0.264339E+01  0.220E+00    0.02       1.0  T
  41   -923.4654864 -0.759772E+00  0.215E+00    0.07       1.0  T
  42   -924.6731660 -0.120768E+01  0.208E+00    0.02       1.0  T
  43   -925.4303384 -0.757172E+00  0.209E+00    0.01       1.0  T
  44   -919.9937076  0.543663E+01  0.226E+00    0.01       1.0  T
  45   -922.7598647 -0.276616E+01  0.209E+00    0.00       1.0  T
  46   -925.6812942 -0.292143E+01  0.198E+00    0.01       1.0  T
  47   -929.6596831 -0.397839E+01  0.177E+00    0.04       1.0  T
  48   -928.3306569  0.132903E+01  0.177E+00    0.00       1.0  T
  49   -932.1771087 -0.384645E+01  0.145E+00    0.04       1.0  T
  50   -932.6939424 -0.516834E+00  0.140E+00    0.03       1.0  T
  51   -933.5033876 -0.809445E+00  0.125E+00    0.04       1.0  T
  52   -934.3793977 -0.876010E+00  0.112E+00    0.03       1.0  T
  53   -933.4758697  0.903528E+00  0.123E+00    0.04       1.0  T
  54   -935.0197914 -0.154392E+01  0.900E-01    0.02       1.0  T
  55   -935.6258698 -0.606078E+00  0.760E-01    0.03       1.0  T
  56   -935.9480117 -0.322142E+00  0.651E-01    0.06       1.0  T
  57   -935.9704388 -0.224271E-01  0.655E-01    0.03       1.0  T
  58   -936.2071902 -0.236751E+00  0.526E-01    0.06       1.0  T
  59   -935.7954646  0.411726E+00  0.585E-01    0.00       1.0  T
  60   -935.6789254  0.116539E+00  0.599E-01    0.05       1.0  T
  61   -936.3159400 -0.637015E+00  0.399E-01    0.09       1.0  T
  62   -936.3062604  0.967957E-02  0.379E-01    0.00       1.0  T
  63   -936.3605826 -0.543222E-01  0.367E-01    0.07       1.0  T
  64   -936.3246855  0.358972E-01  0.363E-01    0.09       1.0  T
  65   -936.3658883 -0.412029E-01  0.335E-01    0.06       1.0  T
  66   -936.3048385  0.610499E-01  0.308E-01    0.02       1.0  T
  67   -936.4188755 -0.114037E+00  0.273E-01    0.03       1.0  T
  68   -936.4176185  0.125694E-02  0.264E-01    0.03       1.0  T
  69   -936.4360449 -0.184263E-01  0.256E-01    0.02       1.0  T
  70   -936.3931069  0.429379E-01  0.238E-01    0.02       1.0  T
  71   -936.4469820 -0.538751E-01  0.218E-01    0.00       1.0  T
  72   -936.4562536 -0.927161E-02  0.207E-01    0.01       1.0  T
  73   -936.4611228 -0.486914E-02  0.209E-01    0.01       1.0  T
  74   -936.4529365  0.818632E-02  0.216E-01    0.03       1.0  T
  75   -936.4549713 -0.203481E-02  0.212E-01    0.03       1.0  T
  76   -936.4534248  0.154650E-02  0.203E-01    0.03       1.0  T
  77   -936.4657518 -0.123270E-01  0.177E-01    0.02       1.0  T
  78   -936.4755071 -0.975526E-02  0.164E-01    0.02       1.0  T
  79   -936.4808189 -0.531179E-02  0.153E-01    0.02       1.0  T
  80   -936.4837007 -0.288186E-02  0.142E-01    0.01       1.0  T
  81   -936.4813364  0.236435E-02  0.147E-01    0.03       1.0  T
  82   -936.4786435  0.269291E-02  0.148E-01    0.03       1.0  T
  83   -936.4905850 -0.119415E-01  0.127E-01    0.02       1.0  T
  84   -936.4959645 -0.537952E-02  0.109E-01    0.01       1.0  T
  85   -936.4948102  0.115426E-02  0.109E-01    0.01       1.0  T
  86   -936.4951392 -0.328945E-03  0.111E-01    0.02       1.0  T
  87   -936.4955110 -0.371800E-03  0.114E-01    0.02       1.0  T
  88   -936.5053090 -0.979806E-02  0.877E-02    0.01       1.0  T
  89   -936.5086074 -0.329839E-02  0.777E-02    0.01       1.0  T
  90   -936.5121732 -0.356574E-02  0.717E-02    0.01       1.0  T
  91   -936.5132023 -0.102915E-02  0.652E-02    0.02       1.0  T
  92   -936.5148011 -0.159876E-02  0.637E-02    0.02       1.0  T
  93   -936.5168754 -0.207438E-02  0.561E-02    0.02       1.0  T
  94   -936.5185935 -0.171806E-02  0.461E-02    0.02       1.0  T
  95   -936.5205638 -0.197031E-02  0.336E-02    0.01       1.0  T
  96   -936.5205635  0.286266E-06  0.335E-02    0.01       1.0  T
  97   -936.5217082 -0.114468E-02  0.300E-02    0.01       1.0  T
  98   -936.5221161 -0.407901E-03  0.234E-02    0.01       1.0  T
  99   -936.5226418 -0.525722E-03  0.232E-02    0.01       1.0  T
 100   -936.5225708  0.710636E-04  0.219E-02    0.01       1.0  T
 101   -936.5225332  0.375933E-04  0.193E-02    0.01       1.0  T
 102   -936.5229261 -0.392927E-03  0.150E-02    0.01       1.0  T
 103   -936.5229086  0.175070E-04  0.139E-02    0.01       1.0  T
 104   -936.5231517 -0.243148E-03  0.122E-02    0.01       1.0  T
 105   -936.5231590 -0.722269E-05  0.116E-02    0.01       1.0  T
 106   -936.5231919 -0.329147E-04  0.102E-02    0.01       1.0  T
 107   -936.5231484  0.434543E-04  0.108E-02    0.01       1.0  T
 108   -936.5231923 -0.438972E-04  0.964E-03    0.01       1.0  T
 109   -936.5232278 -0.354605E-04  0.850E-03    0.01       1.0  T
 110   -936.5232444 -0.165620E-04  0.779E-03    0.01       1.0  T
 111   -936.5232729 -0.285284E-04  0.682E-03    0.01       1.0  T
 112   -936.5232775 -0.461711E-05  0.643E-03    0.01       1.0  T
 113   -936.5232787 -0.116291E-05  0.569E-03    0.01       1.0  T
 114   -936.5232923 -0.136618E-04  0.499E-03    0.01       1.0  T
 115   -936.5232990 -0.665109E-05  0.449E-03    0.01       1.0  T
 116   -936.5233014 -0.241270E-05  0.415E-03    0.01       1.1  T
 117   -936.5233048 -0.345987E-05  0.389E-03    0.01       1.1  T
 118   -936.5233109 -0.602560E-05  0.328E-03    0.01       1.3  T
 119   -936.5233193 -0.843140E-05  0.285E-03    0.01       1.5  T
 120   -936.5233231 -0.378269E-05  0.250E-03    0.01       1.8  T
 121   -936.5233242 -0.114475E-05  0.242E-03    0.01       1.8  T
 122   -936.5233296 -0.539839E-05  0.189E-03    0.01       2.3  T
 123   -936.5233311 -0.148202E-05  0.173E-03    0.01       2.5  T
 124   -936.5233345 -0.336570E-05  0.115E-03    0.01       3.8  T
 125   -936.5233349 -0.401545E-06  0.104E-03    0.01       4.2  T
 126   -936.5233348  0.122385E-06  0.102E-03    0.01       4.3  T
 127   -936.5233357 -0.907819E-06  0.772E-04    0.01       5.7  T
 128   -936.5233361 -0.409087E-06  0.656E-04    0.01       6.7  T
 129   -936.5233365 -0.469545E-06  0.473E-04    0.01       9.2  T
 130   -936.5233368 -0.229437E-06  0.343E-04    0.01      12.8  T
 131   -936.5233369 -0.102130E-06  0.250E-04    0.01      17.5  T
 132   -936.5233369 -0.258412E-07  0.210E-04    0.01      20.8  T
 133   -936.5233369 -0.176827E-07  0.175E-04    0.01      24.9  T
 134   -936.5233369 -0.186675E-07  0.139E-04    0.01      31.4  T

   *** convergence criteria satisfied after 134 iterations ***

         #    Occupation            Energy/Eh            Energy/eV
      -------------------------------------------------------------
         1        2.0000           -0.8089302             -22.0121
       ...           ...                  ...                  ...
       827        1.9999           -0.3788520             -10.3091
       828        1.9967           -0.3758538             -10.2275
       829        1.9537           -0.3733292             -10.1588
       830        1.9214           -0.3728105             -10.1447
       831        1.9167           -0.3727518             -10.1431
       832        1.9096           -0.3726708             -10.1409
       833        0.9590           -0.3696952             -10.0599 (HOMO)
       834        0.7627           -0.3693136             -10.0495 (LUMO)
       835        0.5129           -0.3687619             -10.0345
       836        0.0647           -0.3665451              -9.9742
       837        0.0025           -0.3634315              -9.8895
       838        0.0001           -0.3605274              -9.8105
       ...           ...                  ...                  ...
      1764                          2.2152675              60.2805
      -------------------------------------------------------------
                  HL-Gap            0.0003816 Eh            0.0104 eV
             Fermi-level           -0.3697731 Eh          -10.0620 eV

 SCC (total)                   0 d,  0 h,  4 min, 54.114 sec
 SCC setup                      ...        0 min,  0.082 sec (  0.028%)
 Dispersion                     ...        0 min,  0.037 sec (  0.013%)
 classical contributions        ...        0 min,  0.008 sec (  0.003%)
 integral evaluation            ...        0 min,  1.003 sec (  0.341%)
 iterations                     ...        4 min, 50.907 sec ( 98.909%)
 molecular gradient             ...        0 min,  1.659 sec (  0.564%)
 printout                       ...        0 min,  0.419 sec (  0.142%)

         :::::::::::::::::::::::::::::::::::::::::::::::::::::
         ::                     SUMMARY                     ::
         :::::::::::::::::::::::::::::::::::::::::::::::::::::
         :: total energy            -920.194402418157 Eh    ::
         :: gradient norm              2.338703043797 Eh/a0 ::
         :: HOMO-LUMO gap              0.010384599868 eV    ::
         ::.................................................::
         :: SCC energy              -936.523336934093 Eh    ::
         :: -> electrostatic           1.082663151406 Eh    ::
         :: repulsion energy          16.754449791310 Eh    ::
         :: dispersion energy         -0.425515275373 Eh    ::
         :: halogen bond corr.         0.000000000000 Eh    ::
         :: add. restraining           0.000000000000 Eh    ::
         :: total charge              -0.000000000000 e     ::
         :::::::::::::::::::::::::::::::::::::::::::::::::::::

      ----------------------------------------------------------- 
     |                       L-ANC optimizer                     |
      ----------------------------------------------------------- 
          low memory version by Sebastian Ehlert

          ...................................................
          :                      SETUP                      :
          :.................................................:
          :   energy convergence        0.5000000E-05 Eh    :
          :   grad. convergence         0.1000000E-02 Eh/a0 :
          :   optimization log               true           :
          :   writing optlog all                1     steps :
          :   Hessian reset                    20     steps :
          :   maximium step len.        1.0000000     a0    :
          :   LBFGS images                     20           :
          ...................................................
 * calculating model hessian...
Using Lindh-Hessian (1995)
 Shifting diagonal of input Hessian by    1.0115059170639143E-002
 Lowest  eigenvalues of input Hessian
    0.010000    0.010017    0.010108    0.010109    0.010110    0.010110
    0.010111    0.010111    0.010112    0.010112    0.010113    0.010113
    0.010114    0.010115    0.010115    0.010115    0.000000    0.000000
 Highest eigenvalues
    3.286475    3.287107    3.287108    3.287108    3.287110    3.287113


........................................................................
.............................. CYCLE    1 ..............................
........................................................................
   1   -936.2870576 -0.936287E+03  0.227E-01    0.04       0.0  T
   2   -935.4781100  0.808948E+00  0.761E-01    0.09       1.0  T
   3   -935.1833546  0.294755E+00  0.569E-01    0.11       1.0  T
   4   -936.2335375 -0.105018E+01  0.224E-01    0.01       1.0  T
   5   -935.8102711  0.423266E+00  0.399E-01    0.03       1.0  T
   6   -936.1751593 -0.364888E+00  0.269E-01    0.04       1.0  T
   7   -936.1285570  0.466023E-01  0.279E-01    0.09       1.0  T
   8   -936.2924987 -0.163942E+00  0.143E-01    0.04       1.0  T
   9   -936.1088596  0.183639E+00  0.300E-01    0.08       1.0  T
  10   -936.1496418 -0.407822E-01  0.263E-01    0.03       1.0  T
  11   -936.2805560 -0.130914E+00  0.127E-01    0.05       1.0  T
  12   -936.3105560 -0.300000E-01  0.989E-02    0.01       1.0  T
  13   -936.3372877 -0.267317E-01  0.265E-02    0.00       1.0  T
  14   -936.3353211  0.196655E-02  0.325E-02    0.00       1.0  T
  15   -936.3364926 -0.117146E-02  0.265E-02    0.01       1.0  T
  16   -936.3385831 -0.209051E-02  0.955E-03    0.00       1.0  T
  17   -936.3385176  0.654364E-04  0.110E-02    0.00       1.0  T
  18   -936.3386729 -0.155294E-03  0.662E-03    0.00       1.0  T
  19   -936.3387070 -0.340517E-04  0.510E-03    0.00       1.0  T
  20   -936.3387035  0.348210E-05  0.478E-03    0.00       1.0  T
  21   -936.3387141 -0.106010E-04  0.412E-03    0.00       1.1  T
  22   -936.3387613 -0.471452E-04  0.117E-03    0.00       3.7  T
  23   -936.3387570  0.424152E-05  0.177E-03    0.00       2.5  T
  24   -936.3387623 -0.532239E-05  0.918E-04    0.00       4.8  T
  25   -936.3387641 -0.174666E-05  0.319E-04    0.00      13.7  T
  26   -936.3387642 -0.807948E-07  0.260E-04    0.00      16.8  T
  27   -936.3387643 -0.155719E-06  0.124E-04    0.00      35.3  T
  28   -936.3387643  0.302981E-07  0.154E-04    0.00      28.5  T
     SCC iter.                  ...        1 min,  0.829 sec
     gradient                   ...        0 min,  1.678 sec
 * total energy  :  -921.1420502 Eh     change       -0.9476478E+00 Eh
   gradient norm :     1.0354409 Eh/a0  converged?    E=F G=F D=F
   step length   :     0.6065883 a0

........................................................................
.............................. CYCLE    2 ..............................
........................................................................
   1   -936.5079713 -0.936508E+03  0.146E-01    0.05       0.0  T
   2   -935.9863618  0.521609E+00  0.576E-01    0.09       1.0  T
   3   -936.1113113 -0.124949E+00  0.433E-01    0.10       1.0  T
   4   -936.2917036 -0.180392E+00  0.305E-01    0.07       1.0  T
   5   -936.4539659 -0.162262E+00  0.186E-01    0.02       1.0  T
   6   -936.4793441 -0.253782E-01  0.143E-01    0.03       1.0  T
   7   -936.4603487  0.189954E-01  0.162E-01    0.04       1.0  T
   8   -936.4918961 -0.315474E-01  0.111E-01    0.01       1.0  T
   9   -936.4659296  0.259665E-01  0.158E-01    0.04       1.0  T
  10   -936.5147827 -0.488531E-01  0.856E-02    0.03       1.0  T
  11   -936.5304450 -0.156622E-01  0.536E-02    0.00       1.0  T
  12   -936.5323194 -0.187440E-02  0.382E-02    0.01       1.0  T
  13   -936.5358978 -0.357846E-02  0.144E-02    0.02       1.0  T
  14   -936.5351812  0.716594E-03  0.203E-02    0.02       1.0  T
  15   -936.5363887 -0.120741E-02  0.468E-03    0.02       1.0  T
  16   -936.5363845  0.418072E-05  0.460E-03    0.01       1.0  T
  17   -936.5364013 -0.168018E-04  0.411E-03    0.02       1.1  T
  18   -936.5364332 -0.318999E-04  0.229E-03    0.02       1.9  T
  19   -936.5364371 -0.391403E-05  0.169E-03    0.02       2.6  T
  20   -936.5364438 -0.674951E-05  0.818E-04    0.02       5.3  T
  21   -936.5364454 -0.157888E-05  0.415E-04    0.02      10.6  T
  22   -936.5364456 -0.141404E-06  0.322E-04    0.02      13.6  T
  23   -936.5364457 -0.143941E-06  0.205E-04    0.02      21.3  T
  24   -936.5364458 -0.780262E-07  0.510E-05    0.02      85.7  T
  25   -936.5364458  0.477371E-08  0.651E-05    0.02      67.2  T
     SCC iter.                  ...        0 min, 56.076 sec
     gradient                   ...        0 min,  1.714 sec
 * total energy  :  -921.4581547 Eh     change       -0.3161045E+00 Eh
   gradient norm :     0.8027521 Eh/a0  converged?    E=F G=F D=F
   step length   :     3.5928451 a0

........................................................................
.............................. CYCLE    3 ..............................
........................................................................
   1   -936.6752716 -0.936675E+03  0.131E-01    0.08       0.0  T
   2   -935.9949956  0.680276E+00  0.613E-01    0.14       1.0  T
   3   -936.2931327 -0.298137E+00  0.473E-01    0.05       1.0  T
   4   -936.4832926 -0.190160E+00  0.302E-01    0.05       1.0  T
   5   -936.5671824 -0.838899E-01  0.237E-01    0.02       1.0  T
   6   -936.6410411 -0.738586E-01  0.131E-01    0.02       1.0  T
   7   -936.6457522 -0.471117E-02  0.166E-01    0.09       1.0  T
   8   -936.7001320 -0.543798E-01  0.441E-02    0.04       1.0  T
   9   -936.7020320 -0.190003E-02  0.250E-02    0.03       1.0  T
  10   -936.6960016  0.603044E-02  0.478E-02    0.02       1.0  T
  11   -936.7029705 -0.696892E-02  0.207E-02    0.02       1.0  T
  12   -936.7034334 -0.462905E-03  0.176E-02    0.04       1.0  T
  13   -936.7037002 -0.266791E-03  0.125E-02    0.04       1.0  T
  14   -936.7040771 -0.376874E-03  0.705E-03    0.03       1.0  T
  15   -936.7041649 -0.878067E-04  0.459E-03    0.03       1.0  T
  16   -936.7042051 -0.401720E-04  0.918E-04    0.03       4.8  T
  17   -936.7042051 -0.484583E-07  0.979E-04    0.03       4.5  T
  18   -936.7042013  0.378803E-05  0.144E-03    0.03       3.0  T
  19   -936.7042045 -0.319017E-05  0.964E-04    0.03       4.5  T
  20   -936.7042075 -0.293036E-05  0.167E-04    0.03      26.2  T
  21   -936.7042074  0.405214E-08  0.160E-04    0.03      27.3  T
  22   -936.7042075 -0.469303E-07  0.898E-05    0.03      48.8  T
     SCC iter.                  ...        0 min, 47.813 sec
     gradient                   ...        0 min,  1.692 sec
 * total energy  :  -921.6389641 Eh     change       -0.1808094E+00 Eh
   gradient norm :     0.6516188 Eh/a0  converged?    E=F G=F D=F
   step length   :     6.6347602 a0

........................................................................
.............................. CYCLE    4 ..............................
........................................................................
   1   -936.8286823 -0.936829E+03  0.115E-01    0.09       0.0  T
   2   -936.1177230  0.710959E+00  0.612E-01    0.14       1.0  T
   3   -936.4869374 -0.369214E+00  0.459E-01    0.06       1.0  T
   4   -936.6744138 -0.187476E+00  0.275E-01    0.03       1.0  T
   5   -936.7565503 -0.821365E-01  0.200E-01    0.02       1.0  T
   6   -936.7429559  0.135943E-01  0.169E-01    0.01       1.0  T
   7   -936.8059586 -0.630027E-01  0.149E-01    0.08       1.0  T
   8   -936.8344148 -0.284562E-01  0.942E-02    0.08       1.0  T
   9   -936.8501139 -0.156991E-01  0.318E-02    0.05       1.0  T
  10   -936.8514126 -0.129866E-02  0.185E-02    0.04       1.0  T
  11   -936.8518233 -0.410670E-03  0.159E-02    0.04       1.0  T
  12   -936.8523286 -0.505378E-03  0.130E-02    0.05       1.0  T
  13   -936.8525077 -0.179019E-03  0.670E-03    0.05       1.0  T
  14   -936.8524643  0.433228E-04  0.661E-03    0.04       1.0  T
  15   -936.8525450 -0.806946E-04  0.382E-03    0.04       1.1  T
  16   -936.8525937 -0.486436E-04  0.102E-03    0.05       4.3  T
  17   -936.8525946 -0.925335E-06  0.625E-04    0.05       7.0  T
  18   -936.8525949 -0.339344E-06  0.442E-04    0.05       9.9  T
  19   -936.8525950 -0.738057E-07  0.407E-04    0.05      10.8  T
  20   -936.8525955 -0.446723E-06  0.829E-05    0.04      52.8  T
  21   -936.8525954  0.453289E-07  0.140E-04    0.04      31.2  T
     SCC iter.                  ...        0 min, 47.071 sec
     gradient                   ...        0 min,  1.700 sec
 * total energy  :  -921.7643243 Eh     change       -0.1253603E+00 Eh
   gradient norm :     0.5296039 Eh/a0  converged?    E=F G=F D=F
   step length   :    12.0222155 a0

........................................................................
.............................. CYCLE    5 ..............................
........................................................................
   1   -936.9857980 -0.936986E+03  0.122E-01    0.11       0.0  T
   2   -936.2240878  0.761710E+00  0.636E-01    0.15       1.0  T
   3   -936.5326533 -0.308565E+00  0.527E-01    0.11       1.0  T
   4   -936.7575488 -0.224895E+00  0.322E-01    0.02       1.0  T
   5   -936.9451617 -0.187613E+00  0.184E-01    0.01       1.0  T
   6   -936.9215679  0.235938E-01  0.148E-01    0.00       1.0  T
   7   -936.9786925 -0.571246E-01  0.130E-01    0.10       1.0  T
   8   -937.0051298 -0.264373E-01  0.582E-02    0.07       1.0  T
   9   -937.0050118  0.118009E-03  0.544E-02    0.06       1.0  T
  10   -937.0114138 -0.640199E-02  0.252E-02    0.05       1.0  T
  11   -937.0124603 -0.104651E-02  0.153E-02    0.06       1.0  T
  12   -937.0127657 -0.305416E-03  0.122E-02    0.06       1.0  T
  13   -937.0127684 -0.264479E-05  0.106E-02    0.06       1.0  T
  14   -937.0128304 -0.619923E-04  0.661E-03    0.05       1.0  T
  15   -937.0129693 -0.138961E-03  0.860E-04    0.06       5.1  T
  16   -937.0129657  0.359740E-05  0.142E-03    0.06       3.1  T
  17   -937.0129706 -0.483727E-05  0.419E-04    0.06      10.4  T
  18   -937.0129709 -0.379723E-06  0.263E-04    0.06      16.6  T
  19   -937.0129710 -0.102493E-06  0.133E-04    0.06      32.9  T
  20   -937.0129711 -0.303302E-07  0.368E-05    0.06     118.8  T
     SCC iter.                  ...        0 min, 44.721 sec
     gradient                   ...        0 min,  1.715 sec
 * total energy  :  -921.8704612 Eh     change       -0.1061368E+00 Eh
   gradient norm :     0.4065053 Eh/a0  converged?    E=F G=F D=F
   step length   :     7.1212773 a0

........................................................................
.............................. CYCLE    6 ..............................
........................................................................
   1   -937.1070754 -0.937107E+03  0.109E-01    0.12       0.0  T
   2   -936.3270756  0.780000E+00  0.631E-01    0.16       1.0  T
   3   -936.7252975 -0.398222E+00  0.487E-01    0.13       1.0  T
   4   -936.9845046 -0.259207E+00  0.244E-01    0.01       1.0  T
   5   -937.0984250 -0.113920E+00  0.125E-01    0.03       1.0  T
   6   -937.0689671  0.294579E-01  0.117E-01    0.01       1.0  T
   7   -937.1172352 -0.482681E-01  0.711E-02    0.08       1.0  T
   8   -937.1257015 -0.846626E-02  0.375E-02    0.07       1.0  T
   9   -937.1280839 -0.238242E-02  0.229E-02    0.07       1.0  T
  10   -937.1273192  0.764739E-03  0.254E-02    0.06       1.0  T
  11   -937.1285201 -0.120096E-02  0.124E-02    0.07       1.0  T
  12   -937.1287807 -0.260538E-03  0.678E-03    0.07       1.0  T
  13   -937.1288264 -0.456825E-04  0.462E-03    0.07       1.0  T
  14   -937.1288595 -0.331813E-04  0.215E-03    0.07       2.0  T
  15   -937.1288741 -0.145947E-04  0.341E-04    0.07      12.8  T
  16   -937.1288738  0.327704E-06  0.513E-04    0.07       8.5  T
  17   -937.1288743 -0.464280E-06  0.251E-04    0.07      17.5  T
  18   -937.1288744 -0.118652E-06  0.151E-04    0.07      28.9  T
  19   -937.1288744 -0.418117E-07  0.581E-05    0.07      75.4  T
     SCC iter.                  ...        0 min, 41.545 sec
     gradient                   ...        0 min,  1.724 sec
 * total energy  :  -921.9407446 Eh     change       -0.7028345E-01 Eh
   gradient norm :     0.3064621 Eh/a0  converged?    E=F G=F D=F
   step length   :     5.3173214 a0

........................................................................
.............................. CYCLE    7 ..............................
........................................................................
   1   -937.2083472 -0.937208E+03  0.954E-02    0.13       0.0  T
   2   -936.4266184  0.781729E+00  0.622E-01    0.16       1.0  T
   3   -936.8951332 -0.468515E+00  0.443E-01    0.15       1.0  T
   4   -937.1675553 -0.272422E+00  0.156E-01    0.03       1.0  T
   5   -937.2075789 -0.400235E-01  0.906E-02    0.04       1.0  T
   6   -937.1982632  0.931569E-02  0.826E-02    0.03       1.0  T
   7   -937.2146846 -0.164214E-01  0.516E-02    0.06       1.0  T
   8   -937.2209690 -0.628442E-02  0.488E-02    0.09       1.0  T
   9   -937.2234251 -0.245610E-02  0.277E-02    0.09       1.0  T
  10   -937.2238429 -0.417830E-03  0.223E-02    0.07       1.0  T
  11   -937.2246399 -0.796949E-03  0.114E-02    0.07       1.0  T
  12   -937.2250202 -0.380307E-03  0.327E-03    0.08       1.3  T
  13   -937.2250328 -0.126345E-04  0.162E-03    0.08       2.7  T
  14   -937.2250363 -0.352077E-05  0.418E-04    0.08      10.5  T
  15   -937.2250362  0.107568E-06  0.453E-04    0.08       9.7  T
  16   -937.2250362 -0.137868E-08  0.385E-04    0.08      11.4  T
  17   -937.2250367 -0.446654E-06  0.136E-04    0.08      32.1  T
  18   -937.2250367 -0.562179E-07  0.534E-05    0.08      82.0  T
     SCC iter.                  ...        0 min, 39.903 sec
     gradient                   ...        0 min,  1.757 sec
 * total energy  :  -921.9868501 Eh     change       -0.4610549E-01 Eh
   gradient norm :     0.2221585 Eh/a0  converged?    E=F G=F D=F
   step length   :     6.2556502 a0

........................................................................
.............................. CYCLE    8 ..............................
........................................................................
   1   -937.3166159 -0.937317E+03  0.899E-02    0.14       0.0  T
   2   -936.5135995  0.803016E+00  0.620E-01    0.15       1.0  T
   3   -937.0257419 -0.512142E+00  0.427E-01    0.19       1.0  T
   4   -937.3143076 -0.288566E+00  0.843E-02    0.06       1.0  T
   5   -937.3057854  0.852223E-02  0.947E-02    0.05       1.0  T
   6   -937.3137556 -0.797019E-02  0.827E-02    0.05       1.0  T
   7   -937.3296415 -0.158859E-01  0.236E-02    0.08       1.0  T
   8   -937.3203314  0.931011E-02  0.470E-02    0.06       1.0  T
   9   -937.3290764 -0.874502E-02  0.268E-02    0.09       1.0  T
  10   -937.3300234 -0.946965E-03  0.149E-02    0.08       1.0  T
  11   -937.3306231 -0.599692E-03  0.464E-03    0.08       1.0  T
  12   -937.3306946 -0.715524E-04  0.751E-04    0.09       5.8  T
  13   -937.3306936  0.103558E-05  0.786E-04    0.09       5.6  T
  14   -937.3306951 -0.155569E-05  0.422E-04    0.09      10.4  T
  15   -937.3306954 -0.266623E-06  0.226E-04    0.09      19.4  T
  16   -937.3306955 -0.797035E-07  0.123E-04    0.09      35.6  T
  17   -937.3306955 -0.160284E-07  0.660E-05    0.09      66.3  T
     SCC iter.                  ...        0 min, 38.524 sec
     gradient                   ...        0 min,  1.735 sec
 * total energy  :  -922.0218739 Eh     change       -0.3502384E-01 Eh
   gradient norm :     0.1384716 Eh/a0  converged?    E=F G=F D=F
   step length   :     5.2653378 a0

........................................................................
.............................. CYCLE    9 ..............................
........................................................................
   1   -937.3917361 -0.937392E+03  0.754E-02    0.15       0.0  T
   2   -936.5576364  0.834100E+00  0.619E-01    0.15       1.0  T
   3   -937.2410183 -0.683382E+00  0.314E-01    0.17       1.0  T
   4   -937.3967001 -0.155682E+00  0.477E-02    0.09       1.0  T
   5   -937.3856743  0.110258E-01  0.742E-02    0.07       1.0  T
   6   -937.3920336 -0.635923E-02  0.676E-02    0.07       1.0  T
   7   -937.4003184 -0.828485E-02  0.232E-02    0.08       1.0  T
   8   -937.3950008  0.531763E-02  0.398E-02    0.07       1.0  T
   9   -937.4015579 -0.655708E-02  0.200E-02    0.10       1.0  T
  10   -937.4018724 -0.314527E-03  0.115E-02    0.09       1.0  T
  11   -937.4021117 -0.239362E-03  0.379E-03    0.09       1.2  T
  12   -937.4021429 -0.311927E-04  0.117E-03    0.09       3.8  T
  13   -937.4021453 -0.239522E-05  0.656E-04    0.09       6.7  T
  14   -937.4021463 -0.100642E-05  0.289E-04    0.09      15.1  T
  15   -937.4021465 -0.127695E-06  0.151E-04    0.09      29.0  T
  16   -937.4021465 -0.189156E-07  0.903E-05    0.09      48.5  T
     SCC iter.                  ...        0 min, 35.088 sec
     gradient                   ...        0 min,  1.697 sec
 * total energy  :  -922.0423895 Eh     change       -0.2051552E-01 Eh
   gradient norm :     0.0770327 Eh/a0  converged?    E=F G=F D=F
   step length   :     3.4406038 a0

........................................................................
.............................. CYCLE   10 ..............................
........................................................................
   1   -937.4490505 -0.937449E+03  0.644E-02    0.16       0.0  T
   2   -936.5905048  0.858546E+00  0.616E-01    0.13       1.0  T
   3   -937.3787445 -0.788240E+00  0.218E-01    0.17       1.0  T
   4   -937.4535870 -0.748425E-01  0.348E-02    0.12       1.0  T
   5   -937.4519311  0.165588E-02  0.410E-02    0.10       1.0  T
   6   -937.4444242  0.750689E-02  0.682E-02    0.07       1.0  T
   7   -937.4564165 -0.119923E-01  0.118E-02    0.10       1.0  T
   8   -937.4533312  0.308536E-02  0.283E-02    0.08       1.0  T
   9   -937.4562043 -0.287316E-02  0.136E-02    0.10       1.0  T
  10   -937.4565678 -0.363485E-03  0.107E-02    0.10       1.0  T
  11   -937.4567167 -0.148898E-03  0.494E-03    0.10       1.0  T
  12   -937.4567515 -0.347425E-04  0.156E-03    0.10       2.8  T
  13   -937.4567563 -0.481831E-05  0.726E-04    0.10       6.0  T
  14   -937.4567574 -0.107616E-05  0.104E-04    0.10      42.2  T
  15   -937.4567574 -0.241528E-08  0.943E-05    0.10      46.4  T
  16   -937.4567574 -0.101180E-07  0.411E-05    0.10     106.6  T
     SCC iter.                  ...        0 min, 35.064 sec
     gradient                   ...        0 min,  1.746 sec
 * total energy  :  -922.0550038 Eh     change       -0.1261433E-01 Eh
   gradient norm :     0.0469548 Eh/a0  converged?    E=F G=F D=F
   step length   :     3.5961011 a0

........................................................................
.............................. CYCLE   11 ..............................
........................................................................
   1   -937.4935829 -0.937494E+03  0.533E-02    0.16       0.0  T
   2   -936.6183283  0.875255E+00  0.610E-01    0.11       1.0  T
   3   -937.4764848 -0.858157E+00  0.112E-01    0.17       1.0  T
   4   -937.4957573 -0.192726E-01  0.363E-02    0.15       1.0  T
   5   -937.4976701 -0.191272E-02  0.297E-02    0.12       1.0  T
   6   -937.4981482 -0.478090E-03  0.200E-02    0.12       1.0  T
   7   -937.4982034 -0.552514E-04  0.181E-02    0.11       1.0  T
   8   -937.4987953 -0.591896E-03  0.114E-02    0.11       1.0  T
   9   -937.4971743  0.162097E-02  0.215E-02    0.09       1.0  T
  10   -937.4989538 -0.177950E-02  0.906E-03    0.11       1.0  T
  11   -937.4991357 -0.181868E-03  0.402E-03    0.11       1.1  T
  12   -937.4991607 -0.249981E-04  0.137E-03    0.11       3.2  T
  13   -937.4991635 -0.278339E-05  0.370E-04    0.11      11.8  T
  14   -937.4991635 -0.369798E-07  0.306E-04    0.11      14.3  T
  15   -937.4991638 -0.242886E-06  0.746E-05    0.11      58.7  T
  16   -937.4991638 -0.959801E-08  0.515E-05    0.11      85.0  T
     SCC iter.                  ...        0 min, 35.705 sec
     gradient                   ...        0 min,  1.717 sec
 * total energy  :  -922.0633251 Eh     change       -0.8321302E-02 Eh
   gradient norm :     0.0553831 Eh/a0  converged?    E=F G=F D=F
   step length   :     3.1430496 a0

........................................................................
.............................. CYCLE   12 ..............................
........................................................................
   1   -937.5274198 -0.937527E+03  0.458E-02    0.18       0.0  T
   2   -936.6748732  0.852547E+00  0.590E-01    0.10       1.0  T
   3   -937.5246027 -0.849729E+00  0.594E-02    0.19       1.0  T
   4   -937.5279349 -0.333221E-02  0.405E-02    0.17       1.0  T
   5   -937.5293089 -0.137398E-02  0.300E-02    0.15       1.0  T
   6   -937.5305206 -0.121172E-02  0.222E-02    0.15       1.0  T
   7   -937.5309927 -0.472164E-03  0.174E-02    0.13       1.0  T
   8   -937.5314905 -0.497792E-03  0.937E-03    0.13       1.0  T
   9   -937.5305292  0.961350E-03  0.193E-02    0.11       1.0  T
  10   -937.5305258  0.333076E-05  0.183E-02    0.11       1.0  T
  11   -937.5315540 -0.102820E-02  0.640E-03    0.12       1.0  T
  12   -937.5316647 -0.110701E-03  0.174E-03    0.12       2.5  T
  13   -937.5316710 -0.622115E-05  0.635E-04    0.12       6.9  T
  14   -937.5316714 -0.391207E-06  0.475E-04    0.12       9.2  T
  15   -937.5316719 -0.566981E-06  0.146E-04    0.12      30.0  T
  16   -937.5316720 -0.570788E-07  0.339E-05    0.12     129.1  T
     SCC iter.                  ...        0 min, 35.188 sec
     gradient                   ...        0 min,  1.706 sec
 * total energy  :  -922.0712335 Eh     change       -0.7908447E-02 Eh
   gradient norm :     0.0748675 Eh/a0  converged?    E=F G=F D=F
   step length   :     4.2911726 a0

........................................................................
.............................. CYCLE   13 ..............................
........................................................................
   1   -937.5464792 -0.937546E+03  0.410E-02    0.19       0.0  T
   2   -936.9439220  0.602557E+00  0.488E-01    0.03       1.0  T
   3   -937.5428649 -0.598943E+00  0.685E-02    0.23       1.0  T
   4   -937.5465621 -0.369716E-02  0.371E-02    0.22       1.0  T
   5   -937.5471913 -0.629168E-03  0.398E-02    0.18       1.0  T
   6   -937.5488090 -0.161777E-02  0.221E-02    0.17       1.0  T
   7   -937.5491315 -0.322496E-03  0.182E-02    0.16       1.0  T
   8   -937.5495842 -0.452640E-03  0.118E-02    0.15       1.0  T
   9   -937.5477066  0.187754E-02  0.269E-02    0.12       1.0  T
  10   -937.5487680 -0.106140E-02  0.192E-02    0.12       1.0  T
  11   -937.5497364 -0.968412E-03  0.732E-03    0.12       1.0  T
  12   -937.5498609 -0.124496E-03  0.273E-03    0.13       1.6  T
  13   -937.5498784 -0.175005E-04  0.971E-04    0.13       4.5  T
  14   -937.5498796 -0.116228E-05  0.681E-04    0.13       6.4  T
  15   -937.5498807 -0.114727E-05  0.213E-04    0.13      20.6  T
  16   -937.5498809 -0.116681E-06  0.543E-05    0.14      80.6  T
  17   -937.5498809  0.752277E-08  0.768E-05    0.14      57.0  T
     SCC iter.                  ...        0 min, 38.093 sec
     gradient                   ...        0 min,  1.722 sec
 * total energy  :  -922.0797026 Eh     change       -0.8469083E-02 Eh
   gradient norm :     0.0935688 Eh/a0  converged?    E=F G=F D=F
   step length   :     6.0421700 a0

........................................................................
.............................. CYCLE   14 ..............................
........................................................................
   1   -937.5597796 -0.937560E+03  0.351E-02    0.22       0.0  T
   2   -937.2060596  0.353720E+00  0.379E-01    0.05       1.0  T
   3   -937.5551492 -0.349090E+00  0.678E-02    0.16       1.0  T
   4   -937.5605721 -0.542287E-02  0.262E-02    0.22       1.0  T
   5   -937.5607332 -0.161137E-03  0.307E-02    0.20       1.0  T
   6   -937.5606742  0.590249E-04  0.237E-02    0.16       1.0  T
   7   -937.5618939 -0.121968E-02  0.124E-02    0.16       1.0  T
   8   -937.5619412 -0.473235E-04  0.950E-03    0.14       1.0  T
   9   -937.5616464  0.294813E-03  0.132E-02    0.13       1.0  T
  10   -937.5620501 -0.403764E-03  0.517E-03    0.14       1.0  T
  11   -937.5621139 -0.637760E-04  0.175E-03    0.15       2.5  T
  12   -937.5621207 -0.677010E-05  0.654E-04    0.15       6.7  T
  13   -937.5621217 -0.105325E-05  0.241E-04    0.15      18.2  T
  14   -937.5621219 -0.139185E-06  0.639E-05    0.15      68.5  T
  15   -937.5621219 -0.615512E-08  0.333E-05    0.15     131.6  T
     SCC iter.                  ...        0 min, 32.763 sec
     gradient                   ...        0 min,  1.719 sec
 * total energy  :  -922.0892954 Eh     change       -0.9592771E-02 Eh
   gradient norm :     0.1145453 Eh/a0  converged?    E=F G=F D=F
   step length   :   231.2139988 a0

........................................................................
.............................. CYCLE   15 ..............................
........................................................................
   1   -937.5693967 -0.937569E+03  0.294E-02    0.25       0.0  T
   2   -937.4032043  0.166192E+00  0.258E-01    0.01       1.0  T
   3   -937.5682661 -0.165062E+00  0.464E-02    0.27       1.0  T
   4   -937.5699570 -0.169094E-02  0.218E-02    0.25       1.0  T
   5   -937.5700865 -0.129511E-03  0.242E-02    0.22       1.0  T
   6   -937.5707253 -0.638721E-03  0.102E-02    0.20       1.0  T
   7   -937.5709283 -0.203000E-03  0.474E-03    0.18       1.0  T
   8   -937.5707811  0.147107E-03  0.825E-03    0.15       1.0  T
   9   -937.5708800 -0.988352E-04  0.511E-03    0.16       1.0  T
  10   -937.5709417 -0.616702E-04  0.172E-03    0.17       2.5  T
  11   -937.5709483 -0.668536E-05  0.545E-04    0.17       8.0  T
  12   -937.5709490 -0.613912E-06  0.258E-04    0.17      17.0  T
  13   -937.5709491 -0.157424E-06  0.104E-04    0.17      42.2  T
  14   -937.5709491 -0.235912E-07  0.417E-05    0.17     105.0  T
     SCC iter.                  ...        0 min, 30.581 sec
     gradient                   ...        0 min,  1.716 sec
 * total energy  :  -922.1002524 Eh     change       -0.1095705E-01 Eh
   gradient norm :     0.1381507 Eh/a0  converged?    E=F G=F D=F
   step length   :  1060.5554692 a0

........................................................................
.............................. CYCLE   16 ..............................
........................................................................
   1   -937.5754714 -0.937575E+03  0.258E-02    0.28       0.0  T
   2   -937.5572624  0.182091E-01  0.933E-02    0.08       1.0  T
   3   -937.5756138 -0.183514E-01  0.267E-02    0.28       1.0  T
   4   -937.5763118 -0.697977E-03  0.111E-02    0.25       1.0  T
   5   -937.5763267 -0.149737E-04  0.145E-02    0.21       1.0  T
   6   -937.5764300 -0.103264E-03  0.758E-03    0.18       1.0  T
   7   -937.5764402 -0.101791E-04  0.642E-03    0.18       1.0  T
   8   -937.5765131 -0.729572E-04  0.248E-03    0.19       1.8  T
   9   -937.5765266 -0.134488E-04  0.675E-04    0.20       6.5  T
  10   -937.5765275 -0.884622E-06  0.135E-04    0.20      32.5  T
  11   -937.5765275 -0.825321E-08  0.751E-05    0.20      58.3  T
     SCC iter.                  ...        0 min, 24.063 sec
     gradient                   ...        0 min,  1.684 sec
 * total energy  :  -922.1126569 Eh     change       -0.1240445E-01 Eh
   gradient norm :     0.1638288 Eh/a0  converged?    E=F G=F D=F
   step length   :  4831.5722964 a0

........................................................................
.............................. CYCLE   17 ..............................
........................................................................
   1   -937.5783100 -0.937578E+03  0.226E-02    0.33       0.0  T
   2   -937.5775032  0.806835E-03  0.389E-02    0.20       1.0  T
   3   -937.5789346 -0.143136E-02  0.107E-02    0.26       1.0  T
   4   -937.5788302  0.104333E-03  0.132E-02    0.24       1.0  T
   5   -937.5789093 -0.790758E-04  0.716E-03    0.23       1.0  T
   6   -937.5789797 -0.703640E-04  0.197E-03    0.25       2.2  T
   7   -937.5789807 -0.103196E-05  0.797E-04    0.25       5.5  T
   8   -937.5789809 -0.243770E-06  0.429E-04    0.25      10.2  T
   9   -937.5789812 -0.270009E-06  0.182E-04    0.25      24.1  T
  10   -937.5789813 -0.436336E-07  0.505E-05    0.25      86.6  T
     SCC iter.                  ...        0 min, 21.848 sec
     gradient                   ...        0 min,  1.690 sec
 * total energy  :  -922.1265335 Eh     change       -0.1387662E-01 Eh
   gradient norm :     0.1909927 Eh/a0  converged?    E=F G=F D=F
   step length   : 21828.2977032 a0

........................................................................
.............................. CYCLE   18 ..............................
........................................................................
   1   -937.5776932 -0.937578E+03  0.203E-02    0.40       0.0  T
   2   -937.5775095  0.183731E-03  0.297E-02    0.33       1.0  T
   3   -937.5780956 -0.586078E-03  0.104E-02    0.35       1.0  T
   4   -937.5780389  0.566429E-04  0.107E-02    0.36       1.0  T
   5   -937.5781247 -0.857261E-04  0.331E-03    0.35       1.3  T
   6   -937.5781324 -0.775243E-05  0.133E-03    0.36       3.3  T
   7   -937.5781347 -0.225021E-05  0.377E-04    0.35      11.6  T
   8   -937.5781348 -0.119374E-06  0.167E-04    0.35      26.3  T
   9   -937.5781348 -0.196355E-07  0.729E-05    0.35      60.0  T
     SCC iter.                  ...        0 min, 19.597 sec
     gradient                   ...        0 min,  1.776 sec
 * total energy  :  -922.1414907 Eh     change       -0.1495720E-01 Eh
   gradient norm :     0.2186923 Eh/a0  converged?    E=F G=F D=F
   step length   : 96405.3987761 a0

........................................................................
.............................. CYCLE   19 ..............................
........................................................................
   1   -937.5730602 -0.937573E+03  0.196E-02    0.52       0.0  T
   2   -937.5729886  0.715993E-04  0.255E-02    0.50       1.0  T
   3   -937.5733838 -0.395201E-03  0.944E-03    0.50       1.0  T
   4   -937.5733525  0.313855E-04  0.825E-03    0.51       1.0  T
   5   -937.5733960 -0.435124E-04  0.310E-03    0.51       1.4  T
   6   -937.5734029 -0.689445E-05  0.104E-03    0.52       4.2  T
   7   -937.5734044 -0.152671E-05  0.344E-04    0.51      12.7  T
   8   -937.5734045 -0.147346E-06  0.151E-04    0.51      29.0  T
   9   -937.5734046 -0.228401E-07  0.604E-05    0.51      72.5  T
     SCC iter.                  ...        0 min, 19.628 sec
     gradient                   ...        0 min,  1.770 sec
 * total energy  :  -922.1566853 Eh     change       -0.1519459E-01 Eh
   gradient norm :     0.2464737 Eh/a0  converged?    E=F G=F D=F
   step length   :404001.0775021 a0

........................................................................
.............................. CYCLE   20 ..............................
........................................................................
   1   -937.5678755 -0.937568E+03  0.206E-02    0.71       0.0  T
   2   -937.5678620  0.134784E-04  0.249E-02    0.69       1.0  T
   3   -937.5681950 -0.332979E-03  0.966E-03    0.70       1.0  T
   4   -937.5681648  0.301856E-04  0.751E-03    0.71       1.0  T
   5   -937.5681963 -0.315003E-04  0.312E-03    0.70       1.4  T
   6   -937.5682047 -0.831904E-05  0.860E-04    0.71       5.1  T
   7   -937.5682057 -0.102595E-05  0.304E-04    0.70      14.4  T
   8   -937.5682058 -0.113130E-06  0.129E-04    0.70      34.0  T
   9   -937.5682058 -0.166998E-07  0.576E-05    0.70      75.9  T
     SCC iter.                  ...        0 min, 19.755 sec
     gradient                   ...        0 min,  1.711 sec
 * total energy  :  -922.1720925 Eh     change       -0.1540725E-01 Eh
   gradient norm :     0.2718091 Eh/a0  converged?    E=F G=F D=F
   step length   :   795.7790626 a0
 * RMSD in coord.:     0.7324417 a0     energy gain  -0.1977690E+01 Eh
 * calculating model hessian...
Using Lindh-Hessian (1995)
 Shifting diagonal of input Hessian by    1.0083701394032687E-002
 Lowest  eigenvalues of input Hessian
    0.010000    0.010077    0.010079    0.010080    0.010081    0.010081
    0.010082    0.010082    0.010083    0.010083    0.010083    0.010083
    0.010084    0.000000    0.000000    0.000000    0.000000    0.000000
 Highest eigenvalues
    2.782274    2.949833    2.955858    2.957039    2.957525    2.959093


........................................................................
.............................. CYCLE   21 ..............................
........................................................................
   1   -937.6463753 -0.937646E+03  0.446E-02    0.78       0.0  T
   2   -937.6460567  0.318666E-03  0.564E-02    0.78       1.0  T
   3   -937.6482275 -0.217085E-02  0.126E-02    0.78       1.0  T
   4   -937.6482022  0.253239E-04  0.802E-03    0.79       1.0  T
   5   -937.6482320 -0.297822E-04  0.447E-03    0.79       1.0  T
   6   -937.6482517 -0.196697E-04  0.127E-03    0.79       3.4  T
   7   -937.6482530 -0.132088E-05  0.370E-04    0.79      11.8  T
   8   -937.6482531 -0.885010E-07  0.195E-04    0.79      22.5  T
   9   -937.6482531 -0.337676E-07  0.108E-04    0.79      40.5  T
     SCC iter.                  ...        0 min, 19.884 sec
     gradient                   ...        0 min,  1.717 sec
 * total energy  :  -922.2333748 Eh     change       -0.6128223E-01 Eh
   gradient norm :     0.1538206 Eh/a0  converged?    E=F G=F D=F
   step length   :     0.5080375 a0

........................................................................
.............................. CYCLE   22 ..............................
........................................................................
   1   -937.6783762 -0.937678E+03  0.428E-02    0.75       0.0  T
   2   -937.6791553 -0.779047E-03  0.436E-02    0.75       1.0  T
   3   -937.6799782 -0.822918E-03  0.142E-02    0.75       1.0  T
   4   -937.6799462  0.319991E-04  0.764E-03    0.76       1.0  T
   5   -937.6799641 -0.179136E-04  0.434E-03    0.76       1.0  T
   6   -937.6799910 -0.268965E-04  0.138E-03    0.76       3.2  T
   7   -937.6799932 -0.223670E-05  0.499E-04    0.76       8.8  T
   8   -937.6799935 -0.253244E-06  0.225E-04    0.76      19.4  T
   9   -937.6799935 -0.602676E-07  0.107E-04    0.76      40.8  T
  10   -937.6799935 -0.109479E-07  0.317E-05    0.76     138.0  T
     SCC iter.                  ...        0 min, 22.339 sec
     gradient                   ...        0 min,  1.745 sec
 * total energy  :  -922.2905659 Eh     change       -0.5719108E-01 Eh
   gradient norm :     0.1040857 Eh/a0  converged?    E=F G=F D=F
   step length   :     3.7504813 a0

........................................................................
.............................. CYCLE   23 ..............................
........................................................................
   1   -937.6996069 -0.937700E+03  0.354E-02    0.73       0.0  T
   2   -937.7000881 -0.481119E-03  0.333E-02    0.73       1.0  T
   3   -937.7004018 -0.313767E-03  0.138E-02    0.73       1.0  T
   4   -937.7003282  0.736105E-04  0.974E-03    0.73       1.0  T
   5   -937.7003938 -0.655924E-04  0.313E-03    0.73       1.4  T
   6   -937.7004099 -0.161183E-04  0.114E-03    0.73       3.8  T
   7   -937.7004115 -0.157110E-05  0.504E-04    0.73       8.7  T
   8   -937.7004118 -0.348761E-06  0.166E-04    0.73      26.4  T
   9   -937.7004119 -0.311901E-07  0.730E-05    0.73      60.0  T
     SCC iter.                  ...        0 min, 19.952 sec
     gradient                   ...        0 min,  1.675 sec
 * total energy  :  -922.3374854 Eh     change       -0.4691950E-01 Eh
   gradient norm :     0.0977293 Eh/a0  converged?    E=F G=F D=F
   step length   :    18.7531287 a0

........................................................................
.............................. CYCLE   24 ..............................
........................................................................
   1   -937.7118151 -0.937712E+03  0.322E-02    0.71       0.0  T
   2   -937.7120310 -0.215954E-03  0.322E-02    0.71       1.0  T
   3   -937.7122878 -0.256727E-03  0.154E-02    0.71       1.0  T
   4   -937.7121456  0.142173E-03  0.114E-02    0.71       1.0  T
   5   -937.7122849 -0.139302E-03  0.259E-03    0.71       1.7  T
   6   -937.7122947 -0.980938E-05  0.686E-04    0.71       6.4  T
   7   -937.7122951 -0.400976E-06  0.396E-04    0.71      11.0  T
   8   -937.7122954 -0.260039E-06  0.117E-04    0.71      37.3  T
   9   -937.7122954 -0.155334E-07  0.500E-05    0.71      87.6  T
     SCC iter.                  ...        0 min, 19.887 sec
     gradient                   ...        0 min,  1.755 sec
 * total energy  :  -922.3703552 Eh     change       -0.3286980E-01 Eh
   gradient norm :     0.1067733 Eh/a0  converged?    E=F G=F D=F
   step length   :    13.1295327 a0

........................................................................
.............................. CYCLE   25 ..............................
........................................................................
   1   -937.7159113 -0.937716E+03  0.225E-02    0.69       0.0  T
   2   -937.7159799 -0.686054E-04  0.233E-02    0.69       1.0  T
   3   -937.7161782 -0.198240E-03  0.967E-03    0.69       1.0  T
   4   -937.7160877  0.904450E-04  0.864E-03    0.69       1.0  T
   5   -937.7161794 -0.917030E-04  0.183E-03    0.69       2.4  T
   6   -937.7161830 -0.354812E-05  0.345E-04    0.69      12.7  T
   7   -937.7161830 -0.511106E-07  0.209E-04    0.69      21.0  T
   8   -937.7161831 -0.735463E-07  0.657E-05    0.69      66.6  T
   9   -937.7161831 -0.542343E-08  0.276E-05    0.69     158.4  T
     SCC iter.                  ...        0 min, 20.495 sec
     gradient                   ...        0 min,  1.690 sec
 * total energy  :  -922.3836384 Eh     change       -0.1328329E-01 Eh
   gradient norm :     0.1270535 Eh/a0  converged?    E=F G=F D=F
   step length   :     4.0617941 a0

........................................................................
.............................. CYCLE   26 ..............................
........................................................................
   1   -937.7374174 -0.937737E+03  0.138E-02    0.69       0.0  T
   2   -937.7374122  0.520264E-05  0.121E-02    0.69       1.0  T
   3   -937.7374872 -0.750374E-04  0.533E-03    0.69       1.0  T
   4   -937.7374682  0.189988E-04  0.479E-03    0.69       1.0  T
   5   -937.7374969 -0.287367E-04  0.942E-04    0.69       4.6  T
   6   -937.7374979 -0.100593E-05  0.206E-04    0.69      21.3  T
   7   -937.7374980 -0.407241E-07  0.112E-04    0.69      39.2  T
   8   -937.7374980 -0.212165E-07  0.397E-05    0.69     110.2  T
     SCC iter.                  ...        0 min, 17.797 sec
     gradient                   ...        0 min,  1.729 sec
 * total energy  :  -922.4011270 Eh     change       -0.1748858E-01 Eh
   gradient norm :     0.1271634 Eh/a0  converged?    E=F G=F D=F
   step length   :     3.2370947 a0

........................................................................
.............................. CYCLE   27 ..............................
........................................................................
   1   -937.7453452 -0.937745E+03  0.101E-02    0.69       0.0  T
   2   -937.7453756 -0.304031E-04  0.846E-03    0.69       1.0  T
   3   -937.7454095 -0.338859E-04  0.383E-03    0.69       1.1  T
   4   -937.7453927  0.167888E-04  0.386E-03    0.69       1.1  T
   5   -937.7454123 -0.195915E-04  0.975E-04    0.69       4.5  T
   6   -937.7454132 -0.884943E-06  0.255E-04    0.69      17.2  T
   7   -937.7454133 -0.829539E-07  0.107E-04    0.69      40.9  T
   8   -937.7454133 -0.175598E-07  0.392E-05    0.69     111.6  T
     SCC iter.                  ...        0 min, 17.741 sec
     gradient                   ...        0 min,  1.712 sec
 * total energy  :  -922.4179913 Eh     change       -0.1686428E-01 Eh
   gradient norm :     0.0969596 Eh/a0  converged?    E=F G=F D=F
   step length   :     5.2159833 a0

........................................................................
.............................. CYCLE   28 ..............................
........................................................................
   1   -937.7533950 -0.937753E+03  0.941E-03    0.69       0.0  T
   2   -937.7534182 -0.231562E-04  0.756E-03    0.69       1.0  T
   3   -937.7534467 -0.285183E-04  0.360E-03    0.69       1.2  T
   4   -937.7534331  0.135934E-04  0.368E-03    0.69       1.2  T
   5   -937.7534516 -0.184778E-04  0.894E-04    0.69       4.9  T
   6   -937.7534523 -0.683614E-06  0.263E-04    0.69      16.7  T
   7   -937.7534524 -0.928463E-07  0.100E-04    0.69      43.7  T
   8   -937.7534524 -0.149439E-07  0.365E-05    0.69     119.9  T
     SCC iter.                  ...        0 min, 17.775 sec
     gradient                   ...        0 min,  1.700 sec
 * total energy  :  -922.4313189 Eh     change       -0.1332758E-01 Eh
   gradient norm :     0.0760196 Eh/a0  converged?    E=F G=F D=F
   step length   :     8.0773251 a0

........................................................................
.............................. CYCLE   29 ..............................
........................................................................
   1   -937.7631379 -0.937763E+03  0.736E-03    0.70       0.0  T
   2   -937.7631425 -0.457886E-05  0.572E-03    0.70       1.0  T
   3   -937.7631620 -0.194230E-04  0.296E-03    0.70       1.5  T
   4   -937.7631630 -0.104054E-05  0.258E-03    0.70       1.7  T
   5   -937.7631703 -0.728982E-05  0.639E-04    0.70       6.9  T
   6   -937.7631707 -0.448279E-06  0.240E-04    0.70      18.2  T
   7   -937.7631708 -0.914151E-07  0.730E-05    0.70      60.0  T
   8   -937.7631708 -0.650630E-08  0.269E-05    0.70     162.9  T
     SCC iter.                  ...        0 min, 17.264 sec
     gradient                   ...        0 min,  1.700 sec
 * total energy  :  -922.4410580 Eh     change       -0.9739137E-02 Eh
   gradient norm :     0.0656082 Eh/a0  converged?    E=F G=F D=F
   step length   :     5.1925288 a0

........................................................................
.............................. CYCLE   30 ..............................
........................................................................
   1   -937.7751173 -0.937775E+03  0.701E-03    0.70       0.0  T
   2   -937.7751165  0.798379E-06  0.576E-03    0.70       1.0  T
   3   -937.7751411 -0.246196E-04  0.270E-03    0.70       1.6  T
   4   -937.7751423 -0.123905E-05  0.233E-03    0.70       1.9  T
   5   -937.7751477 -0.540956E-05  0.593E-04    0.70       7.4  T
   6   -937.7751481 -0.374821E-06  0.243E-04    0.70      18.0  T
   7   -937.7751482 -0.100489E-06  0.677E-05    0.70      64.7  T
   8   -937.7751482 -0.502723E-08  0.246E-05    0.70     177.9  T
     SCC iter.                  ...        0 min, 17.244 sec
     gradient                   ...        0 min,  1.591 sec
 * total energy  :  -922.4495925 Eh     change       -0.8534466E-02 Eh
   gradient norm :     0.0564704 Eh/a0  converged?    E=F G=F D=F
   step length   :     8.2661665 a0

........................................................................
.............................. CYCLE   31 ..............................
........................................................................
   1   -937.7887301 -0.937789E+03  0.599E-03    0.71       0.0  T
   2   -937.7887315 -0.133622E-05  0.489E-03    0.71       1.0  T
   3   -937.7887491 -0.176772E-04  0.228E-03    0.71       1.9  T
   4   -937.7887497 -0.587150E-06  0.206E-03    0.71       2.1  T
   5   -937.7887543 -0.459056E-05  0.527E-04    0.71       8.3  T
   6   -937.7887546 -0.226078E-06  0.233E-04    0.71      18.8  T
   7   -937.7887546 -0.834116E-07  0.662E-05    0.71      66.1  T
   8   -937.7887546 -0.497062E-08  0.247E-05    0.71     177.2  T
     SCC iter.                  ...        0 min, 17.519 sec
     gradient                   ...        0 min,  1.704 sec
 * total energy  :  -922.4565634 Eh     change       -0.6970944E-02 Eh
   gradient norm :     0.0450348 Eh/a0  converged?    E=F G=F D=F
   step length   :     4.3815607 a0

........................................................................
.............................. CYCLE   32 ..............................
........................................................................
   1   -937.8069642 -0.937807E+03  0.535E-03    0.72       0.0  T
   2   -937.8069659 -0.165831E-05  0.435E-03    0.72       1.0  T
   3   -937.8069795 -0.136347E-04  0.200E-03    0.72       2.2  T
   4   -937.8069794  0.116694E-06  0.191E-03    0.72       2.3  T
   5   -937.8069836 -0.421031E-05  0.463E-04    0.72       9.4  T
   6   -937.8069838 -0.154762E-06  0.192E-04    0.72      22.8  T
   7   -937.8069838 -0.500891E-07  0.584E-05    0.72      74.9  T
     SCC iter.                  ...        0 min, 15.443 sec
     gradient                   ...        0 min,  1.847 sec
 * total energy  :  -922.4627350 Eh     change       -0.6171616E-02 Eh
   gradient norm :     0.0356982 Eh/a0  converged?    E=F G=F D=F
   step length   :     6.6607509 a0

........................................................................
.............................. CYCLE   33 ..............................
........................................................................
   1   -937.8251042 -0.937825E+03  0.490E-03    0.73       0.0  T
   2   -937.8251062 -0.203633E-05  0.397E-03    0.73       1.1  T
   3   -937.8251169 -0.106108E-04  0.179E-03    0.73       2.4  T
   4   -937.8251162  0.649613E-06  0.173E-03    0.73       2.5  T
   5   -937.8251198 -0.363407E-05  0.403E-04    0.73      10.9  T
   6   -937.8251199 -0.950578E-07  0.172E-04    0.73      25.5  T
   7   -937.8251200 -0.395041E-07  0.546E-05    0.73      80.2  T
     SCC iter.                  ...        0 min, 15.124 sec
     gradient                   ...        0 min,  1.666 sec
 * total energy  :  -922.4673376 Eh     change       -0.4602560E-02 Eh
   gradient norm :     0.0300165 Eh/a0  converged?    E=F G=F D=F
   step length   :     5.1173260 a0

........................................................................
.............................. CYCLE   34 ..............................
........................................................................
   1   -937.8466092 -0.937847E+03  0.465E-03    0.73       0.0  T
   2   -937.8466118 -0.253129E-05  0.372E-03    0.73       1.2  T
   3   -937.8466211 -0.928627E-05  0.164E-03    0.73       2.7  T
   4   -937.8466202  0.838197E-06  0.160E-03    0.73       2.7  T
   5   -937.8466234 -0.322737E-05  0.349E-04    0.73      12.5  T
   6   -937.8466235 -0.620295E-07  0.169E-04    0.73      25.8  T
   7   -937.8466235 -0.389385E-07  0.499E-05    0.73      87.7  T
     SCC iter.                  ...        0 min, 15.177 sec
     gradient                   ...        0 min,  1.735 sec
 * total energy  :  -922.4719369 Eh     change       -0.4599247E-02 Eh
   gradient norm :     0.0246118 Eh/a0  converged?    E=F G=F D=F
   step length   :     6.4878731 a0

........................................................................
.............................. CYCLE   35 ..............................
........................................................................
   1   -937.8693913 -0.937869E+03  0.391E-03    0.74       0.0  T
   2   -937.8693946 -0.322949E-05  0.285E-03    0.74       1.5  T
   3   -937.8693988 -0.426999E-05  0.139E-03    0.74       3.1  T
   4   -937.8693987  0.176695E-06  0.130E-03    0.74       3.4  T
   5   -937.8694008 -0.210735E-05  0.292E-04    0.74      15.0  T
   6   -937.8694008 -0.479840E-07  0.133E-04    0.74      32.9  T
   7   -937.8694008 -0.210858E-07  0.405E-05    0.74     108.1  T
     SCC iter.                  ...        0 min, 15.260 sec
     gradient                   ...        0 min,  1.664 sec
 * total energy  :  -922.4757162 Eh     change       -0.3779390E-02 Eh
   gradient norm :     0.0251692 Eh/a0  converged?    E=F G=F D=F
   step length   :     4.3000630 a0

........................................................................
.............................. CYCLE   36 ..............................
........................................................................
   1   -937.8921329 -0.937892E+03  0.387E-03    0.75       0.0  T
   2   -937.8921370 -0.410617E-05  0.277E-03    0.75       1.6  T
   3   -937.8921410 -0.397041E-05  0.129E-03    0.75       3.4  T
   4   -937.8921405  0.567189E-06  0.121E-03    0.75       3.6  T
   5   -937.8921423 -0.182124E-05  0.298E-04    0.75      14.7  T
   6   -937.8921423 -0.671727E-07  0.140E-04    0.75      31.3  T
   7   -937.8921424 -0.245667E-07  0.431E-05    0.75     101.5  T
     SCC iter.                  ...        0 min, 15.494 sec
     gradient                   ...        0 min,  1.716 sec
 * total energy  :  -922.4792547 Eh     change       -0.3538445E-02 Eh
   gradient norm :     0.0266051 Eh/a0  converged?    E=F G=F D=F
   step length   :     5.8335729 a0

........................................................................
.............................. CYCLE   37 ..............................
........................................................................
   1   -937.9141796 -0.937914E+03  0.330E-03    0.75       0.0  T
   2   -937.9141830 -0.340532E-05  0.217E-03    0.75       2.0  T
   3   -937.9141850 -0.193184E-05  0.113E-03    0.75       3.9  T
   4   -937.9141847  0.266389E-06  0.982E-04    0.75       4.5  T
   5   -937.9141859 -0.120418E-05  0.257E-04    0.75      17.1  T
   6   -937.9141860 -0.603997E-07  0.113E-04    0.75      38.8  T
   7   -937.9141860 -0.138301E-07  0.336E-05    0.75     130.4  T
     SCC iter.                  ...        0 min, 14.939 sec
     gradient                   ...        0 min,  1.701 sec
 * total energy  :  -922.4823431 Eh     change       -0.3088364E-02 Eh
   gradient norm :     0.0301547 Eh/a0  converged?    E=F G=F D=F
   step length   :     6.6091223 a0

........................................................................
.............................. CYCLE   38 ..............................
........................................................................
   1   -937.9356912 -0.937936E+03  0.294E-03    0.75       0.0  T
   2   -937.9356940 -0.278426E-05  0.183E-03    0.75       2.4  T
   3   -937.9356951 -0.112752E-05  0.101E-03    0.75       4.3  T
   4   -937.9356950  0.174919E-06  0.794E-04    0.75       5.5  T
   5   -937.9356957 -0.732298E-06  0.258E-04    0.75      16.9  T
   6   -937.9356958 -0.835336E-07  0.104E-04    0.75      42.0  T
   7   -937.9356958 -0.122142E-07  0.311E-05    0.75     140.8  T
     SCC iter.                  ...        0 min, 14.885 sec
     gradient                   ...        0 min,  1.751 sec
 * total energy  :  -922.4853736 Eh     change       -0.3030584E-02 Eh
   gradient norm :     0.0325139 Eh/a0  converged?    E=F G=F D=F
   step length   :     5.9017044 a0

........................................................................
.............................. CYCLE   39 ..............................
........................................................................
   1   -937.9546074 -0.937955E+03  0.312E-03    0.76       0.0  T
   2   -937.9546104 -0.298706E-05  0.211E-03    0.76       2.1  T
   3   -937.9546122 -0.186077E-05  0.100E-03    0.76       4.4  T
   4   -937.9546119  0.330741E-06  0.790E-04    0.76       5.5  T
   5   -937.9546125 -0.647582E-06  0.258E-04    0.76      17.0  T
   6   -937.9546126 -0.798482E-07  0.108E-04    0.76      40.7  T
   7   -937.9546126 -0.135199E-07  0.376E-05    0.76     116.4  T
     SCC iter.                  ...        0 min, 15.089 sec
     gradient                   ...        0 min,  1.871 sec
 * total energy  :  -922.4882240 Eh     change       -0.2850337E-02 Eh
   gradient norm :     0.0339199 Eh/a0  converged?    E=F G=F D=F
   step length   :     7.5052378 a0

........................................................................
.............................. CYCLE   40 ..............................
........................................................................
   1   -937.9729633 -0.937973E+03  0.243E-03    0.76       0.0  T
   2   -937.9729650 -0.164867E-05  0.142E-03    0.76       3.1  T
   3   -937.9729654 -0.480685E-06  0.860E-04    0.76       5.1  T
   4   -937.9729655 -0.427819E-07  0.572E-04    0.76       7.7  T
   5   -937.9729658 -0.343741E-06  0.230E-04    0.76      19.1  T
   6   -937.9729659 -0.780457E-07  0.869E-05    0.76      50.3  T
   7   -937.9729659 -0.795012E-08  0.309E-05    0.76     141.8  T
     SCC iter.                  ...        0 min, 15.467 sec
     gradient                   ...        0 min,  1.696 sec
 * total energy  :  -922.4910031 Eh     change       -0.2779159E-02 Eh
   gradient norm :     0.0343058 Eh/a0  converged?    E=F G=F D=F
   step length   :     5.5857054 a0

........................................................................
.............................. CYCLE   41 ..............................
........................................................................
   1   -937.9885079 -0.937989E+03  0.234E-03    0.76       0.0  T
   2   -937.9885092 -0.131027E-05  0.139E-03    0.76       3.1  T
   3   -937.9885097 -0.476446E-06  0.848E-04    0.76       5.2  T
   4   -937.9885098 -0.121514E-06  0.562E-04    0.76       7.8  T
   5   -937.9885102 -0.326174E-06  0.229E-04    0.76      19.1  T
   6   -937.9885102 -0.767695E-07  0.789E-05    0.76      55.5  T
   7   -937.9885102 -0.578166E-08  0.291E-05    0.76     150.5  T
     SCC iter.                  ...        0 min, 15.577 sec
     gradient                   ...        0 min,  1.710 sec
 * total energy  :  -922.4935463 Eh     change       -0.2543137E-02 Eh
   gradient norm :     0.0338428 Eh/a0  converged?    E=F G=F D=F
   step length   :     8.3242591 a0

........................................................................
.............................. CYCLE   42 ..............................
........................................................................
   1   -938.0043658 -0.938004E+03  0.499E-03    0.75       0.0  T
   2   -938.0043688 -0.296071E-05  0.368E-03    0.75       1.2  T
   3   -938.0043762 -0.741581E-05  0.176E-03    0.75       2.5  T
   4   -938.0043765 -0.340180E-06  0.157E-03    0.75       2.8  T
   5   -938.0043795 -0.299533E-05  0.396E-04    0.75      11.0  T
   6   -938.0043796 -0.839020E-07  0.125E-04    0.75      35.1  T
   7   -938.0043796 -0.124102E-07  0.628E-05    0.75      69.7  T
     SCC iter.                  ...        0 min, 15.438 sec
     gradient                   ...        0 min,  1.704 sec
 * total energy  :  -922.4978159 Eh     change       -0.4269592E-02 Eh
   gradient norm :     0.0194208 Eh/a0  converged?    E=F G=F D=F
   step length   :     6.5945212 a0
 * RMSD in coord.:     0.7837563 a0     energy gain  -0.3257233E+00 Eh
 * calculating model hessian...
Using Lindh-Hessian (1995)
 Shifting diagonal of input Hessian by    1.0003928219484806E-002
 Lowest  eigenvalues of input Hessian
    0.010000    0.010001    0.010001    0.010002    0.010002    0.010003
    0.010003    0.010003    0.010004    0.010004    0.000000    0.000000
    0.000000    0.000000    0.000000    0.000000    0.010004    0.010004
 Highest eigenvalues
    2.946156    2.950825    2.950956    2.963852    2.990375    3.006198


........................................................................
.............................. CYCLE   43 ..............................
........................................................................
   1   -938.0007458 -0.938001E+03  0.277E-03    0.74       0.0  T
   2   -938.0007498 -0.400025E-05  0.153E-03    0.74       2.9  T
   3   -938.0007507 -0.925358E-06  0.722E-04    0.74       6.1  T
   4   -938.0007505  0.193795E-06  0.671E-04    0.74       6.5  T
   5   -938.0007509 -0.453094E-06  0.183E-04    0.74      23.9  T
   6   -938.0007510 -0.292991E-07  0.969E-05    0.74      45.2  T
     SCC iter.                  ...        0 min, 13.097 sec
     gradient                   ...        0 min,  1.759 sec
 * total energy  :  -922.4992193 Eh     change       -0.1403420E-02 Eh
   gradient norm :     0.0118516 Eh/a0  converged?    E=F G=F D=F
   step length   :     0.3071407 a0

........................................................................
.............................. CYCLE   44 ..............................
........................................................................
   1   -937.9835234 -0.937984E+03  0.819E-03    0.73       0.0  T
   2   -937.9835586 -0.352130E-04  0.449E-03    0.73       1.0  T
   3   -937.9835669 -0.827510E-05  0.213E-03    0.73       2.1  T
   4   -937.9835655  0.140386E-05  0.197E-03    0.73       2.2  T
   5   -937.9835694 -0.392494E-05  0.544E-04    0.73       8.1  T
   6   -937.9835697 -0.258127E-06  0.294E-04    0.73      14.9  T
   7   -937.9835698 -0.123936E-06  0.866E-05    0.73      50.6  T
   8   -937.9835698 -0.753960E-08  0.413E-05    0.73     105.9  T
     SCC iter.                  ...        0 min, 17.797 sec
     gradient                   ...        0 min,  1.693 sec
 * total energy  :  -922.5013592 Eh     change       -0.2139923E-02 Eh
   gradient norm :     0.0227364 Eh/a0  converged?    E=F G=F D=F
   step length   :     2.6879142 a0

........................................................................
.............................. CYCLE   45 ..............................
........................................................................
   1   -937.9681889 -0.937968E+03  0.547E-03    0.72       0.0  T
   2   -937.9682019 -0.130458E-04  0.321E-03    0.72       1.4  T
   3   -937.9682065 -0.454438E-05  0.157E-03    0.72       2.8  T
   4   -937.9682061  0.388031E-06  0.141E-03    0.72       3.1  T
   5   -937.9682082 -0.215198E-05  0.397E-04    0.72      11.0  T
   6   -937.9682084 -0.160074E-06  0.195E-04    0.72      22.4  T
[...]
   295   6 C      296   7 N                                       1.3696794
   295   6 C      297   6 C                                       1.4007404
   298   6 C      299   6 C                                       1.3953240
   299   6 C      300   6 C                                       1.3861140
   300   6 C      301   6 C                                       1.3930309
   301   6 C      302   8 O                                       1.3575198
   301   6 C      303   6 C                                       1.3937631
   298   6 C      304   6 C                                       1.3970730
   303   6 C      304   6 C                                       1.3835766
   297   6 C      305   6 C                                       1.3959928
   305   6 C      306   6 C                                       1.4520346
   306   6 C      307   6 C                                       1.3492054
   305   6 C      308   7 N                                       1.3620657
   307   6 C      309   6 C                                       1.4491382
   308   7 N      309   6 C                                       1.3482140
   309   6 C      310   6 C                                       1.4101839
   310   6 C      311   6 C                                       1.4090524
   311   6 C      312   6 C                                       1.4184234
   312   6 C      313   6 C                                       1.3683456
   313   6 C      314   6 C                                       1.4213615
   311   6 C      315   7 N                                       1.3628380
   314   6 C      315   7 N                                       1.3696973
   314   6 C      316   6 C                                       1.4007340
   317   6 C      318   6 C                                       1.3970770
   318   6 C      319   6 C                                       1.3835784
   319   6 C      320   6 C                                       1.3937653
   320   6 C      321   8 O                                       1.3575135
   320   6 C      322   6 C                                       1.3930317
   317   6 C      323   6 C                                       1.3953351
   322   6 C      323   6 C                                       1.3861061
   316   6 C      324   6 C                                       1.3960266
   324   6 C      325   6 C                                       1.4520282
   325   6 C      326   6 C                                       1.3492138
   291   6 C      327   6 C                                       1.4101885
   326   6 C      327   6 C                                       1.4491284
   324   6 C      328   7 N                                       1.3620420
   327   6 C      328   7 N                                       1.3482412
   293   6 C      329   1 H                                       1.0780240
   294   6 C      330   1 H                                       1.0777108
   296   7 N      331   1 H                                       1.0145409
   299   6 C      332   1 H                                       1.0842857
   300   6 C      333   1 H                                       1.0847133
   302   8 O      334   1 H                                       0.9666549
   303   6 C      335   1 H                                       1.0829821
   304   6 C      336   1 H                                       1.0843289
   306   6 C      337   1 H                                       1.0779171
   307   6 C      338   1 H                                       1.0782698
   312   6 C      339   1 H                                       1.0780232
   313   6 C      340   1 H                                       1.0777088
   315   7 N      341   1 H                                       1.0145400
   318   6 C      342   1 H                                       1.0843290
   319   6 C      343   1 H                                       1.0829825
   321   8 O      344   1 H                                       0.9666565
   322   6 C      345   1 H                                       1.0847123
   323   6 C      346   1 H                                       1.0842856
   325   6 C      347   1 H                                       1.0779176
   326   6 C      348   1 H                                       1.0782679
   349   6 C      350   6 C                                       1.4090500
   350   6 C      351   6 C                                       1.4184234
   351   6 C      352   6 C                                       1.3683492
   352   6 C      353   6 C                                       1.4213579
   350   6 C      354   7 N                                       1.3628388
   353   6 C      354   7 N                                       1.3696909
   353   6 C      355   6 C                                       1.4007353
   356   6 C      357   6 C                                       1.3953267
   357   6 C      358   6 C                                       1.3861098
   358   6 C      359   6 C                                       1.3930302
   359   6 C      360   8 O                                       1.3575203
   359   6 C      361   6 C                                       1.3937639
   356   6 C      362   6 C                                       1.3970732
   361   6 C      362   6 C                                       1.3835804
   355   6 C      363   6 C                                       1.3960059
   363   6 C      364   6 C                                       1.4520254
   364   6 C      365   6 C                                       1.3492130
   363   6 C      366   7 N                                       1.3620506
   365   6 C      367   6 C                                       1.4491368
   366   7 N      367   6 C                                       1.3482273
   367   6 C      368   6 C                                       1.4101918
   368   6 C      369   6 C                                       1.4090350
   369   6 C      370   6 C                                       1.4184155
   370   6 C      371   6 C                                       1.3683485
   371   6 C      372   6 C                                       1.4213559
   369   6 C      373   7 N                                       1.3628429
   372   6 C      373   7 N                                       1.3696784
   372   6 C      374   6 C                                       1.4007455
   375   6 C      376   6 C                                       1.3970807
   376   6 C      377   6 C                                       1.3835688
   377   6 C      378   6 C                                       1.3937658
   378   6 C      379   8 O                                       1.3575133
   378   6 C      380   6 C                                       1.3930310
   375   6 C      381   6 C                                       1.3953201
   380   6 C      381   6 C                                       1.3861183
   374   6 C      382   6 C                                       1.3959898
   382   6 C      383   6 C                                       1.4520309
   383   6 C      384   6 C                                       1.3492055
   349   6 C      385   6 C                                       1.4101876
   384   6 C      385   6 C                                       1.4491388
   382   6 C      386   7 N                                       1.3620631
   385   6 C      386   7 N                                       1.3482178
   351   6 C      387   1 H                                       1.0780225
   352   6 C      388   1 H                                       1.0777102
   354   7 N      389   1 H                                       1.0145401
   357   6 C      390   1 H                                       1.0842849
   358   6 C      391   1 H                                       1.0847127
   360   8 O      392   1 H                                       0.9666557
   361   6 C      393   1 H                                       1.0829828
   362   6 C      394   1 H                                       1.0843291
   364   6 C      395   1 H                                       1.0779189
   365   6 C      396   1 H                                       1.0782689
   370   6 C      397   1 H                                       1.0780234
   371   6 C      398   1 H                                       1.0777087
   373   7 N      399   1 H                                       1.0145401
   376   6 C      400   1 H                                       1.0843289
   377   6 C      401   1 H                                       1.0829815
   379   8 O      402   1 H                                       0.9666545
   380   6 C      403   1 H                                       1.0847131
   381   6 C      404   1 H                                       1.0842862
   383   6 C      405   1 H                                       1.0779178
   384   6 C      406   1 H                                       1.0782700
   407   6 C      408   6 C                                       1.4090338
   408   6 C      409   6 C                                       1.4184364
   409   6 C      410   6 C                                       1.3683369
   410   6 C      411   6 C                                       1.4213647
   408   6 C      412   7 N                                       1.3628209
   411   6 C      412   7 N                                       1.3697082
   411   6 C      413   6 C                                       1.4006786
   414   6 C      415   6 C                                       1.3953237
   415   6 C      416   6 C                                       1.3861058
   416   6 C      417   6 C                                       1.3930289
   417   6 C      418   8 O                                       1.3575354
   417   6 C      419   6 C                                       1.3937603
   414   6 C      420   6 C                                       1.3970622
   419   6 C      420   6 C                                       1.3835850
   413   6 C      421   6 C                                       1.3960316
   421   6 C      422   6 C                                       1.4520132
   422   6 C      423   6 C                                       1.3492241
   421   6 C      424   7 N                                       1.3620010
   423   6 C      425   6 C                                       1.4491268
   424   7 N      425   6 C                                       1.3482571
   425   6 C      426   6 C                                       1.4101501
   426   6 C      427   6 C                                       1.4089957
   427   6 C      428   6 C                                       1.4184097
   428   6 C      429   6 C                                       1.3683451
   429   6 C      430   6 C                                       1.4213501
   427   6 C      431   7 N                                       1.3628295
   430   6 C      431   7 N                                       1.3696463
   430   6 C      432   6 C                                       1.4007383
   433   6 C      434   6 C                                       1.3970725
   434   6 C      435   6 C                                       1.3835736
   435   6 C      436   6 C                                       1.3937630
   436   6 C      437   8 O                                       1.3575236
   436   6 C      438   6 C                                       1.3930297
   433   6 C      439   6 C                                       1.3953099
   438   6 C      439   6 C                                       1.3861186
   432   6 C      440   6 C                                       1.3959568
   440   6 C      441   6 C                                       1.4520273
   441   6 C      442   6 C                                       1.3492058
   407   6 C      443   6 C                                       1.4102085
   442   6 C      443   6 C                                       1.4491575
   440   6 C      444   7 N                                       1.3620863
   443   6 C      444   7 N                                       1.3481957
   409   6 C      445   1 H                                       1.0780241
   410   6 C      446   1 H                                       1.0777105
   412   7 N      447   1 H                                       1.0145388
   415   6 C      448   1 H                                       1.0842853
   416   6 C      449   1 H                                       1.0847129
   418   8 O      450   1 H                                       0.9666545
   419   6 C      451   1 H                                       1.0829826
   420   6 C      452   1 H                                       1.0843295
   422   6 C      453   1 H                                       1.0779207
   423   6 C      454   1 H                                       1.0782668
   428   6 C      455   1 H                                       1.0780270
   429   6 C      456   1 H                                       1.0777090
   431   7 N      457   1 H                                       1.0145384
   434   6 C      458   1 H                                       1.0843297
   435   6 C      459   1 H                                       1.0829822
   437   8 O      460   1 H                                       0.9666540
   438   6 C      461   1 H                                       1.0847126
   439   6 C      462   1 H                                       1.0842860
   441   6 C      463   1 H                                       1.0779192
   442   6 C      464   1 H                                       1.0782688
   465   6 C      466   6 C                                       1.4088915
   466   6 C      467   6 C                                       1.4185765
   467   6 C      468   6 C                                       1.3682469
   468   6 C      469   6 C                                       1.4214645
   466   6 C      470   7 N                                       1.3627884
   469   6 C      470   7 N                                       1.3697733
   469   6 C      471   6 C                                       1.4004038
   472   6 C      473   6 C                                       1.3953571
   473   6 C      474   6 C                                       1.3860986
   474   6 C      475   6 C                                       1.3930233
   475   6 C      476   8 O                                       1.3576029
   475   6 C      477   6 C                                       1.3937453
   472   6 C      478   6 C                                       1.3970532
   477   6 C      478   6 C                                       1.3836025
   471   6 C      479   6 C                                       1.3963153
   479   6 C      480   6 C                                       1.4520992 (max)
   480   6 C      481   6 C                                       1.3491597
   479   6 C      482   7 N                                       1.3614818
   481   6 C      483   6 C                                       1.4492054
   482   7 N      483   6 C                                       1.3486968
   483   6 C      484   6 C                                       1.4093935
   484   6 C      485   6 C                                       1.4083827
   485   6 C      486   6 C                                       1.4186482
   486   6 C      487   6 C                                       1.3681747
   487   6 C      488   6 C                                       1.4214915
   485   6 C      489   7 N                                       1.3629873
   488   6 C      489   7 N                                       1.3694813
   488   6 C      490   6 C                                       1.4006360
   491   6 C      492   6 C                                       1.3970481
   492   6 C      493   6 C                                       1.3835925
   493   6 C      494   6 C                                       1.3937587
   494   6 C      495   8 O                                       1.3575414
   494   6 C      496   6 C                                       1.3930237
   491   6 C      497   6 C                                       1.3952983
   496   6 C      497   6 C                                       1.3861219
   490   6 C      498   6 C                                       1.3959303
   498   6 C      499   6 C                                       1.4520205
   499   6 C      500   6 C                                       1.3491778
   465   6 C      501   6 C                                       1.4102102
   500   6 C      501   6 C                                       1.4492737
   498   6 C      502   7 N                                       1.3620670
   501   6 C      502   7 N                                       1.3481421
   467   6 C      503   1 H                                       1.0780298
   468   6 C      504   1 H                                       1.0777212
   470   7 N      505   1 H                                       1.0145417
   473   6 C      506   1 H                                       1.0842882
   474   6 C      507   1 H                                       1.0847194
   476   8 O      508   1 H                                       0.9666531
   477   6 C      509   1 H                                       1.0829842
   478   6 C      510   1 H                                       1.0843297
   480   6 C      511   1 H                                       1.0779271
   481   6 C      512   1 H                                       1.0782688
   486   6 C      513   1 H                                       1.0780278
   487   6 C      514   1 H                                       1.0777077
   489   7 N      515   1 H                                       1.0145387
   492   6 C      516   1 H                                       1.0843313
   493   6 C      517   1 H                                       1.0829842
   495   8 O      518   1 H                                       0.9666536
   496   6 C      519   1 H                                       1.0847136
   497   6 C      520   1 H                                       1.0842890
   499   6 C      521   1 H                                       1.0779264
   500   6 C      522   1 H                                       1.0782658

 * 6 distinct bonds (by element types)

   Z      Z             #   av. dist./Å        max./Å        min./Å
   1 H    6 C         130     1.0811245     1.0854107     1.0777077
   6 C    6 C         282     1.3836966     1.4520992     1.2247520
   1 H    7 N          16     1.0145559     1.0147032     1.0145027
   6 C    7 N          64     1.3606896     1.3704189     1.3481213
   1 H    8 O          16     0.9666502     0.9666609     0.9666353
   6 C    8 O          16     1.3576037     1.3578268     1.3575133


optimized geometry written to: xtbopt.xyz


           -------------------------------------------------
          | TOTAL ENERGY             -922.554472634029 Eh   |
          | GRADIENT NORM               0.000748875151 Eh/α |
          | HOMO-LUMO GAP               0.712965727534 eV   |
           -------------------------------------------------

------------------------------------------------------------------------
 * finished run on 2022/07/29 at 03:57:33.790     
------------------------------------------------------------------------
 total:
 * wall-time:     0 d,  0 h, 59 min, 59.562 sec
 *  cpu-time:     0 d,  0 h, 59 min, 37.255 sec
 * ratio c/w:     0.994 speedup
 SCF:
 * wall-time:     0 d,  0 h,  4 min, 54.119 sec
 *  cpu-time:     0 d,  0 h,  4 min, 52.308 sec
 * ratio c/w:     0.994 speedup
 ANC optimizer:
 * wall-time:     0 d,  0 h, 55 min,  4.597 sec
 *  cpu-time:     0 d,  0 h, 54 min, 44.212 sec
 * ratio c/w:     0.994 speedup

