256
 energy: -510.275038401758 gnorm: 0.852991154998 xtb: 6.5.1 (b24c23e)
Ni          43.47757699999999        0.04351400000000       -0.01713800000000
C           40.14083100000000       -0.08148400000000       -0.09483400000000
C           40.80402800000000       -1.23281700000000       -0.23755300000000
C           40.15332100000000       -2.53134800000000       -0.36358600000000
C           41.09381000000000       -3.44445600000000       -0.51801700000000
C           42.39922800000000       -2.76982300000000       -0.50918800000000
N           42.22222200000000       -1.36505700000000       -0.32183100000000
C           43.59169600000000       -3.37988200000000       -0.67180100000000
C           43.63908000000000       -4.84177600000000       -0.90105600000000
C           44.15438100000000       -5.69121500000000        0.08704400000000
C           44.21314100000000       -7.07029800000000       -0.13039900000000
C           43.76035399999999       -7.62245900000000       -1.34313900000000
N           43.81621800000000       -9.04264900000000       -1.56978000000000
O           43.37176800000000       -9.57993500000000       -2.75667700000000
O           44.25585400000000       -9.81088900000000       -0.68866700000000
C           43.25111099999999       -6.76391300000000       -2.33347400000000
C           43.19307500000000       -5.38471900000000       -2.11474200000000
C           44.88470900000000       -2.64669200000000       -0.64268900000000
C           46.17128999999999       -3.24578400000000       -1.01924800000000
C           47.10563300000000       -2.33126800000000       -0.85502700000000
N           45.02546000000000       -1.41274900000000       -0.26508100000000
C           46.42265100000000       -1.13737400000000       -0.37139500000000
C           47.01606899999999        0.01464900000000       -0.01904800000000
C           46.25277500000000        1.18958700000000        0.45864300000000
C           46.78520500000000        2.20246100000000        1.13064700000000
C           45.74161600000000        3.19147600000000        1.31877700000000
C           44.64113100000000        2.71901900000000        0.74462500000000
N           44.87403499999999        1.43010200000000        0.17372400000000
C           43.35919199999999        3.46418900000000        0.65057400000000
C           43.37668800000000        4.93188600000000        0.86242000000000
C           42.71454400000000        5.50038800000000        1.96067900000000
C           42.75163600000000        6.88174200000000        2.16917500000000
C           43.45599700000000        7.71834100000000        1.28573500000000
N           43.49076600000000        9.14083000000000        1.50240700000000
O           42.88566300000000        9.69454100000000        2.60788900000000
O           44.07448900000000        9.89399500000000        0.69519500000000
C           44.12655800000000        7.14186000000000        0.19094600000000
C           44.08960300000000        5.75997100000000       -0.01591700000000
C           42.19707100000000        2.83806900000000        0.38337800000000
C           40.88690800000000        3.47098500000000        0.24033300000000
C           40.02545500000000        2.49144100000000        0.04716400000000
C           40.77686600000000        1.23730700000000        0.05181000000000
N           42.04338099999999        1.42705900000000        0.24613600000000
H           39.05734900000000       -0.10966300000000       -0.08898700000000
H           39.08917800000000       -2.72922500000000       -0.33444300000000
H           40.90593900000000       -4.50444300000000       -0.62975000000000
H           44.50833700000000       -5.28441400000000        1.02654900000000
H           44.61370800000000       -7.70425800000000        0.64969400000000
H           42.89866500000000       -7.15759000000000       -3.27822000000000
H           42.80177700000000       -4.73882400000000       -2.89107900000000
H           46.34415499999999       -4.25386600000000       -1.37317500000000
H           48.16122599999999       -2.47053300000000       -1.04800400000000
H           47.81180700000000        2.29371300000000        1.45806800000000
H           45.85176999999999        4.14798300000000        1.81393200000000
H           42.17351300000000        4.87187700000000        2.65778600000000
H           42.22969500000000        7.29477700000000        3.02285000000000
H           44.68482700000000        7.75813200000000       -0.50136300000000
H           44.61648999999999        5.33418400000000       -0.86139000000000
H           40.64353800000000        4.52455000000000        0.28066800000000
H           38.95892799999999        2.60971300000000       -0.09302000000000
Ni          93.79902199999999       -0.01282600000000       -0.02810100000000
C           97.13576800000000        0.13218500000000       -0.05325900000000
C           96.47257200000000        1.25303200000000        0.24613700000000
C           97.12327900000000        2.50408200000000        0.61619500000000
C           96.18278900000000        3.40847500000000        0.81540900000000
C           94.87737199999999        2.77975300000000        0.57063400000000
N           95.05437800000000        1.40722500000000        0.21759300000000
C           93.68490299999999        3.40627600000000        0.64863200000000
C           93.63751900000000        4.84747300000000        0.98425400000000
C           93.12221899999999        5.26444100000000        2.21876800000000
C           93.06345899999999        6.62444000000000        2.53428800000000
C           93.51624600000000        7.59104500000000        1.61706600000000
N           93.46038099999998        8.99260100000000        1.93947300000000
O           93.90483200000000        9.93572400000000        1.04063000000000
O           93.02074499999999        9.37440900000000        3.04436000000000
C           94.02548899999998        7.16647100000000        0.37706400000000
C           94.08352499999998        5.80588600000000        0.06269700000000
C           92.39188999999999        2.71566200000000        0.40070500000000
C           91.10531000000000        3.41223900000000        0.27625300000000
C           90.17096699999999        2.50286900000000        0.08558700000000
N           92.25114000000001        1.43015900000000        0.28808400000000
C           90.85394900000000        1.21473800000000        0.08627300000000
C           90.26053100000000        0.01464900000000       -0.01904800000000
C           91.02382500000000       -1.25368200000000       -0.01676200000000
C           90.49139399999999       -2.44463200000000        0.22642800000000
C           91.53498399999999       -3.43203100000000        0.02999100000000
C           92.63546800000000       -2.77876000000000       -0.32511900000000
N           92.40256499999998       -1.36981600000000       -0.37107700000000
C           93.91740700000000       -3.43429900000000       -0.69171600000000
C           93.89991200000000       -4.87434800000000       -1.04565200000000
C           94.56205500000000       -5.81317500000000       -0.24068600000000
C           94.52496300000000       -7.17192400000000       -0.56535200000000
C           93.82060300000001       -7.61623300000000       -1.69802700000000
N           93.78583299999998       -9.01618200000000       -2.03053800000000
O           94.39093699999999       -9.94400500000000       -1.21332900000000
O           93.20211000000000       -9.41172600000000       -3.06126300000000
C           93.15004100000000       -6.67131000000000       -2.49678500000000
C           93.18699700000001       -5.31267700000000       -2.17040400000000
C           95.07952799999998       -2.75367100000000       -0.70464900000000
C           96.38969099999998       -3.28677500000000       -1.07457500000000
C           97.25114499999998       -2.30626700000000       -0.88636200000000
C           96.49973300000001       -1.14537400000000       -0.41180600000000
N           95.23321799999999       -1.39414700000000       -0.30280700000000
H           98.21925000000000        0.15611600000000       -0.03727300000000
H           98.18742200000000        2.67659400000000        0.71740700000000
H           96.37066000000000        4.43302300000000        1.10927900000000
H           92.76826300000000        4.53504500000000        2.93719400000000
H           92.66289200000000        6.91964500000000        3.49517600000000
H           94.37793400000000        7.88566700000000       -0.35114200000000
H           94.47482300000000        5.49821000000000       -0.89918300000000
H           90.93244500000000        4.47948100000000        0.32613800000000
H           89.11537399999999        2.70433200000000       -0.04109200000000
H           89.46479300000000       -2.65199600000000        0.49574500000000
H           91.42483000000000       -4.50441500000000        0.13037000000000
H           95.10308699999999       -5.49190500000000        0.64122700000000
H           95.04690500000000       -7.87491800000000        0.07116900000000
H           92.59177299999999       -6.98303200000000       -3.36966200000000
H           92.66010900000001       -4.60093700000000       -2.79454000000000
H           96.63306200000000       -4.27859700000000       -1.43222600000000
H           98.31767100000000       -2.36334700000000       -1.06066600000000
C           53.28658500000000        0.01575200000000       -0.01055800000000
C           52.07764500000000        0.00229600000000       -0.01900500000000
C           50.65611600000000        0.01111600000000       -0.03098800000000
C           49.44444700000000        0.01855500000000       -0.02012500000000
C           54.70318900000000        0.00907600000000       -0.01002500000000
C           55.92388500000000        0.01855500000000       -0.02012500000000
C           69.24214400000000        0.01575200000000       -0.01055800000000
C           68.03320400000000        0.00229600000000       -0.01900500000000
C           66.61167600000000        0.01111600000000       -0.03098800000000
C           65.40000600000000        0.01855500000000       -0.02012500000000
C           70.65874800000000        0.00907600000000       -0.01002500000000
C           71.87944400000001        0.01855500000000       -0.02012500000000
C           85.19770300000000        0.01575200000000       -0.01055800000000
C           83.98876299999999        0.00229600000000       -0.01900500000000
C           82.56723500000000        0.01111600000000       -0.03098800000000
C           81.35556500000000        0.01855500000000       -0.02012500000000
C           86.61430699999998        0.00907600000000       -0.01002500000000
C           87.83500300000000        0.01855500000000       -0.02012500000000
Ni          60.57344100000000        0.06184200000000       -0.04039500000000
C           57.20624600000000       -0.01772800000000        0.02244100000000
C           57.86236400000000       -1.18926400000000        0.11114400000000
C           57.22126900000000       -2.49225000000000        0.29913500000000
C           58.15846200000000       -3.41970100000000        0.29173000000000
C           59.45639499999999       -2.76486300000000        0.10030800000000
N           59.27859599999999       -1.35063100000000       -0.00885300000000
C           60.64121900000000       -3.40710600000000        0.03035300000000
C           60.67276900000000       -4.88467900000000        0.10428800000000
C           61.15125600000000       -5.52121700000000        1.25733500000000
C           61.19082399999999       -6.91669800000000        1.32683500000000
C           60.75594500000000       -7.69760200000000        0.23944500000000
N           60.79534500000000       -9.13499900000000        0.30651100000000
O           60.42077500000000       -9.89513300000000       -0.77766700000000
O           61.15084000000000       -9.71567200000000        1.35422200000000
C           60.28228699999999       -7.05157200000000       -0.91748800000000
C           60.24285999999999       -5.65620900000000       -0.98397800000000
C           61.94076999999999       -2.70362900000000       -0.11145000000000
C           63.21332000000000       -3.38614200000000       -0.37765500000000
C           64.16571100000000       -2.47566100000000       -0.38353400000000
N           62.10640099999999       -1.42594400000000        0.03696500000000
C           63.50747900000000       -1.20196600000000       -0.12243000000000
C           64.12236400000000       -0.01772800000000        0.02244100000000
C           63.37249300000000        1.23232400000000        0.26889400000000
C           63.90850000000000        2.34555200000000        0.75234000000000
C           62.87595699999999        3.36406600000000        0.73022700000000
C           61.78041200000000        2.80427000000000        0.23027800000000
N           62.00380500000000        1.43044400000000       -0.08352200000000
C           60.52320399999999        3.53458600000000       -0.06316500000000
C           60.58038500000000        5.00962000000000       -0.21344800000000
C           61.36306600000000        5.58300300000000       -1.22534400000000
C           61.43453100000000        6.97219700000000       -1.36145900000000
C           60.72759500000000        7.81290400000000       -0.48382400000000
N           60.79951700000000        9.24313700000000       -0.62951100000000
O           61.53392700000000        9.80615100000000       -1.64867600000000
O           60.19010500000000        9.99567800000000        0.15958600000000
C           59.95168199999999        7.23330100000000        0.53654000000000
C           59.88200000000000        5.84411300000000        0.67205100000000
C           59.35084800000000        2.88694700000000       -0.20782800000000
C           58.07249500000000        3.49575600000000       -0.56155700000000
C           57.18377300000000        2.52315000000000       -0.53495000000000
C           57.88350400000000        1.28558700000000       -0.17222800000000
N           59.15035400000000        1.49053900000000        0.01691800000000
H           56.16584699999999       -2.69353600000000        0.42524900000000
H           57.97280200000000       -4.47856400000000        0.41645700000000
H           61.49007600000000       -4.93632300000000        2.10330200000000
H           61.56490500000000       -7.38472000000000        2.22953300000000
H           59.94247700000000       -7.62451500000000       -1.77114700000000
H           59.87949600000000       -5.17566400000000       -1.88355000000000
H           63.36517100000000       -4.44540000000000       -0.53947500000000
H           65.21771099999999       -2.66754500000000       -0.54806100000000
H           64.93207900000000        2.48478400000000        1.07357600000000
H           62.99236900000000        4.39757200000000        1.02965300000000
H           61.91491799999999        4.95265400000000       -1.91188600000000
H           62.04382199999999        7.38821400000000       -2.15308800000000
H           59.39967100000000        7.85378400000000        1.23086200000000
H           59.28581800000000        5.41741800000000        1.46916800000000
H           57.86733000000000        4.52917300000000       -0.80938600000000
H           56.13157600000000        2.64080200000000       -0.75647700000000
Ni          76.52900000000000        0.06184200000000       -0.04039500000000
C           73.16180499999999       -0.01772800000000        0.02244100000000
C           73.81792299999999       -1.18926400000000        0.11114400000000
C           73.17682799999999       -2.49225000000000        0.29913500000000
C           74.11402099999998       -3.41970100000000        0.29173000000000
C           75.41195399999999       -2.76486300000000        0.10030800000000
N           75.23415500000000       -1.35063100000000       -0.00885300000000
C           76.59677799999999       -3.40710600000000        0.03035300000000
C           76.62832800000000       -4.88467900000000        0.10428800000000
C           77.10681500000000       -5.52121700000000        1.25733500000000
C           77.14638300000000       -6.91669800000000        1.32683500000000
C           76.71150400000001       -7.69760200000000        0.23944500000000
N           76.75090400000001       -9.13499900000000        0.30651100000000
O           76.37633399999999       -9.89513300000000       -0.77766700000000
O           77.10639900000000       -9.71567200000000        1.35422200000000
C           76.23784600000000       -7.05157200000000       -0.91748800000000
C           76.19841900000000       -5.65620900000000       -0.98397800000000
C           77.89632899999998       -2.70362900000000       -0.11145000000000
C           79.16887900000000       -3.38614200000000       -0.37765500000000
C           80.12127000000000       -2.47566100000000       -0.38353400000000
N           78.06196000000000       -1.42594400000000        0.03696500000000
C           79.46303800000000       -1.20196600000000       -0.12243000000000
C           80.07792300000000       -0.01772800000000        0.02244100000000
C           79.32805200000000        1.23232400000000        0.26889400000000
C           79.86405900000000        2.34555200000000        0.75234000000000
C           78.83151599999999        3.36406600000000        0.73022700000000
C           77.73597100000001        2.80427000000000        0.23027800000000
N           77.95936399999999        1.43044400000000       -0.08352200000000
C           76.47876300000000        3.53458600000000       -0.06316500000000
C           76.53594400000000        5.00962000000000       -0.21344800000000
C           77.31862500000000        5.58300300000000       -1.22534400000000
C           77.39008999999999        6.97219700000000       -1.36145900000000
C           76.68315400000000        7.81290400000000       -0.48382400000000
N           76.75507600000000        9.24313700000000       -0.62951100000000
O           77.48948599999999        9.80615100000000       -1.64867600000000
O           76.14566400000000        9.99567800000000        0.15958600000000
C           75.90724099999998        7.23330100000000        0.53654000000000
C           75.83755900000000        5.84411300000000        0.67205100000000
C           75.30640699999999        2.88694700000000       -0.20782800000000
C           74.02805400000000        3.49575600000000       -0.56155700000000
C           73.13933200000000        2.52315000000000       -0.53495000000000
C           73.83906300000000        1.28558700000000       -0.17222800000000
N           75.10591300000000        1.49053900000000        0.01691800000000
H           72.12140599999999       -2.69353600000000        0.42524900000000
H           73.92836100000000       -4.47856400000000        0.41645700000000
H           77.44563499999998       -4.93632300000000        2.10330200000000
H           77.52046400000000       -7.38472000000000        2.22953300000000
H           75.89803599999999       -7.62451500000000       -1.77114700000000
H           75.83505499999998       -5.17566400000000       -1.88355000000000
H           79.32073000000000       -4.44540000000000       -0.53947500000000
H           81.17326999999999       -2.66754500000000       -0.54806100000000
H           80.88763899999998        2.48478400000000        1.07357600000000
H           78.94792800000000        4.39757200000000        1.02965300000000
H           77.87047699999999        4.95265400000000       -1.91188600000000
H           77.99938100000000        7.38821400000000       -2.15308800000000
H           75.35523000000001        7.85378400000000        1.23086200000000
H           75.24137700000000        5.41741800000000        1.46916800000000
H           73.82288900000000        4.52917300000000       -0.80938600000000
H           72.08713500000000        2.64080200000000       -0.75647700000000
256
 energy: -510.604013070366 gnorm: 0.521355488387 xtb: 6.5.1 (b24c23e)
Ni          43.48770166562807        0.03753264623512       -0.02037095044006
C           40.14155346533322       -0.06495468695447       -0.09324533487369
C           40.81134374356283       -1.23290516957595       -0.23661470796421
C           40.15370815099122       -2.52428577803946       -0.36246949276151
C           41.10397648458159       -3.44524642972764       -0.51856868914110
C           42.39889968477885       -2.76083815592498       -0.50726714117677
N           42.20906509864756       -1.37483720098494       -0.32310221151014
C           43.60703714218727       -3.37536963942227       -0.67300779939453
C           43.64434854302265       -4.84277671736589       -0.90323863747663
C           44.15474928277015       -5.69773685848907        0.08153927229018
C           44.21162868521927       -7.07292589801961       -0.13448175563466
C           43.75885088879924       -7.62691081504821       -1.34824733987546
N           43.81129095426330       -9.05553163652132       -1.58093417108035
O           43.38803200657637       -9.54692691061788       -2.71086031263795
O           44.24679886267482       -9.79199117040313       -0.70735805275521
C           43.25093273904419       -6.76461889457168       -2.33277492873488
C           43.19342730049821       -5.39092600982184       -2.11165826450735
C           44.87824030864764       -2.65930344266465       -0.64364944848823
C           46.15842803944503       -3.25491580573770       -1.01834939789332
C           47.10452421579290       -2.32453631949858       -0.85332473893435
N           45.03260774656458       -1.40193650012970       -0.26810840899884
C           46.43434373506918       -1.13117108357059       -0.37069653539847
C           47.02467954580533        0.02833543565261       -0.01098686874694
C           46.25364757259361        1.17728953966539        0.44587777827482
C           46.78765232758363        2.22308814567760        1.13868502061099
C           45.76334600514455        3.19211275555244        1.32119299957140
C           44.63222011662555        2.70793838727358        0.73255626654252
N           44.87461467847846        1.42503608853455        0.18098117983241
C           43.37354921968565        3.45528927807164        0.64998762561582
C           43.38400494238248        4.92935461616945        0.86573101911240
C           42.71615382312672        5.50512082494370        1.95716407523829
C           42.75176666044379        6.88178958376740        2.16818642455606
C           43.45367030927557        7.72258982545855        1.29032769114126
N           43.48651144755608        9.15361274897974        1.51393784680349
O           42.90726207935597        9.66098079765942        2.56470293147200
O           44.06184557046569        9.87532490027060        0.71216819671893
C           44.12395183681776        7.14383665546804        0.19455173232331
C           44.08911839100426        5.76554411403058       -0.01055706481039
C           42.19802402043508        2.83400614743071        0.38241023400030
C           40.89534724983212        3.46839520474041        0.24129450628876
C           40.01749147793610        2.47898847216770        0.04632283734652
C           40.76027078133629        1.22686669592474        0.05062461672257
N           42.05023628941567        1.43018861108301        0.24099060033610
H           39.05813530767398       -0.10405237636324       -0.08938206387083
H           39.09016554567179       -2.72120891108395       -0.33344557918913
H           40.91613186641624       -4.50442116455501       -0.63035377182123
H           44.50737864165151       -5.28677754500764        1.02334639117176
H           44.61272075311575       -7.70737943564559        0.64729529665128
H           42.89932576419956       -7.16054484740208       -3.27776974054214
H           42.80303868714254       -4.74093424922692       -2.88880644902566
H           46.33564782891968       -4.25777042906424       -1.37292914350630
H           48.15979964407181       -2.46177188558011       -1.04495146960771
H           47.81262469896270        2.29929692210185        1.46084679084903
H           45.85710031427052        4.14698584980988        1.81542451828380
H           42.17526496503417        4.87376917716186        2.65567307082907
H           42.23057771798038        7.29736894712134        3.02236409361968
H           44.68327075771592        7.76094614496756       -0.49924319152088
H           44.61500768433007        5.33651016260064       -0.85864333786150
H           40.65312247597074        4.52253195504662        0.28173288065275
H           38.95586726720605        2.60255093716188       -0.09391162245107
Ni          93.78889977047125       -0.00607171450630       -0.02886461723710
C           97.13504239662419        0.11627615887953       -0.05798116329884
C           96.46527044405009        1.25275612237426        0.24703200551510
C           97.12288969262102        2.49712142123424        0.61458551861762
C           96.17262274829112        3.40940367712317        0.81519381998712
C           94.87768928941776        2.77066386691447        0.56907202504083
N           95.06752151418274        1.41675334512661        0.22006278839880
C           93.66952746949391        3.40252961906719        0.64579163052892
C           93.63223338406782        4.84925475730557        0.98260606247030
C           93.12186490668070        5.27254140749604        2.21611192951683
C           93.06498242894753        6.62842435978323        2.53148017664660
C           93.51774870981509        7.59707097560814        1.61399103622722
N           93.46529259704732        9.00878993808781        1.93396398760485
O           93.88857364406260        9.88789958258934        1.07076012041360
O           93.02981394698868        9.36387058685931        3.01993766357010
C           94.02565964664713        7.16687302669195        0.37798915449883
C           94.08315726263021        5.81047291235586        0.06787468607450
C           92.39839554865283        2.72773439983963        0.40450482877020
C           91.11814184810875        3.42038854962309        0.28051369614054
C           90.17205200021846        2.49609611145978        0.08460499052722
N           92.24400427395548        1.42122453562281        0.28136690294921
C           90.84224285161483        1.20885012128679        0.08462407387218
C           90.25253806534236       -0.00091821849262       -0.01658789902868
C           91.02283550965352       -1.23754606173507       -0.02393094996037
C           90.48890113033291       -2.46683546071637        0.22621157795513
C           91.51322259997441       -3.43351016125243        0.03198409862007
C           92.64435016799166       -2.76391496546561       -0.33214011796893
N           92.40194879715239       -1.36780780970330       -0.36263176855871
C           93.90307563568655       -3.42581577330957       -0.68890276601459
C           93.89258526856376       -4.87326910638319       -1.04163088401375
C           94.56043972115974       -5.81623539696925       -0.24571223325730
C           94.52482585170722       -7.17160621317650       -0.56629713898869
C           93.82293064600897       -7.62187916428881       -1.69535627428539
N           93.79008168192252       -9.03241475164712       -2.02464681617928
O           94.36933226490021       -9.89665814342519       -1.24080171435970
O           93.21476359503869       -9.40075513217607       -3.03851825035536
C           93.15265743703110       -6.67450855679073       -2.49417705631569
C           93.18748397292174       -5.31984409163313       -2.16752318939212
C           95.07855045691102       -2.74953578012461       -0.70403436933598
C           96.38126273755024       -3.28472921839817       -1.07271722934642
C           97.25910049659193       -2.29442485025344       -0.88247698265624
C           96.51631663205190       -1.13524921348681       -0.40898371508775
N           95.22636794388323       -1.39509413994630       -0.30872722607624
H           98.21845747459257        0.15106431409775       -0.03974135081301
H           98.18642785597567        2.66879018178296        0.71532566746971
H           96.36046027225096        4.43321820045387        1.10870670681129
H           92.76922428071796        4.53843338430820        2.93511450102234
H           92.66387714359242        6.92344111756017        3.49411733842290
H           94.37727355757183        7.88823990867242       -0.34961375189182
H           94.47355767182621        5.49931179429504       -0.89628891690789
H           90.94093642007826        4.48300778473306        0.32783301174134
H           89.11677895807280        2.69508209320320       -0.04155054417613
H           89.46394734225971       -2.65825575330480        0.49623871089228
H           91.41949508253236       -4.50403144454909        0.13212746252130
H           95.10133265295536       -5.49286526708545        0.63856266611768
H           95.04602192316958       -7.87714104785805        0.06974367736801
H           92.59333073373126       -6.98643857855081       -3.36874858003140
H           92.66159500927009       -4.60412079300773       -2.79287125021158
H           96.62347813292143       -4.27711966765789       -1.43047947981846
H           98.32072245728763       -2.35637457024265       -1.05880744112734
C           53.28378543484207        0.01544796382063       -0.01105885763079
C           52.05613246806723        0.00270808918157       -0.01945317340033
C           50.64342333585052        0.01118070037437       -0.03004846233767
C           49.41342800708149        0.01947854480761       -0.01990763866085
C           54.66711459562507        0.00920050999727       -0.00886148467339
C           55.88284521720695        0.02289493841336       -0.02027929919224