256
 energy: -511.231128470912 gnorm: 0.000596419388 xtb: 6.5.1 (b24c23e)
Ni          44.63770042878135        0.00202401617087       -0.07923376121898
C           41.24848315205091       -0.00350258434319       -0.21451588589999
C           41.89959913843723       -1.21926769019703       -0.23055896421061
C           41.22350736633391       -2.48020746339830       -0.26333314128377
C           42.18073944503614       -3.43111702416840       -0.36728821882978
C           43.44072640191140       -2.74763693195534       -0.41551044347135
N           43.25998309006872       -1.39393550852650       -0.28701886497163
C           44.66070239522573       -3.37920168114421       -0.62384834957605
C           44.67161579995052       -4.84057152452720       -0.86166706205471
C           45.35753710247630       -5.69351512150036        0.00814379610508
C           45.36789005254040       -7.05923082982518       -0.20993901199434
C           44.69111904645830       -7.57603489330491       -1.31104656490949
N           44.70113416638446       -9.00929434657225       -1.54664707620981
O           44.10013814708725       -9.42063187809274       -2.50572156341750
O           45.30945993016216       -9.69790577900928       -0.76832409779237
C           44.00515260992798       -6.74372815379120       -2.19092810201644
C           43.99639730460049       -5.38013689798816       -1.96073467817576
C           45.86968201510944       -2.69489544627823       -0.63413031301968
C           47.13073522943126       -3.30745377913357       -0.92486158144824
C           48.07590935829294       -2.35029654127486       -0.76597250514409
N           46.03829231160655       -1.36141154366426       -0.34024434085916
C           47.39032151559178       -1.15666426426309       -0.38480752381662
C           48.04909859008694        0.02221468162824       -0.02552889115201
C           47.36615284598408        1.18732257569448        0.33393922124691
C           48.02481591446154        2.37749016465439        0.76923863896955
C           47.06135886033339        3.31366154608364        0.94295016941306
C           45.81754057454511        2.69532728313193        0.59547021598665
N           46.01303149524364        1.37453819368932        0.26194857912279
C           44.60293507400200        3.36778924337721        0.55228151274511
C           44.58128466983909        4.81872283887860        0.84670156726918
C           43.83690225399800        5.30406065498495        1.92621851086376
C           43.81228342214443        6.65696257803186        2.21152998636978
C           44.53383589902071        7.53340928638569        1.40609468012875
N           44.50956736939043        8.95568461861643        1.69984535420053
O           43.85072389715228        9.31943125479481        2.63994693216372
O           45.14932971800271        9.68353498519393        0.98499305024615
C           45.27771672838202        7.07114689014837        0.32421751677541
C           45.30028845755083        5.71550625985190        0.05093411908512
C           43.40450403262607        2.73693446255897        0.24094473234113
C           42.14962826986140        3.41901581390671        0.11074898738632
C           41.21037864371473        2.47113889012351       -0.11424732219198
C           41.89231461391955        1.21288366668632       -0.12691527068631
N           43.24210803846967        1.38826569180229        0.05289167714340
H           40.16596693097301       -0.00464224232262       -0.26328107914279
H           40.15349301051356       -2.60137809379343       -0.20960334014899
H           42.05783467566443       -4.50121677312922       -0.40549451717190
H           45.87135434368496       -5.27948740441047        0.86784636276021
H           45.89113739525515       -7.72916375866342        0.46169951436050
H           43.49015058947933       -7.17059996428001       -3.04312072814796
H           43.47631289813921       -4.71996487868443       -2.64498717268600
H           47.26518242125898       -4.33531112710246       -1.21948789175512
H           49.14376806133237       -2.43063247649594       -0.88894486820824
H           49.08815201799334        2.46847450228678        0.92078783491932
H           47.17330273532522        4.33152388499553        1.27875952826126
H           43.28821423621753        4.60958226053662        2.55165687913517
H           43.24386285400504        7.04183105966307        3.04964585718346
H           45.82645625740236        7.77492015516735       -0.29002640896521
H           45.86585583276612        5.34430462324263       -0.79572655356629
H           42.01886848585067        4.48680438742629        0.17744650164542
H           40.14862903996513        2.59218812901623       -0.25752550296467
Ni          92.63378082391930        0.06198205664977       -0.04910962386323
C           96.02202134661950        0.11228645690648       -0.17928006346514
C           95.37358443098302        1.24458290693216        0.26793394890359
C           96.05144241645796        2.42282565686148        0.71562197373874
C           95.09587469140041        3.34536629501894        0.97512844422939
C           93.83520594625659        2.73426126989059        0.66814665907117
N           94.01365846586125        1.43110781753844        0.27879947668584
C           92.61721426395127        3.40221446275817        0.70245082135535
C           92.60862019844028        4.84683053742462        1.02652395313249
C           91.91400280300370        5.31607654048195        2.14543105649468
C           91.90513305676893        6.66460929280117        2.45230108886065
C           92.59212649248798        7.55261036502029        1.62946794542879
N           92.58360343108708        8.97035314525795        1.94528410829059
O           93.19326460727468        9.70788854513447        1.21419659278494
O           91.96647364727662        9.32102585161461        2.91809655098101
C           93.28691930072728        7.10628210977632        0.50896327183246
C           93.29422566828613        5.75516190635870        0.21419792789581
C           91.40794648741270        2.77485579799505        0.42986700112136
C           90.14919763504911        3.45509669207698        0.37746450234762
C           89.20216503273026        2.50911098080364        0.16938917500189
N           91.23633746156206        1.42728729476276        0.21175251934728
C           89.88434668017628        1.25680252029322        0.09009041456438
C           89.22311668900322        0.02883491993393       -0.00141682536718
C           89.90491777099385       -1.18827163368622       -0.08950657959904
C           89.24591579812196       -2.45504870294580       -0.11480657910262
C           90.20751813565417       -3.38981501938116       -0.30630947703436
C           91.45045616612619       -2.68732228249669       -0.41440693457314
N           91.25681931096938       -1.33659813240285       -0.23548927077758
C           92.66168944573636       -3.29543735616371       -0.71910596737393
C           92.67887051043779       -4.75054104427875       -0.99146958814253
C           93.43665454505927       -5.60694954446049       -0.18686467122646
C           93.45642248434662       -6.96776487244654       -0.43223708412116
C           92.71620791759767       -7.47630497222815       -1.49571606018849
N           92.73525559213822       -8.90452611119747       -1.75947020975378
O           93.40734788954730       -9.59564226390287       -1.03782166361375
O           92.07804457459235       -9.30946769197661       -2.68371023107308
C           91.95854454513191       -6.64046301596983       -2.31109015976976
C           91.94124772612193       -5.28168935192638       -2.05376366034807
C           93.85978035234182       -2.59406512683675       -0.78372447466677
C           95.11146770169778       -3.17712837615327       -1.17127206780574
C           96.05268094649213       -2.21545625993763       -1.02711104258038
C           95.37505069104130       -1.04520271166163       -0.55836332839186
N           94.02560038114406       -1.27417388573475       -0.45049113225888
H           97.10447846599337        0.12985751216143       -0.22613232706770
H           97.12140746714265        2.51198528941188        0.81427464766415
H           95.22037690117587        4.35049200928873        1.34379793196948
H           91.39215396529630        4.61293326563595        2.78401352039033
H           91.37524573216913        7.03739371350015        3.32060151413188
H           93.80978290643168        7.81854001858635       -0.11792292684526
H           93.82116168964610        5.39613767025914       -0.66213340091859
H           90.01746701308208        4.51978719146486        0.47980708814474
H           88.13506175696716        2.63210242951176        0.07950827869153
H           88.18360070397958       -2.59522074701495        0.00252334316575
H           90.09474595416883       -4.45985682459166       -0.36667630500142
H           93.99959882521351       -5.19943622370836        0.64473000185141
H           94.03526627795576       -7.64009044329157        0.18952447550556
H           91.39521459312198       -7.06098156469716       -3.13541821304408
H           91.36516760056372       -4.61880757313910       -2.68876142922448
H           95.23916651648196       -4.19090751414390       -1.51430262553233
H           97.11318351047626       -2.27449233744557       -1.21244655088566
C           53.25058178377304        0.04950672380875        0.00435452681339
C           52.02275147820663        0.04667556602297        0.00123076915346
C           50.67758553061544        0.04128419007151       -0.00687929523173
C           49.45445466213467        0.03319439016033       -0.01536617324363
C           54.59565564099783        0.05051762274883        0.00410973354197
C           55.81902445961697        0.05181998618883        0.00039463318091
C           69.25138583329716        0.02627449703508        0.02647118549471
C           68.02350293406708        0.03048115446480        0.02222843127626
C           66.67893099204042        0.03398879216316        0.01521483340288
C           65.45543706949724        0.03669994717057        0.00471144040474
C           70.59597381436953        0.02059150930314        0.02729077417702
C           71.81948589702840        0.01619648458305        0.02355334893612
C           85.25002858474839       -0.00153194019020        0.01335368651823
C           84.02210070869863       -0.00692104345667        0.01441590698598
C           82.67734264025061       -0.00990743168027        0.01333522161676
C           81.45376407243555       -0.01090054308286        0.00970460646724
C           86.59487335133296        0.00641614600863        0.00861022415141
C           87.81818757040179        0.01653134852450        0.00497723682504
Ni          60.63737033754484        0.04381164630640       -0.02801865921474
C           57.22367362474307        0.04951251417768       -0.00798251224336
C           57.89657902087932       -1.15472387112533        0.21910874436568
C           57.22945809773840       -2.38540231101576        0.50112466459458
C           58.18239779835208       -3.34857509035588        0.52095373379093
C           59.42820250425127       -2.70180098650319        0.24165778875456
N           59.24625808940453       -1.34510039964004        0.10349916798956
C           60.63290501383328       -3.37305641075106        0.07330872463109
C           60.63272302264151       -4.85286428470972        0.11653719687709
C           61.38331551102875       -5.52914939079675        1.08311490195007
C           61.38905514316751       -6.91131553265585        1.12813904514143
C           60.64186679933770       -7.62365855290271        0.19451201229311
N           60.64880524195888       -9.07595294179073        0.23395174778622
O           59.98724993762978       -9.65871077332554       -0.58607013201330
O           61.31669890507881       -9.60685760547149        1.08363701034146
C           59.88887148743960       -6.96965768811847       -0.77637446223727
C           59.88505555593593       -5.58697619941040       -0.80900679333468
C           61.84016094293962       -2.71585229911165       -0.12776500093551
C           63.08688130350197       -3.38074362854166       -0.35668880983784
C           64.04354965029346       -2.42128798719169       -0.37354434801578
N           62.02568818055833       -1.35405417890168       -0.06227514631634
C           63.37729297765843       -1.17502590088624       -0.16895997450288
C           64.05125228680612        0.03929873911670       -0.00793447382442
C           63.37829727563032        1.25636886911561        0.13440641305192
C           64.04565793529493        2.50372726163670        0.32872065886992
C           63.09303021161492        3.46600752906995        0.27850591206073
C           61.84714803919028        2.80113717046410        0.04513737661793
N           62.02883656950591        1.43805206746734        0.00482580336145
C           60.64292423095861        3.45916577178228       -0.17176387697540
C           60.65064781335392        4.93788278996966       -0.24236544610960
C           61.40539484633751        5.59108507466354       -1.22151558145318
C           61.42058459141448        6.97209717211754       -1.29208161251930
C           60.67888112020362        7.70665528543086       -0.37138570513705
N           60.69626115218753        9.15787823266252       -0.43716426317180
O           61.36830597907493        9.66850765202637       -1.29594142427132
O           60.03823648299832        9.76013868886013        0.37154873147340
C           59.92218382216946        7.07584973073721        0.61186700627957
C           59.90897846578442        5.69406501918350        0.67011217637172
C           59.43471774328547        2.79005183729246       -0.32147424684492
C           58.18766150542913        3.43739099240780       -0.59405562478437
C           57.23091794754279        2.47922310042789       -0.54167971391847
C           57.89735501472018        1.25010862586461       -0.25153416931054
N           59.24922249492139        1.43635616288707       -0.15901064686171
H           56.16766396795633       -2.48446714534004        0.65817789108939
H           58.06232139265056       -4.40247155890949        0.71147502358463
H           61.95201583060536       -4.96224512852109        1.81094085810372
H           61.96298643434223       -7.44436346168037        1.87657317019066
H           59.31891651697187       -7.54783891855610       -1.49371761336915
H           59.31245674736690       -5.06574150305131       -1.56726946612860
H           63.20556239206039       -4.44350301390236       -0.49012205549766
H           65.10702996661293       -2.53213997884281       -0.51002492424075
H           65.10737559865602        2.61344113407787        0.47907929890630
H           63.21346784926325        4.53069815096651        0.39380289594851
H           61.97028874232237        5.00686296979615       -1.93852549911969
H           61.99789594944311        7.48730606972010       -2.05032923280266
H           59.35698707180104        7.67104194912477        1.31897333253289
H           59.33407305611861        5.19100612207354        1.43881862231589
H           58.06893393210858        4.48832334799043       -0.80101091367619
H           56.16718130013378        2.58041603815552       -0.68360281164637
Ni          76.63652625737987        0.00132151426466       -0.00868078804148
C           73.22363920800734        0.01185422281971        0.01451491132653
C           73.89550038256472       -1.19171011248305        0.24859803005435
C           73.22802640308301       -2.42009922526720        0.53946719884783
C           74.17959467811073       -3.38470195171124        0.55740455544921
C           75.42480909631604       -2.74104923918588        0.26790027096514
N           75.24416266557532       -1.38441044193620        0.12750087212301
C           76.62662333219768       -3.41457591285666        0.08825756544774
C           76.61945726538320       -4.89442773123894        0.12509210357497
C           77.37419754566443       -5.58121926045427        1.08081109506521
C           77.36529911941014       -6.96359582669653        1.12209195400177
C           76.59965133641910       -7.66541430764565        0.19548759033045
N           76.58827082010286       -9.11772038557636        0.23318104888770
O           75.90865480457678       -9.69071544878034       -0.57898908539946
O           77.25892499272611       -9.65841454547314        1.07441289023362
C           75.84405496083281       -7.00082671917841       -0.76617170838090
C           75.85496911435071       -5.61822170873852       -0.79504212890491
C           77.83365072248624       -2.75911837037537       -0.12097605601563
C           79.07752011776094       -3.42468652321344       -0.36223309109774
C           80.03565088411307       -2.46648953830387       -0.38149391487180
N           78.02190644892769       -1.39795381479606       -0.05065440972502
C           79.37316842396217       -1.22019150066318       -0.16551907201523
C           80.04954838475440       -0.00809931066786        0.00362020952761
C           79.37790263300391        1.20845967263729        0.15906134986839
C           80.04573233987512        2.45391330482867        0.36346946240121
C           79.09433524257231        3.41776161630429        0.31523832714032
C           77.84873470562384        2.75588489754428        0.07301399579401
N           78.02893669374684        1.39277801038871        0.02708384741865
C           76.64646722222371        3.41574167895403       -0.15041754348998
C           76.65251029837874        4.89431942696620       -0.22025523844896
C           77.41448150077694        5.55081832597384       -1.19148765946703
C           77.41894288752371        6.93177546675294       -1.26604903434968
C           76.65946311868694        7.66295196906684       -0.35724810818562
N           76.66163818844248        9.11393274638871       -0.43020374317279
O           77.33757618248941        9.62777041711899       -1.28395360932433
O           75.98644913128683        9.71277684225554        0.36687025265894
C           75.89768805865991        7.02892315276661        0.62002565242344
C           75.89552468955854        5.64736196623112        0.68241560177596
C           75.43867031406735        2.74767355761949       -0.30829145050880
C           74.19347122675322        3.39503760008630       -0.58967048525241
C           73.23529549639504        2.43832382287493       -0.53626902551132
C           73.89910846467194        1.20993393733949       -0.23732661079416
N           75.25074747212231        1.39478106772768       -0.14180802616183
H           72.16694580493676       -2.51685163875680        0.70277560548856
H           74.05876779357659       -4.43757612035047        0.75299370461577
H           77.95649640553556       -5.02262148485544        1.80428660311519
H           77.94107068952142       -7.50492536431516        1.86314325532000
H           75.25988454041459       -7.57077592303299       -1.47863439142542
H           75.27967232210260       -5.08861995736876       -1.54543153570747
H           79.19337936594076       -4.48707495916042       -0.50116839228163
H           81.09795918862123       -2.57839844630986       -0.52603787049677
H           81.10698170883506        2.56162896326167        0.51851999053713
H           79.21540706734744        4.48169622459992        0.43689702574431
H           77.99205423206413        4.96934249986405       -1.90058633097253
H           78.00037495062867        7.44955951002788       -2.01939189442107
H           75.31899972220184        7.62142103545954        1.31841323015597
H           75.31593562982039        5.14174913761797        1.44591585951034
H           74.07651715444099        4.44491012460872       -0.80284308090618
H           72.17223104233646        2.54029774844097       -0.68258652260903
