270
 energy: -541.080269512452 gnorm: 1.963289177032 xtb: 6.5.1 (b24c23e)
Cu          41.57971600000000       -0.05625600000000       -0.02761200000000
C           38.24657600000000        0.09475600000000        0.07879800000000
C           38.91338900000000        1.25170100000000        0.05739800000000
C           38.26501699999999        2.55732000000000        0.05619400000000
C           39.20865799999999        3.47939000000000        0.04823300000000
C           40.51380500000000        2.80434000000000        0.04616500000000
N           40.33382200000000        1.38811500000000        0.05120000000000
C           41.70775500000000        3.42923200000000        0.07608200000000
C           41.74527899999999        4.90793500000000        0.08359700000000
C           41.53593900000000        5.62321000000000       -1.10337700000000
C           41.55759400000000        7.02154900000000       -1.10044000000000
O           41.34331700000000        7.70272700000000       -2.29882800000000
C           41.79065800000000        7.71720800000000        0.09971200000000
O           41.80628600000000        9.11274100000000        0.09564600000000
C           42.00443299999999        7.00119400000000        1.29180400000000
O           42.23727900000000        7.68389200000000        2.48444500000000
C           41.98195700000000        5.59996400000000        1.27841100000000
C           43.00596200000000        2.70512700000000        0.11443700000000
C           44.30523599999999        3.37465300000000        0.24586100000000
C           45.23956100000000        2.44748300000000        0.23120700000000
N           43.14058600000000        1.41735200000000        0.01385200000000
C           44.54645599999999        1.17358100000000        0.07967900000000
C           45.14166500000000       -0.02712700000000       -0.02871800000000
C           44.38870600000000       -1.29265800000000       -0.20886900000000
C           44.95399499999999       -2.45460000000000       -0.51399600000000
C           43.90649900000000       -3.45366000000000       -0.54419400000000
C           42.76480999999999       -2.83949300000000       -0.25813800000000
N           42.97856100000000       -1.44277500000000       -0.03184800000000
C           41.45569900000000       -3.53320700000000       -0.13966800000000
C           41.43688400000000       -5.01198800000000       -0.15827400000000
C           41.58351300000000       -5.72999000000000        1.03513400000000
C           41.56222899999999       -7.12845200000000        1.02627600000000
O           41.70395799999999       -7.81373600000000        2.23300800000000
C           41.39890200000000       -7.82041800000000       -0.18770900000000
O           41.38207200000000       -9.21585200000000       -0.18872500000000
C           41.25699800000000       -7.10063700000000       -1.38825300000000
O           41.09955799999999       -7.78004100000000       -2.59546200000000
C           41.27517100000000       -5.69932500000000       -1.36823900000000
C           40.29302600000000       -2.86803100000000       -0.01757400000000
C           38.96909600000000       -3.47620200000000        0.10114100000000
C           38.11008500000000       -2.47755900000000        0.15287600000000
C           38.87619500000000       -1.23492800000000        0.07288300000000
N           40.15092799999999       -1.44968000000000       -0.02756200000000
H           37.16369300000000        0.12754000000000        0.10341800000000
H           37.20038999999999        2.75308000000000        0.06530700000000
H           39.02497700000000        4.54604000000000        0.05479000000000
H           41.35220799999999        5.09288800000000       -2.03006900000000
H           41.34829100000000        8.71416600000000       -2.35180300000000
H           41.95666000000000        9.65299600000000        0.93865300000000
H           42.39359200000000        7.19156700000000        3.35636600000000
H           42.14468300000000        5.04936500000000        2.19707000000000
H           44.48880199999999        4.43721200000000        0.33577500000000
H           46.30334900000000        2.63065900000000        0.30596200000000
H           46.00364800000000       -2.63950800000000       -0.69596900000000
H           44.04139299999999       -4.50842500000000       -0.74713700000000
H           41.71068900000000       -5.20223500000000        1.97258300000000
H           41.68564199999999       -8.82480300000000        2.28337500000000
H           41.26817900000000       -9.75397000000000       -1.03915200000000
H           40.99972000000000       -7.28574100000000       -3.47488000000000
H           41.16483100000000       -5.14584200000000       -2.29328300000000
H           38.71720400000000       -4.52836100000000        0.13563500000000
H           37.03508599999999       -2.57536200000000        0.23632100000000
Cu          98.60482900000000        0.00168900000000       -0.02431700000000
C          101.93796900000000       -0.16041100000000        0.06429000000000
C          101.27115700000000       -1.30747500000000       -0.08810600000000
C          101.91952800000000       -2.60454300000000       -0.23728900000000
C          100.97588700000000       -3.51976900000000       -0.34971100000000
C           99.67074099999999       -2.84883500000000       -0.27525200000000
N           99.85072300000000       -1.44230700000000       -0.10972600000000
C           98.47679099999999       -3.47309100000000       -0.31635600000000
C           98.43926600000000       -4.94311600000000       -0.47649400000000
C           98.64860600000000       -5.51924300000000       -1.73689200000000
C           98.62695199999999       -6.90890400000000       -1.89246900000000
O           98.84122799999999       -7.44986000000000       -3.16034300000000
C           98.39388700000001       -7.73611100000000       -0.77890200000000
O           98.37825900000000       -9.12219000000000       -0.94111900000000
C           98.18011199999999       -7.15983100000000        0.48666500000000
O           97.94726699999998       -7.97331000000000        1.59423900000000
C           98.20258900000000       -5.76611200000000        0.63218100000000
C           97.17858300000000       -2.75799900000000       -0.19617400000000
C           95.87931000000000       -3.43810700000000       -0.14148500000000
C           94.94498400000001       -2.51525100000000       -0.05095400000000
N           97.04395999999998       -1.46712300000000       -0.15014800000000
C           95.63808899999998       -1.23238400000000       -0.05711500000000
C           95.04287999999998       -0.02712700000000       -0.02871800000000
C           95.79583900000000        1.25066800000000       -0.06426500000000
C           95.23054999999999        2.43970600000000       -0.23572600000000
C           96.27804599999999        3.43575100000000       -0.15249000000000
C           97.41973500000000        2.79311800000000        0.06211000000000
N           97.20598500000000        1.37975200000000        0.12862900000000
C           98.72884600000000        3.46893400000000        0.25844500000000
C           98.74766200000001        4.94029400000000        0.40757200000000
C           98.60103199999999        5.51840200000000        1.67467200000000
C           98.62231600000000        6.90885500000000        1.82438100000000
O           98.48058700000000        7.45294600000000        3.10101000000000
C           98.78564299999999        7.73396200000000        0.69665100000000
O           98.80247400000000        9.12051800000000        0.85380700000000
C           98.92754699999999        7.15489600000000       -0.57774100000000
O           99.08498700000000        7.96675300000000       -1.70016300000000
C           98.90937400000000        5.76034600000000       -0.71668800000000
C           99.89151999999999        2.79420600000000        0.30435800000000
C          101.21544999999999        3.38500200000000        0.49124200000000
C          102.07445999999999        2.38693000000000        0.42945100000000
C          101.30835000000000        1.16137400000000        0.20912700000000
N          100.03361700000001        1.38612800000000        0.13367100000000
H          103.02085299999999       -0.19577500000000        0.08503500000000
H          102.98415500000000       -2.80007400000000       -0.25042300000000
H          101.15956799999999       -4.58028800000000       -0.46409600000000
H           98.83233700000000       -4.88730200000000       -2.59750200000000
H           98.83625499999999       -8.44877700000000       -3.32761900000000
H           98.22788499999999       -9.75451500000000       -0.16478100000000
H           97.79095400000000       -7.58298600000000        2.51634400000000
H           98.03986300000000       -5.32318700000000        1.60732800000000
H           95.69574400000000       -4.50401000000000       -0.17258700000000
H           93.88119600000000       -2.70572000000000        0.00255700000000
H           94.18089800000000        2.64404900000000       -0.39556800000000
H           96.14315200000000        4.50672200000000       -0.23457200000000
H           98.47385699999998        4.88779200000000        2.54626100000000
H           98.49890400000000        8.45178800000000        3.26565300000000
H           98.91636600000000        9.75156000000000        0.06985400000000
H           99.18482500000000        7.57531700000000       -2.62994000000000
H           99.01971399999999        5.31528000000000       -1.69850600000000
H          101.46734199999999        4.42647100000000        0.64477000000000
H          103.14945899999998        2.47464500000000        0.52344400000000
C           47.49267699999999       -0.01243700000000       -0.01844200000000
C           48.95090400000000       -0.03427300000000       -0.03631500000000
C           50.08483199999999       -0.05502700000000       -0.03780600000000
C           51.44621299999999       -0.06761700000000       -0.03999700000000
C           52.72043200000000       -0.05731100000000       -0.04476200000000
C           53.90889499999999       -0.03851200000000       -0.05091800000000
C           55.26125500000000       -0.01372800000000       -0.03505000000000
C           56.36152300000000       -0.01243700000000       -0.01844200000000
C           65.59583200000000       -0.01243700000000       -0.01844200000000
C           67.05405800000000       -0.03427300000000       -0.03631500000000
C           68.18798600000000       -0.05502700000000       -0.03780600000000
C           69.54936800000000       -0.06761700000000       -0.03999700000000
C           70.82358700000000       -0.05731100000000       -0.04476200000000
C           72.01204900000000       -0.03851200000000       -0.05091800000000
C           73.36441000000001       -0.01372800000000       -0.03505000000000
C           74.46467699999999       -0.01243700000000       -0.01844200000000
C           83.69898600000000       -0.01243700000000       -0.01844200000000
C           85.15721200000000       -0.03427300000000       -0.03631500000000
C           86.29113999999998       -0.05502700000000       -0.03780600000000
C           87.65252200000000       -0.06761700000000       -0.03999700000000
C           88.92674099999999       -0.05731100000000       -0.04476200000000
C           90.11520299999998       -0.03851200000000       -0.05091800000000
C           91.46756399999998       -0.01372800000000       -0.03505000000000
C           92.56783099999998       -0.01243700000000       -0.01844200000000
Cu          60.99929000000000       -0.05485400000000       -0.06391100000000
C           57.58965900000000        0.03001800000000        0.03281600000000
C           58.24612599999999        1.19865600000000        0.15238700000000
C           57.60453600000000        2.49771200000000        0.36481800000000
C           58.54259499999999        3.42412400000000        0.38706800000000
C           59.84140800000000        2.77263200000000        0.18976900000000
N           59.66347700000000        1.36102300000000        0.04834900000000
C           61.02636199999999        3.41685500000000        0.13773200000000
C           61.05608200000000        4.89251900000000        0.24100500000000
C           61.51857900000000        5.50547500000000        1.41443500000000
C           61.56121300000000        6.90262900000000        1.51322500000000
O           62.01415200000000        7.51320900000000        2.68314900000000
C           61.14620900000000        7.69346600000000        0.43238200000000
O           61.19872900000000        9.08285800000000        0.54814100000000
C           60.68382400000000        7.08247300000000       -0.74871300000000
O           60.27236199999999        7.86550800000000       -1.82614500000000
C           60.63971300000000        5.68437200000000       -0.83902600000000
C           62.32742200000000        2.71841600000000       -0.01550900000000
C           63.60080100000000        3.41012800000000       -0.25057300000000
C           64.55457699999999        2.50130900000000       -0.28005300000000
N           62.49354200000000        1.43655500000000        0.09038000000000
C           63.89593199999999        1.21901400000000       -0.06815400000000
C           64.51097799999999        0.03001800000000        0.03281600000000
C           63.76203000000000       -1.22882200000000        0.23120500000000
C           64.30021000000001       -2.36039300000000        0.66757600000000
C           63.26774899999999       -3.37734900000000        0.60845600000000
C           62.16950499999999       -2.79756400000000        0.13775800000000
N           62.39118800000000       -1.41231900000000       -0.12185400000000
C           60.91080800000000       -3.51598800000000       -0.17446000000000
C           60.97273400000000       -4.98086200000000       -0.39739700000000
C           61.70751000000000       -5.49492400000000       -1.47274400000000
C           61.77888399999999       -6.87359200000000       -1.68814200000000
O           62.51012399999999       -7.34374500000000       -2.77962100000000
C           61.12017500000000       -7.76231100000000       -0.81629300000000
O           61.21443500000000       -9.13336000000000       -1.06962600000000
C           60.38799399999999       -7.24584500000000        0.28136600000000
O           59.71625499999999       -8.06313800000000        1.19397200000000
C           60.32390699999999       -5.86191600000000        0.47881400000000
C           59.73449500000000       -2.86751900000000       -0.27806400000000
C           58.45307300000000       -3.46942300000000       -0.63176500000000
C           57.56381399999999       -2.49910500000000       -0.57377500000000
C           58.26588500000000       -1.26985600000000       -0.18881300000000
N           59.53499699999999       -1.47784400000000       -0.01636800000000
H           56.54813500000000        2.69637900000000        0.48973100000000
H           58.35773500000000        4.48006800000000        0.53499500000000
H           61.84382099999999        4.89783300000000        2.25079200000000
H           62.30490900000000        6.96875500000000        3.49135300000000
H           60.90611900000000        9.69784800000000       -0.20505000000000
H           59.91252200000000        7.45128800000000       -2.67847000000000
H           60.28599200000000        5.21440800000000       -1.75040500000000
H           63.75229800000000        4.47434900000000       -0.37619100000000
H           65.60797300000000        2.69931500000000       -0.42967100000000
H           65.32526700000000       -2.51178400000000        0.98020200000000
H           63.38503999999999       -4.42219700000000        0.86537900000000
H           62.22081700000000       -4.82235800000000       -2.15064300000000
H           62.59308100000000       -8.33138300000000       -2.99032200000000
H           60.76437499999999       -9.84686000000000       -0.51252400000000
H           59.70733799999999       -9.07161300000000        1.15128400000000
H           59.76763299999999       -5.47111400000000        1.32300600000000
H           58.24586300000000       -4.49722800000000       -0.89851500000000
H           56.50891300000000       -2.61331200000000       -0.78723800000000
Cu          79.10244400000001       -0.05485400000000       -0.06391100000000
C           75.69281400000000        0.03001800000000        0.03281600000000
C           76.34927999999999        1.19865600000000        0.15238700000000
C           75.70769099999998        2.49771200000000        0.36481800000000
C           76.64575000000001        3.42412400000000        0.38706800000000
C           77.94456300000000        2.77263200000000        0.18976900000000
N           77.76663099999999        1.36102300000000        0.04834900000000
C           79.12951700000001        3.41685500000000        0.13773200000000
C           79.15923700000000        4.89251900000000        0.24100500000000
C           79.62173300000001        5.50547500000000        1.41443500000000
C           79.66436799999998        6.90262900000000        1.51322500000000
O           80.11730600000000        7.51320900000000        2.68314900000000
C           79.24936300000000        7.69346600000000        0.43238200000000
O           79.30188300000000        9.08285800000000        0.54814100000000
C           78.78697800000000        7.08247300000000       -0.74871300000000
O           78.37551600000000        7.86550800000000       -1.82614500000000
C           78.74286699999999        5.68437200000000       -0.83902600000000
C           80.43057600000000        2.71841600000000       -0.01550900000000
C           81.70395499999998        3.41012800000000       -0.25057300000000
C           82.65773100000000        2.50130900000000       -0.28005300000000
N           80.59669599999999        1.43655500000000        0.09038000000000
C           81.99908600000001        1.21901400000000       -0.06815400000000
C           82.61413300000000        0.03001800000000        0.03281600000000
C           81.86518400000000       -1.22882200000000        0.23120500000000
C           82.40336399999998       -2.36039300000000        0.66757600000000
C           81.37090300000000       -3.37734900000000        0.60845600000000
C           80.27266000000000       -2.79756400000000        0.13775800000000
N           80.49434200000000       -1.41231900000000       -0.12185400000000
C           79.01396200000001       -3.51598800000000       -0.17446000000000
C           79.07588899999999       -4.98086200000000       -0.39739700000000
C           79.81066500000000       -5.49492400000000       -1.47274400000000
C           79.88203799999998       -6.87359200000000       -1.68814200000000
O           80.61327799999999       -7.34374500000000       -2.77962100000000
C           79.22332900000001       -7.76231100000000       -0.81629300000000
O           79.31758900000000       -9.13336000000000       -1.06962600000000
C           78.49114800000000       -7.24584500000000        0.28136600000000
O           77.81940899999999       -8.06313800000000        1.19397200000000
C           78.42706099999999       -5.86191600000000        0.47881400000000
C           77.83764900000000       -2.86751900000000       -0.27806400000000
C           76.55622699999999       -3.46942300000000       -0.63176500000000
C           75.66696899999999       -2.49910500000000       -0.57377500000000
C           76.36903899999999       -1.26985600000000       -0.18881300000000
N           77.63815099999999       -1.47784400000000       -0.01636800000000
H           74.65128899999999        2.69637900000000        0.48973100000000
H           76.46088899999999        4.48006800000000        0.53499500000000
H           79.94697499999999        4.89783300000000        2.25079200000000
H           80.40806300000000        6.96875500000000        3.49135300000000
H           79.00927299999998        9.69784800000000       -0.20505000000000
H           78.01567600000000        7.45128800000000       -2.67847000000000
H           78.38914600000000        5.21440800000000       -1.75040500000000
H           81.85545200000000        4.47434900000000       -0.37619100000000
H           83.71112799999999        2.69931500000000       -0.42967100000000
H           83.42842100000000       -2.51178400000000        0.98020200000000
H           81.48819399999999       -4.42219700000000        0.86537900000000
H           80.32397099999999       -4.82235800000000       -2.15064300000000
H           80.69623500000000       -8.33138300000000       -2.99032200000000
H           78.86753000000000       -9.84686000000000       -0.51252400000000
H           77.81049200000000       -9.07161300000000        1.15128400000000
H           77.87078800000000       -5.47111400000000        1.32300600000000
H           76.34901699999999       -4.49722800000000       -0.89851500000000
H           74.61206700000000       -2.61331200000000       -0.78723800000000
270
 energy: -541.786823129922 gnorm: 0.799834408108 xtb: 6.5.1 (b24c23e)
Cu          41.58516798609079       -0.05415299974614       -0.02671366226125
C           38.24731478880656        0.08265270297732        0.07890186322135
C           38.91884102359349        1.25382427544024        0.05718742829971
C           38.26379245388166        2.55297620473312        0.05629168619934
C           39.21480809362770        3.48140872844103        0.04821354413563
C           40.51177222313147        2.79920240440639        0.04580631301372
N           40.32088443329489        1.40034091572469        0.05121353135601
C           41.71855612667191        3.42636383151428        0.07623701946580
C           41.74685641656030        4.91139787307775        0.08299769448868
C           41.53578117945057        5.62710910346654       -1.10250113023449
C           41.55756386511406        7.02930392466902       -1.10069151935575
O           41.34367461348910        7.70310898565477       -2.29662591182236
C           41.79189541686854        7.72252528784798        0.10629239535978
O           41.80617071155591        9.11424113013844        0.09537709531420
C           42.00536966984699        6.99918450260101        1.29667418325842
O           42.23725879674598        7.68440681052477        2.48489150511214
C           41.98218109014194        5.60118324772379        1.27711826523638
C           43.00062181347535        2.71650583857892        0.11473251185448
C           44.29688194287093        3.38120525051312        0.24569116729621
C           45.24061449856686        2.44233375435717        0.23088378606856
N           43.14832865576746        1.41438602500502        0.01412574690957
C           44.55307619039775        1.17159108642175        0.07985744532442
C           45.14340737218456       -0.03676315849644       -0.03086191460346
C           44.38726917604252       -1.27996313049482       -0.20461117729639
C           44.95537234645648       -2.47059273190922       -0.51670583538716
C           43.92217640256735       -3.45494379403929       -0.54605823168084
C           42.75452822161756       -2.83085935250275       -0.25391402752337
N           42.98402599909350       -1.44727085454450       -0.03350378330016
C           41.46549081500263       -3.52724006412044       -0.13992788247994
C           41.43973969901731       -5.01449238034559       -0.15813494058633
C           41.58345518934642       -5.73375169059032        1.03436443244826
C           41.56200090106919       -7.13618944480502        1.02650464848158
O           41.70352050075977       -7.81399901080763        2.23072224337767
C           41.39810899796645       -7.82569531683836       -0.19437149042594
O           41.38199119850810       -9.21732922968034       -0.18846171900924
C           41.25644844759067       -7.09851648730433       -1.39312234016719
O           41.09939413969779       -7.78041216741501       -2.59580709100980
C           41.27538942880491       -5.70015923996539       -1.36696520669009
C           40.29162040458164       -2.86674835020103       -0.01719668503528
C           38.97482584150870       -3.47710680444962        0.10057056846202
C           38.10433102146865       -2.46980435845785        0.15317896498036
C           38.86283285873382       -1.22795923572761        0.07324308943581
N           40.15114256406041       -1.45775511035123       -0.02749045796967
H           37.16403011505164        0.12540328061224        0.10355612534949
H           37.20039805896718        2.74972849548370        0.06528199101237
H           39.02901451361218        4.54634046307195        0.05463587218830
H           41.35244779596615        5.09406173025998       -2.02950603954068
H           41.34974239598642        8.70214938746155       -2.34330043989211
H           41.95553355526534        9.63971044482833        0.93240771493804
H           42.39094614131644        7.19243072514393        3.34201144588609
H           42.14460329165018        5.04973513737101        2.19668226394000
H           44.48541642786927        4.43887134270436        0.33573526038335
H           46.30322219084359        2.62633255606120        0.30566722986062
H           46.00412560091504       -2.64123377925020       -0.69632035582052
H           44.04332013011118       -4.50829807905618       -0.74761442950778
H           41.71066978103266       -5.20344173914199        1.97205909968208
H           41.68492667812603       -8.81279621904723        2.27482922300135
H           41.26918167508790       -9.74065376991567       -1.03279641036733
H           41.00152041530110       -7.28664244517409       -3.46032010783412
H           41.16491996866967       -5.14618356966060       -2.29283023334062
H           38.72113572386823       -4.52809304843265        0.13540517072674
H           37.03393067904022       -2.57243119777692        0.23642153181998
Cu          98.59921836761161       -0.00052269603105       -0.02365867899881
C          101.93726423063492       -0.14837325302477        0.06577120495646
C          101.26570864007289       -1.30950715638620       -0.08856741254540
C          101.92071870097007       -2.60018474212921       -0.23669846039049
C          100.96968461851679       -3.52173849284647       -0.34996470963477
C           99.67267957734111       -2.84376744386935       -0.27505659929060
N           99.86351627531019       -1.45417851056769       -0.11097726476547
C           98.46612188176205       -3.47032374533815       -0.31588362743602
C           98.43771351156869       -4.94649647120235       -0.47748002664153
C           98.64876259257493       -5.52322078214334       -1.73646094135856
C           98.62697857260576       -6.91657228269195       -1.89359124746100
O           98.84087276086730       -7.45049879851024       -3.15820973531921
C           98.39264980518728       -7.74211857238227       -0.77296563532027
O           98.37837144253497       -9.12368146033914       -0.94156099950067
C           98.17917560148332       -7.15837359424350        0.49171748073346
O           97.94727990089127       -7.97389554943083        1.59464370439510
C           98.20236870526045       -5.76718086861685        0.63075491752867
C           97.18394859286900       -2.76932710441844       -0.19717600663074
C           95.88773776919194       -3.44454116619578       -0.14241241551694
C           94.94402705930456       -2.50985897306325       -0.05067708103006
N           97.03674174530666       -1.46437539929237       -0.14958140055784
C           95.63198171329596       -1.23010613567949       -0.05667002188158
C           95.04292768368779       -0.01707859525522       -0.02949130852697
C           95.79793185879687        1.23731812362442       -0.06148843101629
C           95.22933839203378        2.45569145983669       -0.23655174212934
C           96.26243938801940        3.43722153202685       -0.15418862356209
C           97.43017387428644        2.78418172007511        0.06531411161297
N           97.20100023065572        1.38446637463594        0.12741636886300
C           98.71902852844335        3.46309218730671        0.25751506657099
C           98.74482096903962        4.94278152430731        0.40799623315174
C           98.60109217196306        5.52222989731769        1.67433477452415
C           98.62253896056596        6.91652097295453        1.82548701437373
O           98.48103373735717        7.45346191640597        3.09876863560856
C           98.78643261706448        7.73996909119366        0.69062919305838
O           98.80256628164436        9.12194368341650        0.85423493459746
C           98.92809194761331        7.15334478636236       -0.58282061879982
O           99.08515975153259        7.96715660793935       -1.70046220659324
C           98.90915915092965        5.76103378124764       -0.71532854731768
C           99.89288411230125        2.79288199389615        0.30459053142053
C          101.20964288184373        3.38592419796803        0.49077803376586
C          102.08017787605397        2.37911325390479        0.42884820539721
C          101.32174862507043        1.15433230163402        0.20868984659459
N          100.03317919240187        1.39394425910208        0.13462161720765
H          103.02052130307401       -0.19366617926435        0.08541754710431
H          102.98413513251671       -2.79672920946488       -0.25006778148911
H          101.15552216456035       -4.58055693363264       -0.46428341326323
H           98.83209739296386       -4.88853311089642       -2.59707378866388
H           98.83480419089233       -8.43780015617072       -3.31780855144814
H           98.22901437495111       -9.74060183357787       -0.16947741481843
H           97.79360314194608       -7.58220801776833        2.50198068782012