      -----------------------------------------------------------      
     |                   =====================                   |     
     |                           x T B                           |     
     |                   =====================                   |     
     |                         S. Grimme                         |     
     |          Mulliken Center for Theoretical Chemistry        |     
     |                    University of Bonn                     |     
      -----------------------------------------------------------      

   * xtb version 6.5.1 (b24c23e) compiled by 'conda@728c89f4b128' on 2022-07-12

   xtb is free software: you can redistribute it and/or modify it under
   the terms of the GNU Lesser General Public License as published by
   the Free Software Foundation, either version 3 of the License, or
   (at your option) any later version.
   
   xtb is distributed in the hope that it will be useful,
   but WITHOUT ANY WARRANTY; without even the implied warranty of
   MERCHANTABILITY or FITNESS FOR A PARTICULAR PURPOSE.  See the
   GNU Lesser General Public License for more details.
   
   Cite this work as:
   * C. Bannwarth, E. Caldeweyher, S. Ehlert, A. Hansen, P. Pracht,
     J. Seibert, S. Spicher, S. Grimme, WIREs Comput. Mol. Sci., 2020, 11,
     e01493. DOI: 10.1002/wcms.1493
   
   for GFN2-xTB:
   * C. Bannwarth, S. Ehlert and S. Grimme., J. Chem. Theory Comput., 2019,
     15, 1652-1671. DOI: 10.1021/acs.jctc.8b01176
   for GFN1-xTB:
   * S. Grimme, C. Bannwarth, P. Shushkov, J. Chem. Theory Comput., 2017,
     13, 1989-2009. DOI: 10.1021/acs.jctc.7b00118
   for GFN0-xTB:
   * P. Pracht, E. Caldeweyher, S. Ehlert, S. Grimme, ChemRxiv, 2019, preprint.
     DOI: 10.26434/chemrxiv.8326202.v1
   for GFN-FF:
   * S. Spicher and S. Grimme, Angew. Chem. Int. Ed., 2020, 59, 15665-15673.
     DOI: 10.1002/anie.202004239
   
   for ALPB and GBSA implicit solvation:
   * S. Ehlert, M. Stahn, S. Spicher, S. Grimme, J. Chem. Theory Comput.,
     2021, 17, 4250-4261. DOI: 10.1021/acs.jctc.1c00471
   
   for DFT-D4:
   * E. Caldeweyher, C. Bannwarth and S. Grimme, J. Chem. Phys., 2017,
     147, 034112. DOI: 10.1063/1.4993215
   * E. Caldeweyher, S. Ehlert, A. Hansen, H. Neugebauer, S. Spicher,
     C. Bannwarth and S. Grimme, J. Chem. Phys., 2019, 150, 154122.
     DOI: 10.1063/1.5090222
   * E. Caldeweyher, J.-M. Mewes, S. Ehlert and S. Grimme, Phys. Chem. Chem. Phys.
     2020, 22, 8499-8512. DOI: 10.1039/D0CP00502A
   
   for sTDA-xTB:
   * S. Grimme and C. Bannwarth, J. Chem. Phys., 2016, 145, 054103.
     DOI: 10.1063/1.4959605
   
   in the mass-spec context:
   * V. Asgeirsson, C. Bauer and S. Grimme, Chem. Sci., 2017, 8, 4879.
     DOI: 10.1039/c7sc00601b
   * J. Koopman and S. Grimme, ACS Omega 2019, 4, 12, 15120-15133.
     DOI: 10.1021/acsomega.9b02011
   
   for metadynamics refer to:
   * S. Grimme, J. Chem. Theory Comput., 2019, 155, 2847-2862
     DOI: 10.1021/acs.jctc.9b00143
   
   for SPH calculations refer to:
   * S. Spicher and S. Grimme, J. Chem. Theory Comput., 2021, 17, 1701-1714
     DOI: 10.1021/acs.jctc.0c01306
   
   with help from (in alphabetical order)
   P. Atkinson, C. Bannwarth, F. Bohle, G. Brandenburg, E. Caldeweyher
   M. Checinski, S. Dohm, S. Ehlert, S. Ehrlich, I. Gerasimov, C. Hölzer
   A. Katbashev, J. Koopman, C. Lavigne, S. Lehtola, F. März, M. Müller,
   F. Musil, H. Neugebauer, J. Pisarek, C. Plett, P. Pracht, F. Pultar,
   J. Seibert, P. Shushkov, S. Spicher, M. Stahn, M. Steiner, T. Strunk,
   J. Stückrath, T. Rose, and J. Unsleber
   
 * started run on 2022/07/30 at 03:27:25.255     

           -------------------------------------------------
          |                Calculation Setup                |
           -------------------------------------------------

          program call               : xtb xtbopt.xyz --gfn 1 --vipea
          hostname                   : cx3-15-15.cx3.hpc.ic.ac.uk
          coordinate file            : xtbopt.xyz
          omp threads                :                     1

   ID    Z sym.   atoms
    1   27 Co     1, 75
    2    6 C      2-6, 8-20, 22-27, 29-42, 76-80, 82-94, 96-101, 103-116,
                  149-154
    3    7 N      7, 21, 28, 43, 81, 95, 102, 117
    4    1 H      44-74, 118-148

           -------------------------------------------------
          |                 I P E A - x T B                 |
           -------------------------------------------------

        Reference                      10.1039/c7sc00601b
      * Hamiltonian:
        H0-scaling (s, p, d)           2.150000    2.300000    2.000000
        zeta-weighting                 0.000000
      * Dispersion:
        s8                             2.400000
        a1                             0.630000
        a2                             5.000000
        s9                             0.000000
      * Repulsion:
        kExp                           1.500000
        rExp                           1.000000
      * Coulomb:
        alpha                          1.000000
        third order                    atomic
        anisotropic                    false
      * Halogen bond correction:
        rad-scale                      1.300000
        damping                        0.440000


          ...................................................
          :                      SETUP                      :
          :.................................................:
          :  # basis functions                 594          :
          :  # atomic orbitals                 592          :
          :  # shells                          400          :
          :  # electrons                       448          :
          :  # halogen bonds                     0          :
          :  max. iterations                   250          :
          :  Hamiltonian                  GFN1-xTB          :
          :  restarted?                      false          :
          :  GBSA solvation                  false          :
          :  PC potential                    false          :
          :  electronic temp.          300.0000000     K    :
          :  accuracy                    1.0000000          :
          :  -> integral cutoff          0.2500000E+02      :
          :  -> integral neglect         0.1000000E-07      :
          :  -> SCF convergence          0.1000000E-05 Eh   :
          :  -> wf. convergence          0.2000000E-04 e    :
          :  Broyden damping             0.4000000          :
          ...................................................

 iter      E             dE          RMSdq      gap      omega  full diag
   1   -273.4817951 -0.273482E+03  0.999E+00    0.37       0.0  T
   2   -267.8440524  0.563774E+01  0.843E+00    0.07       1.0  T
   3   -273.3742008 -0.553015E+01  0.547E+00    0.26       1.0  T
   4   -274.3195993 -0.945399E+00  0.283E+00    0.31       1.0  T
   5   -274.7516146 -0.432015E+00  0.196E+00    0.39       1.0  T
   6   -275.1856411 -0.434027E+00  0.107E+00    0.04       1.0  T
   7   -275.0322056  0.153436E+00  0.120E+00    0.24       1.0  T
   8   -275.1474132 -0.115208E+00  0.896E-01    0.14       1.0  T
   9   -275.0024867  0.144927E+00  0.126E+00    0.24       1.0  T
  10   -275.0570108 -0.545241E-01  0.111E+00    0.25       1.0  T
  11   -275.1216644 -0.646537E-01  0.970E-01    0.17       1.0  T
  12   -275.1438332 -0.221687E-01  0.916E-01    0.14       1.0  T
  13   -275.2528022 -0.108969E+00  0.633E-01    0.07       1.0  T
  14   -275.2292495  0.235527E-01  0.704E-01    0.09       1.0  T
  15   -275.3537340 -0.124484E+00  0.155E-02    0.00       1.0  T
  16   -275.3519247  0.180927E-02  0.853E-02    0.01       1.0  T
  17   -275.3537105 -0.178575E-02  0.177E-02    0.00       1.0  T
  18   -275.3535936  0.116827E-03  0.277E-02    0.00       1.0  T
  19   -275.3535449  0.487528E-04  0.306E-02    0.00       1.0  T
  20   -275.3537687 -0.223832E-03  0.769E-03    0.00       1.0  T
  21   -275.3537764 -0.769425E-05  0.530E-03    0.00       1.5  T
  22   -275.3537834 -0.700561E-05  0.828E-04    0.00       9.7  T
  23   -275.3537835 -0.125733E-06  0.414E-04    0.00      19.5  T
  24   -275.3537836 -0.362469E-07  0.172E-04    0.00      46.8  T
  25   -275.3537836 -0.677744E-08  0.497E-05    0.00     162.0  T

   *** convergence criteria satisfied after 25 iterations ***

         #    Occupation            Energy/Eh            Energy/eV
      -------------------------------------------------------------
         1        2.0000           -1.0247328             -27.8844
       ...           ...                  ...                  ...
       218        1.9999           -0.3614867              -9.8366
       219        1.9999           -0.3614742              -9.8362
       220        1.9998           -0.3607916              -9.8176
       221        1.9998           -0.3607188              -9.8157
       222        1.9998           -0.3606966              -9.8151
       223        1.9998           -0.3606135              -9.8128
       224        1.0243           -0.3518771              -9.5751 (HOMO)
       225        0.9765           -0.3517862              -9.5726 (LUMO)
       226                         -0.3114467              -8.4749
       227                         -0.2972201              -8.0878
       228                         -0.2972144              -8.0876
       229                         -0.2968387              -8.0774
       ...                                ...                  ...
       592                        563.9467043           15345.7709
      -------------------------------------------------------------
                  HL-Gap            0.0000909 Eh            0.0025 eV
             Fermi-level           -0.3518308 Eh           -9.5738 eV

 SCC (total)                   0 d,  0 h,  0 min,  3.578 sec
 SCC setup                      ...        0 min,  0.003 sec (  0.088%)
 Dispersion                     ...        0 min,  0.005 sec (  0.138%)
 classical contributions        ...        0 min,  0.002 sec (  0.059%)
 integral evaluation            ...        0 min,  0.379 sec ( 10.604%)
 iterations                     ...        0 min,  2.295 sec ( 64.143%)
 molecular gradient             ...        0 min,  0.874 sec ( 24.419%)
 printout                       ...        0 min,  0.020 sec (  0.548%)

         :::::::::::::::::::::::::::::::::::::::::::::::::::::
         ::                     SUMMARY                     ::
         :::::::::::::::::::::::::::::::::::::::::::::::::::::
         :: total energy            -269.856761674532 Eh    ::
         :: gradient norm              0.068963676840 Eh/a0 ::
         :: HOMO-LUMO gap              0.002472414034 eV    ::
         ::.................................................::
         :: SCC energy              -275.353783591992 Eh    ::
         :: -> electrostatic           0.117513394898 Eh    ::
         :: repulsion energy           5.634132708113 Eh    ::
         :: dispersion energy         -0.137110790652 Eh    ::
         :: halogen bond corr.         0.000000000000 Eh    ::
         :: add. restraining           0.000000000000 Eh    ::
         :: total charge               0.000000000370 e     ::
         :::::::::::::::::::::::::::::::::::::::::::::::::::::

           ------------------------------------------------- 
          |        vertical delta SCC IP calculation        |
           ------------------------------------------------- 
   1   -274.9187189 -0.274919E+03  0.505E-01    0.00       0.0  T
   2   -274.5746357  0.344083E+00  0.144E+00    0.38       1.0  T
   3   -274.9336268 -0.358991E+00  0.376E-01    0.00       1.0  T
   4   -274.9371514 -0.352464E-02  0.320E-01    0.03       1.0  T
   5   -274.9002669  0.368845E-01  0.487E-01    0.07       1.0  T
   6   -274.9500780 -0.498111E-01  0.182E-01    0.00       1.0  T
   7   -274.9529400 -0.286194E-02  0.126E-01    0.01       1.0  T
   8   -274.9535051 -0.565130E-03  0.117E-01    0.01       1.0  T
   9   -274.9561121 -0.260695E-02  0.131E-02    0.01       1.0  T
  10   -274.9561466 -0.345389E-04  0.631E-03    0.01       1.3  T
  11   -274.9561484 -0.176238E-05  0.512E-03    0.01       1.6  T
  12   -274.9561533 -0.489562E-05  0.193E-03    0.01       4.2  T
  13   -274.9561540 -0.787588E-06  0.250E-04    0.01      32.2  T
  14   -274.9561540  0.780963E-07  0.667E-04    0.01      12.1  T
  15   -274.9561540 -0.754112E-07  0.312E-04    0.01      25.9  T
  16   -274.9561540 -0.979219E-08  0.197E-04    0.01      40.8  T
  17   -274.9561541 -0.515507E-08  0.120E-04    0.01      67.3  T
     SCC iter.                  ...        0 min,  1.563 sec
     gradient                   ...        0 min,  0.873 sec
------------------------------------------------------------------------
empirical IP shift (eV):    4.8455
delta SCC IP (eV):    5.9745
------------------------------------------------------------------------
           ------------------------------------------------- 
          |        vertical delta SCC EA calculation        |
           ------------------------------------------------- 
   1   -275.5577663 -0.275558E+03  0.876E-01    1.56       0.0  T
   2   -275.4582010  0.995653E-01  0.996E-01    0.15       1.0  T
   3   -275.6361657 -0.177965E+00  0.439E-01    0.99       1.0  T
   4   -275.5966713  0.394944E-01  0.550E-01    0.70       1.0  T
   5   -275.6402710 -0.435997E-01  0.322E-01    0.72       1.0  T
   6   -275.6565500 -0.162790E-01  0.126E-01    0.61       1.0  T
   7   -275.6594778 -0.292783E-02  0.589E-02    0.56       1.0  T
   8   -275.6599440 -0.466262E-03  0.384E-02    0.58       1.0  T
   9   -275.6601800 -0.235950E-03  0.141E-02    0.59       1.0  T
  10   -275.6602171 -0.370981E-04  0.381E-03    0.60       2.1  T
  11   -275.6602192 -0.208703E-05  0.200E-03    0.60       4.0  T
  12   -275.6602177  0.145820E-05  0.328E-03    0.60       2.5  T
  13   -275.6602202 -0.249928E-05  0.881E-04    0.60       9.1  T
  14   -275.6602202  0.604622E-07  0.101E-03    0.60       8.0  T
  15   -275.6602204 -0.195087E-06  0.325E-04    0.60      24.8  T
  16   -275.6602204  0.328197E-08  0.281E-04    0.60      28.7  T
  17   -275.6602204 -0.184603E-07  0.259E-05    0.60     311.0  T
  18   -275.6602204  0.119030E-09  0.300E-05    0.60     268.6  T
     SCC iter.                  ...        0 min,  1.655 sec
     gradient                   ...        0 min,  0.875 sec
------------------------------------------------------------------------
empirical EA shift (eV):    4.8455
delta SCC EA (eV):    3.4931
------------------------------------------------------------------------
           -------------------------------------------------
          |                Property Printout                |
           -------------------------------------------------

    * Orbital Energies and Occupations

         #    Occupation            Energy/Eh            Energy/eV
      -------------------------------------------------------------
         1        2.0000           -0.9558196             -26.0092
       ...           ...                  ...                  ...
       213        2.0000           -0.3388169              -9.2197
       214        2.0000           -0.3209125              -8.7325
       215        2.0000           -0.3188666              -8.6768
       216        2.0000           -0.3188647              -8.6767
       217        2.0000           -0.3066186              -8.3435
       218        2.0000           -0.2762086              -7.5160
       219        2.0000           -0.2758056              -7.5051
       220        2.0000           -0.2758004              -7.5049
       221        2.0000           -0.2756186              -7.5000
       222        1.9999           -0.2739110              -7.4535
       223        1.9999           -0.2738999              -7.4532
       224        1.5088           -0.2652967              -7.2191
       225        1.4915           -0.2652309              -7.2173 (HOMO)
       226        0.0000           -0.2432084              -6.6180 (LUMO)
       227                         -0.2294172              -6.2428
       228                         -0.2294152              -6.2427
       229                         -0.2286007              -6.2205
       230                         -0.1951919              -5.3114
       231                         -0.1858028              -5.0560
       232                         -0.1831013              -4.9824
       233                         -0.1799393              -4.8964
       234                         -0.1798059              -4.8928
       235                         -0.1730139              -4.7079
       236                         -0.1715048              -4.6669
       ...                                ...                  ...
       592                        564.0057899           15347.3787
      -------------------------------------------------------------
                  HL-Gap            0.0220225 Eh            0.5993 eV
             Fermi-level           -0.2595849 Eh           -7.0637 eV

  Mulliken/CM5 charges         n(s)   n(p)   n(d)
     1Co    0.24616  0.64132   0.338  0.980  7.436
     2C    -0.02486 -0.06619   1.085  2.940  0.000
     3C     0.05251  0.11302   1.111  2.837  0.000
     4C    -0.04403 -0.09056   1.085  2.959  0.000
     5C    -0.04040 -0.08666   1.075  2.965  0.000
     6C     0.05735  0.12076   1.097  2.845  0.000
     7N    -0.21449 -0.47286   1.311  3.903  0.000
     8C     0.01302  0.01744   1.064  2.923  0.000
     9C     0.00464 -0.00038   1.058  2.938  0.000
    10C     0.00184 -0.01299   1.089  2.909  0.000
    11C    -0.05594 -0.19993   1.067  2.989  0.000
    12C    -0.03335 -0.08514   1.062  2.971  0.000
    13C    -0.00600 -0.02368   1.097  2.909  0.000
    14C    -0.06220 -0.20690   1.076  2.987  0.000
    15C    -0.03322 -0.08499   1.062  2.971  0.000
    16C     0.00202 -0.01282   1.089  2.909  0.000
    17C    -0.05577 -0.19976   1.066  2.989  0.000
    18C     0.05702  0.11953   1.095  2.848  0.000
    19C    -0.03851 -0.08479   1.074  2.964  0.000
    20C    -0.04031 -0.08594   1.084  2.956  0.000
    21N    -0.21251 -0.46993   1.312  3.900  0.000
    22C     0.05929  0.12460   1.117  2.824  0.000
    23C     0.01487  0.02180   1.079  2.906  0.000
    24C     0.05916  0.12447   1.116  2.824  0.000
    25C    -0.04040 -0.08602   1.084  2.957  0.000
    26C    -0.03859 -0.08487   1.074  2.964  0.000
    27C     0.05697  0.11949   1.095  2.848  0.000
    28N    -0.21241 -0.47022   1.312  3.900  0.000
    29C     0.01295  0.01737   1.064  2.923  0.000
    30C     0.00465 -0.00037   1.058  2.938  0.000
    31C     0.00212 -0.01272   1.089  2.909  0.000
    32C    -0.05576 -0.19975   1.066  2.989  0.000
    33C    -0.03320 -0.08495   1.062  2.971  0.000
    34C    -0.00600 -0.02368   1.097  2.909  0.000
    35C    -0.06221 -0.20691   1.076  2.987  0.000
    36C    -0.03335 -0.08516   1.062  2.971  0.000
    37C     0.00174 -0.01308   1.089  2.909  0.000
    38C    -0.05594 -0.19992   1.067  2.989  0.000
    39C     0.05740  0.12079   1.097  2.845  0.000
    40C    -0.04035 -0.08661   1.075  2.965  0.000
    41C    -0.04396 -0.09050   1.086  2.958  0.000
    42C     0.05254  0.11300   1.111  2.837  0.000
    43N    -0.21464 -0.47263   1.311  3.903  0.000
    44H     0.01752  0.07647   0.982  0.000  0.000
    45H     0.01864  0.07525   0.981  0.000  0.000
    46H     0.01131  0.06991   0.989  0.000  0.000
    47H     0.01200  0.06583   0.988  0.000  0.000
    48H     0.01271  0.06649   0.987  0.000  0.000
    49H     0.01101  0.06369   0.989  0.000  0.000
    50H     0.02662  0.08412   0.973  0.000  0.000
    51H     0.01738  0.06975   0.983  0.000  0.000
    52H     0.02227  0.07416   0.978  0.000  0.000
    53H     0.01683  0.06926   0.983  0.000  0.000
    54H     0.02697  0.08448   0.973  0.000  0.000
    55H     0.01406  0.06788   0.986  0.000  0.000
    56H     0.01139  0.06408   0.989  0.000  0.000
    57H     0.01097  0.06475   0.989  0.000  0.000
    58H     0.01368  0.07239   0.986  0.000  0.000
    59H     0.01817  0.07635   0.982  0.000  0.000
    60H     0.01807  0.07620   0.982  0.000  0.000
    61H     0.01348  0.07215   0.987  0.000  0.000
    62H     0.01088  0.06466   0.989  0.000  0.000
    63H     0.01141  0.06410   0.989  0.000  0.000
    64H     0.01408  0.06791   0.986  0.000  0.000
    65H     0.02722  0.08474   0.973  0.000  0.000
    66H     0.01966  0.07188   0.980  0.000  0.000
    67H     0.01662  0.06913   0.983  0.000  0.000
    68H     0.02007  0.07202   0.980  0.000  0.000
    69H     0.02636  0.08386   0.974  0.000  0.000
    70H     0.01225  0.06608   0.988  0.000  0.000
    71H     0.01263  0.06640   0.987  0.000  0.000
    72H     0.01099  0.06367   0.989  0.000  0.000
    73H     0.01142  0.07006   0.989  0.000  0.000
    74H     0.01865  0.07526   0.981  0.000  0.000
    75Co    0.24621  0.64133   0.338  0.980  7.436
    76C    -0.02486 -0.06619   1.085  2.940  0.000
    77C     0.05251  0.11302   1.111  2.837  0.000
    78C    -0.04403 -0.09056   1.085  2.959  0.000
    79C    -0.04040 -0.08666   1.075  2.965  0.000
    80C     0.05735  0.12075   1.097  2.845  0.000
    81N    -0.21449 -0.47286   1.312  3.903  0.000
    82C     0.01302  0.01744   1.064  2.923  0.000
    83C     0.00465 -0.00037   1.058  2.938  0.000
    84C     0.00184 -0.01299   1.089  2.909  0.000
    85C    -0.05594 -0.19993   1.067  2.989  0.000
    86C    -0.03335 -0.08514   1.062  2.971  0.000
    87C    -0.00600 -0.02368   1.097  2.909  0.000
    88C    -0.06220 -0.20690   1.076  2.987  0.000
    89C    -0.03322 -0.08499   1.062  2.971  0.000
    90C     0.00202 -0.01282   1.089  2.909  0.000
    91C    -0.05577 -0.19976   1.066  2.989  0.000
    92C     0.05702  0.11953   1.095  2.848  0.000
    93C    -0.03851 -0.08479   1.074  2.964  0.000
    94C    -0.04031 -0.08594   1.084  2.956  0.000
    95N    -0.21251 -0.46991   1.312  3.900  0.000
    96C     0.05930  0.12461   1.117  2.824  0.000
    97C     0.01487  0.02180   1.079  2.906  0.000
    98C     0.05916  0.12447   1.116  2.824  0.000
    99C    -0.04040 -0.08602   1.084  2.957  0.000
   100C    -0.03859 -0.08487   1.074  2.964  0.000
   101C     0.05697  0.11949   1.095  2.848  0.000
   102N    -0.21240 -0.47021   1.312  3.900  0.000
   103C     0.01295  0.01737   1.064  2.923  0.000
   104C     0.00465 -0.00037   1.058  2.938  0.000
   105C     0.00212 -0.01272   1.089  2.909  0.000
   106C    -0.05577 -0.19975   1.066  2.989  0.000
   107C    -0.03320 -0.08495   1.062  2.971  0.000
   108C    -0.00600 -0.02368   1.097  2.909  0.000
   109C    -0.06221 -0.20691   1.076  2.987  0.000
   110C    -0.03335 -0.08516   1.062  2.971  0.000
   111C     0.00174 -0.01308   1.089  2.909  0.000
   112C    -0.05594 -0.19992   1.067  2.989  0.000
   113C     0.05740  0.12080   1.097  2.845  0.000
   114C    -0.04035 -0.08661   1.075  2.965  0.000
   115C    -0.04396 -0.09050   1.086  2.958  0.000
   116C     0.05254  0.11300   1.111  2.837  0.000
   117N    -0.21464 -0.47261   1.311  3.903  0.000
   118H     0.01752  0.07647   0.982  0.000  0.000
   119H     0.01864  0.07526   0.981  0.000  0.000
   120H     0.01131  0.06991   0.989  0.000  0.000
   121H     0.01200  0.06583   0.988  0.000  0.000
   122H     0.01271  0.06649   0.987  0.000  0.000
   123H     0.01101  0.06369   0.989  0.000  0.000
   124H     0.02662  0.08412   0.973  0.000  0.000
   125H     0.01737  0.06974   0.983  0.000  0.000
   126H     0.02228  0.07416   0.978  0.000  0.000
   127H     0.01683  0.06926   0.983  0.000  0.000
   128H     0.02697  0.08448   0.973  0.000  0.000
   129H     0.01406  0.06787   0.986  0.000  0.000
   130H     0.01139  0.06408   0.989  0.000  0.000
   131H     0.01098  0.06475   0.989  0.000  0.000
   132H     0.01368  0.07239   0.986  0.000  0.000
   133H     0.01817  0.07635   0.982  0.000  0.000
   134H     0.01807  0.07620   0.982  0.000  0.000
   135H     0.01349  0.07215   0.987  0.000  0.000
   136H     0.01088  0.06466   0.989  0.000  0.000
   137H     0.01141  0.06410   0.989  0.000  0.000
   138H     0.01408  0.06790   0.986  0.000  0.000
   139H     0.02722  0.08474   0.973  0.000  0.000
   140H     0.01966  0.07188   0.980  0.000  0.000
   141H     0.01662  0.06914   0.983  0.000  0.000
   142H     0.02007  0.07202   0.980  0.000  0.000
   143H     0.02636  0.08386   0.974  0.000  0.000
   144H     0.01225  0.06608   0.988  0.000  0.000
   145H     0.01263  0.06640   0.987  0.000  0.000
   146H     0.01099  0.06367   0.989  0.000  0.000
   147H     0.01143  0.07006   0.989  0.000  0.000
   148H     0.01865  0.07526   0.981  0.000  0.000
   149C    -0.02015 -0.02025   1.077  2.943  0.000
   150C    -0.02015 -0.02025   1.077  2.943  0.000
   151C    -0.02509 -0.02583   1.065  2.960  0.000
   152C    -0.01794 -0.01964   1.096  2.922  0.000
   153C    -0.02509 -0.02583   1.065  2.960  0.000
   154C    -0.01794 -0.01964   1.096  2.922  0.000

Wiberg/Mayer (AO) data.
largest (>0.10) Wiberg bond orders for each atom

 ---------------------------------------------------------------------------
     #   Z sym  total        # sym  WBO       # sym  WBO       # sym  WBO
 ---------------------------------------------------------------------------
     1  27 Co   3.819 --    43 N    0.717     7 N    0.716    21 N    0.712
                            28 N    0.712
     2   6 C    3.847 --    42 C    1.394     3 C    1.393    44 H    0.999
     3   6 C    3.959 --     2 C    1.393     7 N    1.246     4 C    1.199
     4   6 C    3.861 --     5 C    1.641     3 C    1.199    45 H    0.996
     5   6 C    3.830 --     4 C    1.641     6 C    1.206    46 H    1.002
     6   6 C    3.921 --     8 C    1.372     7 N    1.248     5 C    1.206
     7   7 N    2.969 --     6 C    1.248     3 C    1.246     1 Co   0.716
     8   6 C    3.795 --    18 C    1.383     6 C    1.372     9 C    1.029
     9   6 C    3.816 --    10 C    1.422    16 C    1.421     8 C    1.029
    10   6 C    3.895 --    12 C    1.435     9 C    1.422    11 C    1.019
    11   6 C    3.896 --    10 C    1.019    49 H    0.998    48 H    0.995
                            47 H    0.994
    12   6 C    3.835 --    10 C    1.435    13 C    1.433    50 H    0.995
    13   6 C    3.927 --    12 C    1.433    15 C    1.431    14 C    1.008
    14   6 C    3.921 --    13 C    1.008    53 H    1.000    51 H    0.999
                            52 H    0.989
    15   6 C    3.835 --    16 C    1.436    13 C    1.431    54 H    0.995
    16   6 C    3.895 --    15 C    1.436     9 C    1.421    17 C    1.019
    17   6 C    3.895 --    16 C    1.019    56 H    0.998    57 H    0.995
                            55 H    0.994
    18   6 C    3.912 --     8 C    1.383    21 N    1.236    19 C    1.209
    19   6 C    3.827 --    20 C    1.632    18 C    1.209    58 H    1.002
    20   6 C    3.853 --    19 C    1.632    22 C    1.218    59 H    1.001
    21   7 N    2.977 --    22 C    1.270    18 C    1.236     1 Co   0.712
    22   6 C    3.937 --    23 C    1.305    21 N    1.270    20 C    1.218
    23   6 C    3.874 --    22 C    1.305    24 C    1.304   152 C    1.212
    24   6 C    3.937 --    23 C    1.304    28 N    1.270    25 C    1.219
    25   6 C    3.854 --    26 C    1.631    24 C    1.219    60 H    1.000
    26   6 C    3.825 --    25 C    1.631    27 C    1.210    61 H    1.002
    27   6 C    3.912 --    29 C    1.382    28 N    1.236    26 C    1.210
    28   7 N    2.977 --    24 C    1.270    27 C    1.236     1 Co   0.712
    29   6 C    3.795 --    27 C    1.382    39 C    1.373    30 C    1.029
    30   6 C    3.816 --    37 C    1.425    31 C    1.418    29 C    1.029
    31   6 C    3.895 --    33 C    1.439    30 C    1.418    32 C    1.019
    32   6 C    3.895 --    31 C    1.019    63 H    0.998    62 H    0.995
                            64 H    0.994
    33   6 C    3.834 --    31 C    1.439    34 C    1.428    65 H    0.995
    34   6 C    3.927 --    36 C    1.436    33 C    1.428    35 C    1.008
    35   6 C    3.921 --    34 C    1.008    67 H    1.001    66 H    0.995
                            68 H    0.990
    36   6 C    3.835 --    34 C    1.436    37 C    1.431    69 H    0.994
    37   6 C    3.895 --    36 C    1.431    30 C    1.425    38 C    1.019
    38   6 C    3.895 --    37 C    1.019    72 H    0.998    71 H    0.995
                            70 H    0.994
    39   6 C    3.921 --    29 C    1.373    43 N    1.248    40 C    1.206
    40   6 C    3.830 --    41 C    1.642    39 C    1.206    73 H    1.002
    41   6 C    3.862 --    40 C    1.642    42 C    1.198    74 H    0.996
    42   6 C    3.959 --     2 C    1.394    43 N    1.245    41 C    1.198
    43   7 N    2.969 --    39 C    1.248    42 C    1.245     1 Co   0.717
    44   1 H    1.038 --     2 C    0.999
    45   1 H    1.029 --     4 C    0.996
    46   1 H    1.049 --     5 C    1.002
    47   1 H    1.059 --    11 C    0.994
    48   1 H    1.061 --    11 C    0.995
    49   1 H    1.045 --    11 C    0.998
    50   1 H    1.018 --    12 C    0.995
    51   1 H    1.036 --    14 C    0.999
    52   1 H    1.033 --    14 C    0.989
    53   1 H    1.036 --    14 C    1.000
    54   1 H    1.016 --    15 C    0.995
    55   1 H    1.059 --    17 C    0.994
    56   1 H    1.045 --    17 C    0.998
    57   1 H    1.061 --    17 C    0.995
    58   1 H    1.048 --    19 C    1.002
    59   1 H    1.038 --    20 C    1.001
    60   1 H    1.038 --    25 C    1.000
    61   1 H    1.048 --    26 C    1.002
    62   1 H    1.062 --    32 C    0.995
    63   1 H    1.046 --    32 C    0.998
    64   1 H    1.059 --    32 C    0.994
    65   1 H    1.016 --    33 C    0.995
    66   1 H    1.035 --    35 C    0.995
    67   1 H    1.035 --    35 C    1.001
    68   1 H    1.035 --    35 C    0.990
    69   1 H    1.017 --    36 C    0.994
    70   1 H    1.059 --    38 C    0.994
    71   1 H    1.061 --    38 C    0.995
    72   1 H    1.046 --    38 C    0.998
    73   1 H    1.049 --    40 C    1.002
    74   1 H    1.029 --    41 C    0.996
    75  27 Co   3.819 --   117 N    0.717    81 N    0.716    95 N    0.712
                           102 N    0.712
    76   6 C    3.847 --   116 C    1.394    77 C    1.393   118 H    0.999
    77   6 C    3.959 --    76 C    1.393    81 N    1.246    78 C    1.199
    78   6 C    3.861 --    79 C    1.641    77 C    1.199   119 H    0.996
    79   6 C    3.830 --    78 C    1.641    80 C    1.206   120 H    1.002
    80   6 C    3.921 --    82 C    1.372    81 N    1.248    79 C    1.206
    81   7 N    2.969 --    80 C    1.248    77 C    1.246    75 Co   0.716
    82   6 C    3.795 --    92 C    1.383    80 C    1.372    83 C    1.029
    83   6 C    3.816 --    84 C    1.422    90 C    1.421    82 C    1.029
    84   6 C    3.895 --    86 C    1.435    83 C    1.422    85 C    1.019
    85   6 C    3.896 --    84 C    1.019   123 H    0.998   122 H    0.995
                           121 H    0.994
    86   6 C    3.835 --    84 C    1.435    87 C    1.433   124 H    0.995
    87   6 C    3.927 --    86 C    1.433    89 C    1.431    88 C    1.008
    88   6 C    3.921 --    87 C    1.008   127 H    1.000   125 H    0.999
                           126 H    0.989
    89   6 C    3.835 --    90 C    1.436    87 C    1.431   128 H    0.995
    90   6 C    3.895 --    89 C    1.436    83 C    1.421    91 C    1.019
    91   6 C    3.895 --    90 C    1.019   130 H    0.998   131 H    0.995
                           129 H    0.994
    92   6 C    3.912 --    82 C    1.383    95 N    1.236    93 C    1.209
    93   6 C    3.827 --    94 C    1.632    92 C    1.209   132 H    1.002
    94   6 C    3.853 --    93 C    1.632    96 C    1.218   133 H    1.001
    95   7 N    2.977 --    96 C    1.270    92 C    1.236    75 Co   0.712
    96   6 C    3.937 --    97 C    1.305    95 N    1.270    94 C    1.218
    97   6 C    3.874 --    96 C    1.305    98 C    1.304   154 C    1.212
    98   6 C    3.937 --    97 C    1.304   102 N    1.270    99 C    1.219
    99   6 C    3.854 --   100 C    1.631    98 C    1.219   134 H    1.000
   100   6 C    3.825 --    99 C    1.631   101 C    1.210   135 H    1.002
   101   6 C    3.912 --   103 C    1.382   102 N    1.236   100 C    1.210
   102   7 N    2.977 --    98 C    1.270   101 C    1.236    75 Co   0.712
   103   6 C    3.795 --   101 C    1.382   113 C    1.373   104 C    1.029
   104   6 C    3.816 --   111 C    1.425   105 C    1.418   103 C    1.029
   105   6 C    3.895 --   107 C    1.439   104 C    1.418   106 C    1.019
   106   6 C    3.895 --   105 C    1.019   137 H    0.998   136 H    0.995
                           138 H    0.994
   107   6 C    3.834 --   105 C    1.439   108 C    1.428   139 H    0.995
   108   6 C    3.927 --   110 C    1.436   107 C    1.428   109 C    1.008
   109   6 C    3.921 --   108 C    1.008   141 H    1.001   140 H    0.995
                           142 H    0.990
   110   6 C    3.835 --   108 C    1.436   111 C    1.431   143 H    0.994
   111   6 C    3.895 --   110 C    1.431   104 C    1.425   112 C    1.019
   112   6 C    3.895 --   111 C    1.019   146 H    0.998   145 H    0.995
                           144 H    0.994
   113   6 C    3.921 --   103 C    1.373   117 N    1.248   114 C    1.206
   114   6 C    3.830 --   115 C    1.642   113 C    1.206   147 H    1.002
   115   6 C    3.862 --   114 C    1.642   116 C    1.198   148 H    0.996
   116   6 C    3.959 --    76 C    1.394   117 N    1.245   115 C    1.198
   117   7 N    2.969 --   113 C    1.248   116 C    1.245    75 Co   0.717
   118   1 H    1.038 --    76 C    0.999
   119   1 H    1.029 --    78 C    0.996
   120   1 H    1.049 --    79 C    1.002
   121   1 H    1.059 --    85 C    0.994
   122   1 H    1.061 --    85 C    0.995
   123   1 H    1.045 --    85 C    0.998
   124   1 H    1.018 --    86 C    0.995
   125   1 H    1.036 --    88 C    0.999
   126   1 H    1.033 --    88 C    0.989
   127   1 H    1.036 --    88 C    1.000
   128   1 H    1.016 --    89 C    0.995
   129   1 H    1.059 --    91 C    0.994
   130   1 H    1.045 --    91 C    0.998
   131   1 H    1.061 --    91 C    0.995
   132   1 H    1.048 --    93 C    1.002
   133   1 H    1.038 --    94 C    1.001
   134   1 H    1.038 --    99 C    1.000
   135   1 H    1.048 --   100 C    1.002
   136   1 H    1.062 --   106 C    0.995
   137   1 H    1.046 --   106 C    0.998
   138   1 H    1.059 --   106 C    0.994
   139   1 H    1.016 --   107 C    0.995
   140   1 H    1.035 --   109 C    0.995
   141   1 H    1.035 --   109 C    1.001
   142   1 H    1.035 --   109 C    0.990
   143   1 H    1.017 --   110 C    0.994
   144   1 H    1.059 --   112 C    0.994
   145   1 H    1.061 --   112 C    0.995
   146   1 H    1.046 --   112 C    0.998
   147   1 H    1.049 --   114 C    1.002
   148   1 H    1.029 --   115 C    0.996
   149   6 C    3.845 --   150 C    2.388   153 C    1.350   152 C    0.177
   150   6 C    3.845 --   149 C    2.388   151 C    1.350   154 C    0.177
   151   6 C    3.831 --   152 C    2.489   150 C    1.350
   152   6 C    3.773 --   151 C    2.489    23 C    1.212   149 C    0.177
   153   6 C    3.831 --   154 C    2.489   149 C    1.350
   154   6 C    3.773 --   153 C    2.489    97 C    1.212   150 C    0.177
 ---------------------------------------------------------------------------

Topologies differ in total number of bonds
Writing topology from bond orders to xtbtopo.mol

 dipole moment from electron density (au)
     X       Y       Z   
 -42.5363  -0.0133   0.0344  total (Debye):  108.116


           -------------------------------------------------
          | TOTAL ENERGY             -270.163198454951 Eh   |
          | GRADIENT NORM               0.070666024694 Eh/α |
          | HOMO-LUMO GAP               0.599261992578 eV   |
           -------------------------------------------------
########################################################################
[WARNING] Runtime exception occurred
-1- restart_readRestart: Dimension missmatch in restart file.
########################################################################

------------------------------------------------------------------------
 * finished run on 2022/07/30 at 03:27:35.219     
------------------------------------------------------------------------
 total:
 * wall-time:     0 d,  0 h,  0 min,  9.963 sec
 *  cpu-time:     0 d,  0 h,  0 min,  9.704 sec
 * ratio c/w:     0.974 speedup
 SCF:
 * wall-time:     0 d,  0 h,  0 min,  9.363 sec
 *  cpu-time:     0 d,  0 h,  0 min,  9.320 sec
 * ratio c/w:     0.995 speedup

