154
 energy: -239.160087332180 gnorm: 0.394658682283 xtb: 6.5.1 (b24c23e)
Co          14.37502200000000       -0.00631100000000       -0.00414200000000
C           11.00115400000000        0.12620800000000        0.03514100000000
C           11.66987000000000        1.17884700000000        0.51375300000000
C           11.02655300000000        2.36037700000000        1.07653700000000
C           11.97356700000000        3.21284000000000        1.42166200000000
C           13.27401100000000        2.61554400000000        1.09127700000000
N           13.08944400000000        1.32135200000000        0.51885100000000
C           14.46777000000000        3.21307700000000        1.27359300000000
C           14.51332500000000        4.58097200000000        1.85315400000000
C           14.42959100000000        5.71420900000000        1.00995400000000
C           14.29179600000000        5.56375900000000       -0.48307900000000
C           14.47253200000000        6.99948600000000        1.57149300000000
C           14.59212900000000        7.17214500000000        2.95536200000000
C           14.67802700000000        8.55208500000000        3.53883500000000
C           14.70088200000000        6.05053500000000        3.78550700000000
C           14.65407400000000        4.75443100000000        3.25000500000000
C           14.76543800000000        3.56821300000000        4.17250200000000
C           15.76085300000000        2.57362900000000        0.92026500000000
C           17.05299000000000        3.26432900000000        0.99245600000000
C           17.98818800000000        2.40534300000000        0.64443200000000
N           15.89824400000000        1.33833400000000        0.54486300000000
C           17.30043900000000        1.15357100000000        0.34856000000000
C           17.89543900000000       -0.00016000000000        0.00004400000000
C           17.13819200000000       -1.24212200000000       -0.28758800000000
C           17.69447900000000       -2.44098600000000       -0.41046200000000
C           16.64549700000000       -3.37005300000000       -0.77707300000000
C           15.51411600000000       -2.67970200000000       -0.85355500000000
N           15.73441800000000       -1.30128200000000       -0.54744500000000
C           14.21243200000000       -3.25932400000000       -1.27361400000000
C           14.20195400000000       -4.62142900000000       -1.87193200000000
C           14.44062300000000       -4.78912300000000       -3.25611800000000
C           14.70835000000000       -3.60405600000000       -4.14756900000000
C           14.43732800000000       -6.07904700000000       -3.80818300000000
C           14.19857800000000       -7.20014800000000       -3.00600700000000
C           14.17300400000000       -8.56617000000000       -3.62681800000000
C           13.94945700000000       -7.03254200000000       -1.63835000000000
C           13.96015600000000       -5.75449400000000       -1.05904600000000
C           13.69907800000000       -5.61081600000000        0.41830900000000
C           13.05075800000000       -2.59658400000000       -1.13011400000000
C           11.73075900000000       -3.09216100000000       -1.51291600000000
C           10.86962000000000       -2.16504500000000       -1.14180700000000
C           11.63177800000000       -1.07655700000000       -0.53131100000000
N           12.90505700000000       -1.31758800000000       -0.51824200000000
H            9.91797900000000        0.15156500000000        0.05746900000000
H            9.96346600000000        2.52635700000000        1.19444900000000
H           11.79572400000000        4.18415000000000        1.86493800000000
H           13.34017400000000        5.04436800000000       -0.72123400000000
H           15.14182700000000        4.97180000000000       -0.88263800000000
H           14.28726900000000        6.54809200000000       -0.99750100000000
H           14.41332000000000        7.87147000000000        0.93062800000000
H           14.25416700000000        8.57079200000000        4.56559500000000
H           15.74084800000000        8.87000700000000        3.57952800000000
H           14.10612500000000        9.27666000000000        2.92068400000000
H           14.82024500000000        6.19005800000000        4.85361800000000
H           15.68043300000000        2.98884100000000        3.92830600000000
H           14.82429700000000        3.87855700000000        5.23706700000000
H           13.87614200000000        2.91410100000000        4.05455300000000
H           17.22864100000000        4.29294000000000        1.27897500000000
H           19.04836900000000        2.61711300000000        0.60179600000000
H           18.74008800000000       -2.68814100000000       -0.28663700000000
H           16.77283900000000       -4.42620800000000       -0.97630400000000
H           13.87325100000000       -2.87611000000000       -4.06970100000000
H           14.80417500000000       -3.90352900000000       -5.21272900000000
H           15.65391300000000       -3.11073300000000       -3.83937200000000
H           14.61908700000000       -6.21549000000000       -4.86808400000000
H           15.07395300000000       -8.71020800000000       -4.26121000000000
H           14.16388400000000       -9.36433200000000       -2.85347600000000
H           13.26440800000000       -8.66911200000000       -4.25748000000000
H           13.75059900000000       -7.90142000000000       -1.02210300000000
H           12.74457600000000       -5.06783500000000        0.57875000000000
H           14.52664300000000       -5.04520200000000        0.89552400000000
H           13.62633300000000       -6.59818400000000        0.92175900000000
H           11.48291900000000       -4.02995000000000       -1.99306700000000
H            9.79639800000000       -2.21586800000000       -1.27001300000000
Co          30.64437000000000        0.00717600000000        0.00128100000000
C           34.01823800000000       -0.11564400000000       -0.06211900000000
C           33.34952200000000       -1.20656700000000       -0.44553200000000
C           33.99283900000000       -2.44877100000000       -0.85744100000000
C           33.04582500000000       -3.30283300000000       -1.19858800000000
C           31.74538100000000       -2.64310000000000       -1.02346500000000
N           31.92994699999999       -1.31292600000000       -0.54051300000000
C           30.55162199999999       -3.20049300000000       -1.30559600000000
C           30.50606700000000       -4.58878800000000       -1.83442600000000
C           30.58980100000000       -4.82274300000000       -3.22743600000000
C           30.72759599999999       -3.68051300000000       -4.20062400000000
C           30.54686000000000       -6.13894700000000       -3.71207100000000
C           30.42726300000000       -7.22162500000000       -2.83303100000000
C           30.34136500000000       -8.62132100000000       -3.36737700000000
C           30.31850900000000       -6.98702200000000       -1.45749100000000
C           30.36531800000000       -5.68103200000000       -0.94657200000000
C           30.25395300000000       -5.46374700000000        0.54033800000000
C           29.25853900000000       -2.49445800000000       -1.11784500000000
C           27.96640200000000       -3.04283500000000       -1.54394300000000
C           27.03120400000000       -2.18205900000000       -1.20037200000000
N           29.12114800000000       -1.34318900000000       -0.53350000000000
C           27.71895200000000       -1.07396100000000       -0.54723200000000
C           27.12395300000000       -0.00016000000000        0.00004400000000
C           27.88120000000000        1.09515400000000        0.65233800000000
C           27.32491300000000        2.04530400000000        1.39368000000000
C           28.37389500000000        2.96951800000000        1.77235900000000
C           29.50527600000000        2.52432300000000        1.23922200000000
N           29.28497300000000        1.31775000000000        0.50578700000000
C           30.80696000000000        3.23338700000000        1.33740300000000
C           30.81743800000000        4.63049100000000        1.84868900000000
C           30.57876800000000        5.70980700000000        0.96598100000000
C           30.31104100000000        5.47185800000000       -0.49772900000000
C           30.58206400000000        7.02280400000000        1.46067000000000
C           30.82081400000000        7.27640400000000        2.81567600000000
C           30.84638800000000        8.69190700000000        3.31344400000000
C           31.06993500000000        6.20859600000000        3.68651700000000
C           31.05923600000000        4.88530900000000        3.21970500000000
C           31.32031400000000        3.75882000000000        4.18626800000000
C           31.96863400000000        2.65581600000000        0.98211600000000
C           33.28863300000000        3.27844000000000        1.04899400000000
C           34.14977200000000        2.35252000000000        0.67491200000000
C           33.38761300000000        1.14442200000000        0.36184600000000
N           32.11433500000000        1.30929800000000        0.53814900000000
H           35.10141200000000       -0.14939900000000       -0.06356200000000
H           35.05592600000000       -2.65017300000000       -0.88727000000000
H           33.22366800000000       -4.31060700000000       -1.55119200000000
H           31.67921800000000       -3.14084800000000       -4.01288400000000
H           29.87756500000000       -2.97674000000000       -4.07910900000000
H           30.73212200000000       -4.03464300000000       -5.25330300000000
H           30.60607200000000       -6.32446800000000       -4.77820700000000
H           30.76522500000000       -9.34567400000000       -2.63943500000000
H           29.27854400000000       -8.87890100000000       -3.55811900000000
H           30.91326700000000       -8.71620000000000       -4.31506800000000
H           30.19914700000000       -7.82718200000000       -0.78335500000000
H           29.33895900000000       -4.87661800000000        0.76524500000000
H           30.19509499999999       -6.42471400000000        1.09365100000000
H           31.14324999999999       -4.91009100000000        0.90808800000000
H           27.79075100000000       -3.98342900000000       -2.04933100000000
H           25.97102300000000       -2.30535000000000       -1.37775200000000
H           26.27930400000000        2.13791900000000        1.65414300000000
H           28.24655200000000        3.86955500000000        2.35980100000000
H           31.14614100000000        4.89267300000000       -0.94551800000000
H           30.21521700000000        6.42539200000000       -1.05899800000000
H           29.36547900000000        4.90251000000000       -0.61688000000000
H           30.40030500000000        7.85505800000000        0.79032700000000
H           29.94543900000000        9.23505000000000        2.95539900000000
H           30.85550800000000        8.73244200000000        4.42406500000000
H           31.75498400000000        9.20281300000000        2.92963800000000
H           31.26879300000000        6.40891900000000        4.73273800000000
H           32.27481600000000        3.25593600000000        3.92611900000000
H           30.49274900000000        3.02029300000000        4.13902800000000
H           31.39305900000000        4.12273600000000        5.23313100000000
H           33.53647300000000        4.28755500000000        1.35178300000000
H           35.22299400000000        2.47795300000000        0.61758800000000
C           23.11361600000000        0.00115100000000        0.00847600000000
C           21.90467700000000       -0.01230400000000        0.00002900000000
C           20.48314800000000       -0.00348400000000       -0.01195400000000
C           19.27147799999999        0.00395400000000       -0.00109100000000
C           24.53022000000000       -0.00552400000000        0.00901000000000
C           25.75091600000000        0.00395400000000       -0.00109100000000
154
 energy: -239.242501591396 gnorm: 0.223270826313 xtb: 6.5.1 (b24c23e)
Co          14.37967066290709        0.00464048745766       -0.00211266527277
C           11.00249199166717        0.10631055147952        0.02511696908368
C           11.68074344203692        1.17274260885578        0.51142915531482
C           11.03353412397907        2.34745940441931        1.07083075789356
C           11.99328349031815        3.20948430061516        1.41953922002239
C           13.28073518618651        2.60414251629159        1.08784415464650
N           13.07877539951878        1.32691547458558        0.52689132939737
C           14.48696065370725        3.21386406927863        1.27267537175379
C           14.52321046547654        4.58774522665879        1.85448657715444
C           14.43122801914067        5.71500212929404        1.01671304904402
C           14.29285414219823        5.56085639472341       -0.47794044607715
C           14.47212879385715        6.99244613687436        1.57618623744595
C           14.59734893356222        7.16816842867957        2.95303657227581
C           14.67516865961064        8.55142102536245        3.53880517120828
C           14.69868350085446        6.04888867538686        3.77717969929042
C           14.65618627183947        4.75988164095864        3.24501151305706
C           14.76477520474004        3.56997671952340        4.16649654936148
C           15.74459161495972        2.59227272033057        0.92715405691253
C           17.02757105364860        3.27802410749769        1.00195419485681
C           17.97197638480110        2.39585318138996        0.64314968997742
N           15.89304233545676        1.33988981483225        0.52639518365643
C           17.28145346406747        1.15575611473919        0.34656514490886
C           17.87982451348466       -0.01947292338894       -0.00170753782742
C           17.11849320069867       -1.23091214286922       -0.29203198496550
C           17.69454608902976       -2.46393318358449       -0.42143386852510
C           16.66851495117164       -3.37207398426570       -0.78041959445943
C           15.50188027705827       -2.66030191913138       -0.85606031754665
N           15.72462842294849       -1.30315420438485       -0.52254714842853
C           14.23389067763365       -3.24717604271526       -1.26989109552135
C           14.21867318431145       -4.62078189164080       -1.86836272969462
C           14.44448868775185       -4.79179455848604       -3.24856604667557
C           14.70733348818347       -3.60497015491655       -4.14166622273251
C           14.43525426993794       -6.07521481945200       -3.79777219549953
C           14.19533328416011       -7.19491175418932       -3.00294347781662
C           14.17449416397641       -8.56479105358927       -3.62532105591667
C           13.95160083080031       -7.02241479920451       -1.64210388176621
C           13.96372787671458       -5.75049791254929       -1.06496480978665
C           13.70140753077642       -5.60697155777289        0.41386863061519
C           13.05864097034068       -2.58600737537148       -1.12771446354153
C           11.74518378623630       -3.08344000656112       -1.50630264196161
C           10.86031671750530       -2.14744802144918       -1.13121070033314
C           11.61569337663007       -1.06357018966343       -0.52606524511469
N           12.91373948741643       -1.31027838347562       -0.52937554964343
H            9.91927782130720        0.13810660213180        0.04972150516773
H            9.96901036338868        2.50606528483487        1.18536542094127
H           11.82420064744639        4.18175253595384        1.86310091379943
H           13.35416083118025        5.04504127172266       -0.72133312651953
H           15.12876575270474        4.97309430218579       -0.88034309662695
H           14.28720404748767        6.53517456536855       -0.98490263779709
H           14.41163486997494        7.86466623513549        0.93248239168519
H           14.26268860256259        8.57173458565518        4.55596487513194
H           15.72549206457770        8.87192173900783        3.58178854408421
H           14.11598721947934        9.27080031971907        2.92651128000663
H           14.81707175989448        6.18636715436381        4.84767811216239
H           15.66691869359211        2.98974227411189        3.92990044535170
H           14.82357164798243        3.87863982898872        5.21888476048740
H           13.88958912136260        2.91627219465386        4.05279774689832
H           17.20492740375995        4.30310901981082        1.28599482779654
H           19.03581583867710        2.59271253975351        0.59569379763980
H           18.73912347913666       -2.70018490988029       -0.28950266968727
H           16.78564477119370       -4.42701521111754       -0.97428501935337
H           13.88641042462121       -2.87920306987488       -4.06695678602910
H           14.80217652562827       -3.90400036156576       -5.19432667324235
H           15.64072234045630       -3.10983599596014       -3.84199562984214
H           14.61808039383675       -6.21021447715141       -4.86004686773326
H           15.06054925461236       -8.71100174911310       -4.25787805847370
H           14.16203812102982       -9.35412223657845       -2.86243570189476
H           13.27835134816773       -8.67290952510224       -4.25229206864053
H           13.75304788869876       -7.89260934071138       -1.02338131737770
H           12.75851955966086       -5.06883962414175        0.58041450677067
H           14.51435268871442       -5.04545548011629        0.89260218310807
H           13.62722445506488       -6.58501776561491        0.90846059290981
H           11.50921783577123       -4.02350721021406       -1.98823723204386
H            9.79007117264626       -2.19776255689985       -1.26106276504101
Co          30.63962516073190       -0.00222903360532       -0.00487181643355
C           34.01689294863309       -0.09435425914799       -0.05558058455301
C           33.33863501564962       -1.20055661852892       -0.44298622886012
C           33.98582676496638       -2.43550432159638       -0.85261914750722
C           33.02604883984387       -3.29893189950045       -1.19779623716263
C           31.73857548785554       -2.63246115476179       -1.01803736742157
N           31.94059422461439       -1.32250031903959       -0.53854968726128
C           30.53224779994203       -3.20028798333182       -1.30675709531813
C           30.49611445847436       -4.59452143919781       -1.83813076664583
C           30.58815167990232       -4.82796738336254       -3.22308823071547
C           30.72653544147698       -3.68196934067840       -4.19490510392460
C           30.54726515929683       -6.13709745321209       -3.70379671487744
C           30.42204308130114       -7.21713387705678       -2.83195168495509
C           30.34422401077981       -8.62081370518796       -3.36693592450696
C           30.32071120939065       -6.98004582980045       -1.46235795555240
C           30.36319413582142       -5.68147412120839       -0.95394750485253
C           30.25461381960027       -5.46085600012381        0.53478673794481
C           29.27444440834172       -2.51252255589896       -1.12573766181876
C           27.99162420641662       -3.05929086509850       -1.54660294398958
C           27.04692178404935       -2.17448539968977       -1.19483101501214
N           29.12541007983367       -1.33131309228212       -0.54783588577656
C           27.73659957505168       -1.07436279986408       -0.54999666421328
C           27.13814087991948        0.01479023426886        0.01325677391338
C           27.90121057018893        1.08996092753231        0.64153955864776
C           27.32509775484226        2.06937334328401        1.40166233113560
C           28.35100901839742        2.97330534308482        1.77132133640338
C           29.51761826638462        2.51207572264263        1.22395675196739
N           29.29492761099566        1.30186525068322        0.52498936278132
C           30.78555382542402        3.22206584029052        1.33167583807119
C           30.80073853213214        4.62756377247959        1.85081547507914
C           30.57490620542707        5.70651067130611        0.97327916008499
C           30.31205859560677        5.46843134984047       -0.49283683257388
C           30.58413692734403        7.01283371762867        1.46552961090080
C           30.82405866270951        7.27050595610917        2.81426212841665
C           30.84489778890753        8.68987649969955        3.31356980281759
C           31.06779061900684        6.20388911162491        3.67679818458884
C           31.05566817924342        4.88652641062988        3.21266944676317
C           31.31798506579497        3.75912060623967        4.18040225430259
C           31.96077545220838        2.64651985672608        0.97651893824539
C           33.27422035983687        3.26756541786593        1.04772494208997
C           34.15907868929402        2.33247767670622        0.67037195653801
C           33.40368675214520        1.13141647996840        0.35663528885492
N           32.10563706205192        1.31171807348011        0.52503331505670
H           35.10010816816268       -0.13433040495602       -0.05983473116602
H           35.05035569330360       -2.62925094234605       -0.87978137014925
H           33.19515296949875       -4.30759569825329       -1.55085661989057
H           31.66523055268245       -3.14126177835473       -4.01342078525091
H           29.89062349703099       -2.97925744504469       -4.07835189083319
H           30.73218751104858       -4.03404605053995       -5.23526555132493
H           30.60775938273545       -6.32082968143609       -4.77214690667718
H           30.75670313165688       -9.33968316983221       -2.64703633134684
H           29.29390137953192       -8.88184447378628       -3.55781228084590
H           30.90340419083344       -8.71600294877245       -4.30680411186803
H           30.20232371189590       -7.82038951049862       -0.78508620404367
H           29.35247000852345       -4.87837027903245        0.76577628076910
H           30.19582143023242       -6.41218459417422        1.08046965902572
H           31.12980201947746       -4.91043947901892        0.90532010206059
H           27.81447996909556       -3.99565251723253       -2.05133549114789
H           25.98320309219883       -2.28372473652419       -1.36538305753851
H           26.28045656595959        2.14853804896677        1.66038670395534
H           28.23379096593730        3.86874363336906        2.36179483641388
H           31.13298171773530        4.89300588444564       -0.94139668559347
H           30.21721491040225        6.41299155714278       -1.04539325065220
H           29.37867026604094        4.90367929337045       -0.61939325041998
H           30.40131080436631        7.84568862903886        0.79247394071709
H           29.95884266093532        9.23331612933841        2.95835280238773
H           30.85735395576733        8.73127798441600        4.41053106920020
H           31.74104065981883        9.20196174938498        2.93601078086771
H           31.26634358393414        6.40344740892752        4.72571713524964
H           32.26087292697780        3.25550873292042        3.92801602867272
H           30.50503955933454        3.02249962469319        4.13709433371300
H           31.39216724721915        4.12244213880225        5.21441999301882
H           33.51018183468056        4.27955932456117        1.35080645448692
H           35.22932379386073        2.45868374904582        0.61150910516824
C           23.12413265569571        0.00233048207291        0.00696499550376
C           21.89650871274219       -0.01407932813579       -0.00174542119857
C           20.50998040248089       -0.01490705633899       -0.01572848214983
C           19.28467582771546       -0.02234422729011       -0.00485674305480
C           24.50883214846552        0.00244823003166        0.00734041319039
C           25.73438145626888        0.03123212119376        0.01873058767072
154
 energy: -239.286731667368 gnorm: 0.069248812805 xtb: 6.5.1 (b24c23e)
Co          14.39280601685255        0.01319813846155       -0.00224910315754
C           11.01101924670459        0.08672204144921        0.01484214270616
C           11.69838791010555        1.16988092680122        0.51366307771286
C           11.04502547318971        2.33318838657696        1.06477422306521
C           12.01573319105037        3.20223281661768        1.41644898468855
C           13.28406559445518        2.58690725488024        1.08464095033791
N           13.06744257930329        1.33538016894929        0.53546764142565
C           14.50913975122172        3.20820956523692        1.26806186912475
C           14.52999979066616        4.58932856645510        1.85323046989662
C           14.43341466046419        5.71289033564387        1.02072241230142
C           14.29377496667650        5.55682710327207       -0.47492884737047
C           14.47218523199918        6.98563691305922        1.57895798521064
C           14.60119208396233        7.16520215660888        2.95119866596973
C           14.67381664522126        8.55149911093014        3.53894796793238
C           14.69735321899223        6.04589264051083        3.76978850872810
C           14.65858378226514        4.76137302452645        3.23898002498922
C           14.76480750293835        3.56949792747011        4.16058445512587
C           15.72551665101484        2.60878094107151        0.93161271940144
C           16.99944753260305        3.27949681277979        1.01072628793303
C           17.94721674879933        2.37970117280125        0.63992066467085
N           15.88992168423735        1.33103004505124        0.49979591256485
C           17.25686275044134        1.15671920838105        0.33802007913890
C           17.86694124731276       -0.04775278484195       -0.00285256568373
C           17.10121710056519       -1.21836845901283       -0.29001677144216
C           17.69078484330004       -2.49022838064288       -0.43989404650031
C           16.69940348576723       -3.36547015990422       -0.78844693362675
C           15.49011999060404       -2.63815711270839       -0.85289039322948
N           15.72822725127873       -1.31112862550329       -0.49850922203291
C           14.26697809926481       -3.22712007062535       -1.25985276691809
C           14.23869111886260       -4.61365121653968       -1.85973571657721
C           14.45074449430139       -4.78938983505664       -3.23806735037216
C           14.70857875991394       -3.60296195417229       -4.13523861512566
C           14.43401350860072       -6.06796993210099       -3.78717220052429
C           14.19329805150392       -7.18917467000045       -2.99978285201605
C           14.17507261945772       -8.56274044482387       -3.62387897617010
C           13.95365658640696       -7.01029845613271       -1.64364083598479
C           13.96996850868228       -5.74199310669114       -1.06738675473221
C           13.70429942269179       -5.60110551516548        0.41215915458944
C           13.06837760804585       -2.56241771315649       -1.12555740259509
C           11.76740846563664       -3.06611624750273       -1.49593172116695
C           10.86188105290917       -2.12930596033349       -1.11714369887761
C           11.60163439161303       -1.04622714919766       -0.52059256236733
N           12.93134071167477       -1.29942410229689       -0.54410623655628
H            9.92681596870709        0.13046434675465        0.04117536953925
H            9.97916479579581        2.48136020263323        1.17360214958414
H           11.85935318736525        4.17575191441487        1.85933350467466
H           13.36332033452890        5.04286230954620       -0.71805993682831
H           15.12064001939880        4.97087906561342       -0.87587342016247
H           14.28783132953025        6.52654797497335       -0.97161956238740
H           14.40854980579904        7.85735568584548        0.93271259033814
H           14.26837093828814        8.56890073322413        4.54905742858672
H           15.71605473563521        8.87307776426005        3.58317017475576
H           14.12238458342774        9.26416782192528        2.92824598707137
H           14.81243731027795        6.18075094179803        4.84235569777669
H           15.65814521176970        2.98992450163930        3.92674439477334
H           14.82310357612496        3.88253002245302        5.20272336178385
H           13.89786447678964        2.91867283258992        4.04697894956716
H           17.17789838890647        4.30343595742275        1.29352475340398
H           19.01414103288966        2.56051998457486        0.58876796578932
H           18.73651823888867       -2.70823000179597       -0.29573090508439
H           16.79564999753665       -4.42246579728887       -0.97643124789951
H           13.89476435956545       -2.88202029508318       -4.06032705818461
H           14.80046802904844       -3.90814039618523       -5.17741584588996
H           15.63309107219642       -3.10649274010544       -3.84059532421400
H           14.61557492869861       -6.20059477653916       -4.85155239282477
H           15.05174137907373       -8.70762746961981       -4.25452641383692
H           14.16051048423558       -9.34316713629466       -2.86534319371951
H           13.28717953781997       -8.67317001180246       -4.24840020692801
H           13.75417758953414       -7.88065767295143       -1.02250469274171
H           12.76852642419210       -5.06634656479763        0.57868540245804
H           14.50733028384991       -5.04157759540068        0.89013952761835
H           13.62922378999864       -6.57560860142020        0.89418957205522
H           11.54501340093312       -4.00966566660686       -1.97844589105494