115
 energy: -199.213060849448 gnorm: 5.470012152750 xtb: 6.5.1 (b24c23e)
Zn          15.38527200000000        0.02991000000000        0.03061100000000
C           12.01161500000000       -0.07972200000000       -0.07944200000000
C           12.68452100000000       -0.89450500000000       -0.89789300000000
C           12.05582000000000       -1.82492900000000       -1.83242100000000
C           13.01664300000000       -2.46623400000000       -2.47660300000000
C           14.29976500000000       -1.97252500000000       -1.98074900000000
N           14.10557900000000       -0.97696400000000       -0.98077100000000
C           15.48800300000000       -2.40339700000000       -2.41350900000000
C           16.78768800000000       -1.91197900000000       -1.91986300000000
C           18.06737000000000       -2.41017200000000       -2.41998700000000
C           19.02312000000000       -1.76893300000000       -1.77587600000000
N           16.94130600000000       -1.00304100000000       -1.00704300000000
C           18.35259400000000       -0.85319300000000       -0.85635300000000
C           18.96132400000000       -0.00678100000000       -0.00625300000000
C           18.21351000000000        0.89915000000000        0.90348500000000
C           18.78491500000000        1.74613400000000        1.75408400000000
C           17.72282400000000        2.44349300000000        2.45448300000000
C           16.57646600000000        1.97737100000000        1.98639100000000
N           16.78894000000000        0.98075300000000        0.98546700000000
C           15.26117200000000        2.44777800000000        2.45897300000000
C           14.09429800000000        1.99035700000000        1.99964100000000
C           12.78648200000000        2.43966100000000        2.45112500000000
C           11.90545500000000        1.74502500000000        1.75351000000000
C           12.65236300000000        0.85623500000000        0.86064000000000
N           13.93371200000000        0.99301500000000        0.99785900000000
H           10.92850400000000       -0.10224600000000       -0.10199400000000
H           10.99440300000000       -1.97464100000000       -1.98274800000000
H           12.86297800000000       -3.22220700000000       -3.23590600000000
H           15.50770100000000       -3.16788200000000       -3.18135000000000
H           18.21825000000000       -3.16630300000000       -3.17928200000000
H           20.08479300000000       -1.91571800000000       -1.92307500000000
H           19.84454600000000        1.89838600000000        1.90697900000000
H           17.84263200000000        3.20260200000000        3.21689700000000
H           15.24454100000000        3.21266700000000        3.22726200000000
H           12.56274300000000        3.18674000000000        3.20159300000000
H           10.82979700000000        1.82798100000000        1.83700800000000
Zn          43.89438700000000       -0.05872800000000       -0.00366700000000
C           47.26804499999999        0.09642400000000       -0.01132400000000
C           46.59513900000000        1.24987500000000       -0.06863900000000
C           47.22383900000000        2.56697600000000       -0.13402500000000
C           46.26301700000000        3.47483600000000       -0.17912900000000
C           44.97989499999999        2.77596600000000       -0.14445800000000
N           45.17408000000000        1.36664000000000       -0.07447400000000
C           43.79165600000000        3.38589800000000       -0.17472800000000
C           42.49197199999999        2.69020900000000       -0.14014900000000
C           41.21229000000000        3.39526800000000       -0.17496200000000
C           40.25653999999999        2.48750600000000       -0.12986600000000
N           42.33835400000000        1.40360900000000       -0.07636600000000
C           40.92706600000000        1.19136400000000       -0.06570200000000
C           40.31833499999999       -0.00678100000000       -0.00625300000000
C           41.06615000000000       -1.28908300000000        0.05727300000000
C           40.49474499999999       -2.48798600000000        0.11670500000000
C           41.55683600000000       -3.47513800000000        0.16568600000000
C           42.70319300000000       -2.81535800000000        0.13299300000000
N           42.49072000000000       -1.40461300000000        0.06302100000000
C           44.01848800000000       -3.48132900000000        0.16612500000000
C           45.18536199999999       -2.83387900000000        0.13405800000000
C           46.49317800000000       -3.47004300000000        0.16578000000000
C           47.37420500000000       -2.48678000000000        0.11702700000000
C           46.62729600000000       -1.22850700000000        0.05444800000000
N           45.34594700000000       -1.42202100000000        0.06393900000000
H           48.35115600000000        0.12826100000000       -0.01285400000000
H           48.28525700000000        2.77887700000000       -0.14451300000000
H           46.41668199999999        4.54498300000000       -0.23225200000000
H           43.77195900000000        4.46808600000000       -0.22844100000000
H           41.06141000000000        4.46552700000000       -0.22797400000000
H           39.19486700000000        2.69513600000000       -0.14001000000000
H           39.43511300000000       -2.70349400000000        0.12738400000000
H           41.43702700000000       -4.54969800000000        0.21900100000000
H           44.03511799999999       -4.56411800000000        0.21989700000000
H           46.71691700000000       -4.52766600000000        0.21835100000000
H           48.44986300000000       -2.60432900000000        0.12298700000000
C           22.51157900000000        0.00704700000000       -0.00341800000000
C           21.25930899999999       -0.01213400000000       -0.00776700000000
C           23.82524700000000        0.00628100000000       -0.00148600000000
C           25.32838100000000       -0.01213400000000       -0.00776700000000
C           35.27498700000000        0.00704700000000       -0.00341800000000
C           34.02271600000000       -0.01213400000000       -0.00776700000000
C           36.58865500000000        0.00628100000000       -0.00148600000000
C           38.09178799999999       -0.01213400000000       -0.00776700000000
Zn          29.60189900000000       -0.03749900000000       -0.03357500000000
C           26.16844700000000        0.01672300000000        0.01463900000000
C           26.83498000000000        0.89015600000000        0.79186900000000
C           26.21066700000000        1.88214700000000        1.67455800000000
C           27.16903900000000        2.56071400000000        2.27843600000000
C           28.45024800000000        2.04048500000000        1.81556900000000
N           28.25815700000000        0.98490700000000        0.87625400000000
C           29.63263300000000        2.50553700000000        2.22944400000000
C           30.94230800000000        2.00235000000000        1.78171100000000
C           32.20895100000000        2.54727700000000        2.26672000000000
C           33.18113100000000        1.88184500000000        1.67455300000000
N           31.11828500000000        1.04290800000000        0.92785700000000
C           32.53350000000000        0.90418700000000        0.80445500000000
C           33.16254900000000        0.01672300000000        0.01463900000000
C           32.43262600000000       -0.94881300000000       -0.84466700000000
C           33.01936900000000       -1.83961200000000       -1.63754000000000
C           31.96929800000000       -2.58693700000000       -2.30254700000000
C           30.81511800000000       -2.10354600000000       -1.87221300000000
N           31.00942900000000       -1.04741600000000       -0.93228100000000
C           29.51004000000000       -2.61353100000000       -2.32588700000000
C           28.33085700000000       -2.14586000000000       -1.90963600000000
C           27.04374500000000       -2.64780700000000       -2.35616600000000
C           26.13717600000000       -1.93217200000000       -1.71937100000000
C           26.84486600000000       -0.96976500000000       -0.86311300000000
N           28.13237100000000       -1.09184800000000       -0.97181800000000
H           25.15329699999999        2.05287100000000        1.82642400000000
H           27.01377500000000        3.36104600000000        2.99060900000000
H           29.63904200000000        3.31520200000000        2.94993900000000
H           32.34009600000000        3.34969700000000        2.98084000000000
H           34.23893500000000        2.05123600000000        1.82534100000000
H           34.08167400000000       -1.99071300000000       -1.77211700000000
H           32.10188900000000       -3.38951700000000       -3.01682100000000
H           29.51156900000000       -3.42364600000000       -3.04674800000000
H           26.84924500000000       -3.44327600000000       -3.06393500000000
H           25.06781400000000       -2.05314600000000       -1.82694400000000
115
 energy: -200.771634347173 gnorm: 0.787334195890 xtb: 6.5.1 (b24c23e)
Zn          15.38645695025218        0.02973238802694        0.03043336402229
C           12.01192397592271       -0.07552684086454       -0.07522824352745
C           12.68793271606546       -0.89569347208766       -0.89908673904643
C           12.05488698121663       -1.82357747743797       -1.83106348769566
C           13.01862671469302       -2.46684261880108       -2.47721420247164
C           14.29790332948440       -1.97025156995318       -1.97846521281879
N           14.09984467909054       -0.98120658651303       -0.98503257098761
C           15.49387453025496       -2.40289940963227       -2.41301034243380
C           16.78460422824125       -1.91600924008163       -1.92391231654310
C           18.06425008764068       -2.41207161933414       -2.42189419749887
C           19.02418683317393       -1.76719082702533       -1.77412805088952
N           16.94468975393823       -1.00179970329278       -1.00579020346890
C           18.35484851217059       -0.85334408617465       -0.85650053188437
C           18.96409181240837       -0.00378600219050       -0.00328864495060
C           18.21230027464695        0.89400079390037        0.89831790166404
C           18.78523104988309        1.75189313599057        1.75986745675796
C           17.73143898948695        2.44408651237128        2.45507900860283
C           16.56971898564296        1.97433884836790        1.98334643798317
N           16.79200793786235        0.98293389972204        0.98766004929402
C           15.26606456728380        2.44629864218886        2.45748609089220
C           14.09290044050879        1.98969518994996        1.99897638960403
C           12.78859625089702        2.44023046133241        2.45169687395929
C           11.90290255284454        1.74277311298582        1.75124835765336
C           12.64622206104559        0.85372525291407        0.85811977293599
N           13.93468376841003        0.99595031937285        1.00080667074991
H           10.92854759107369       -0.10189430352572       -0.10164074987204
H           10.99438951693439       -1.97397735927048       -1.98208144987738
H           12.86392029542973       -3.22218482150521       -3.23588384803615
H           15.50824393794498       -3.16782334818436       -3.18129094329248
H           18.21746822683394       -3.16645685382029       -3.17943654318276
H           20.08479737459156       -1.91485216005443       -1.92220483073798
H           19.84453539193840        1.89854549160364        1.90713909804455
H           17.84319072182674        3.20250240350597        3.21679679795660
H           15.24532781487187        3.21243501328128        3.22702876987152
H           12.56366906088930        3.18665276291687        3.20150517078699
H           10.82959791834032        1.82741135834164        1.83643572843787
Zn          43.89323161254453       -0.05847574544893       -0.00367921329325
C           47.26773210405046        0.09049174282545       -0.01102942051896
C           46.59173611053794        1.25155625547627       -0.06872290586007
C           47.22477176882651        2.56506604059541       -0.13393010090470
C           46.26103555809514        3.47569667713275       -0.17917266272722
C           44.98177096839019        2.77273259282279       -0.14429644005862
N           45.17979904321892        1.37265037031482       -0.07477163318549
C           43.78574979070238        3.38518340323985       -0.17468973573231
C           42.49506780986118        2.69595787374671       -0.14043744089994
C           41.21541371526868        3.39796035549359       -0.17509843814774
C           40.25547199541352        2.48506465116978       -0.12974251042864
N           42.33489605911754        1.40174119865840       -0.07628325490707
C           40.92475685448044        1.19171034531605       -0.06571361162447
C           40.31499538349497       -0.01090381151858       -0.00599957433192
C           41.06723536057506       -1.28189963608855        0.05691152664482
C           40.49441643614530       -2.49615354167513        0.11711243317264
C           41.54823394891373       -3.47597349776540        0.16572717111760
C           42.70991133856569       -2.81106706043721        0.13278232137902
N           42.48761172211697       -1.40763715739379        0.06316953500539
C           44.01361079812205       -3.47922904642601        0.16602038810609
C           45.18674915948306       -2.83294832099185        0.13401160924076
C           46.49107536154761       -3.47084783674404        0.16581983801516
C           47.37675413188658       -2.48360449715237        0.11686947481178
C           46.63342731627841       -1.22495713954187        0.05427206661300
N           45.34497056758932       -1.42616386654868        0.06414454468051
H           48.35110980611343        0.12776341691516       -0.01282919194709
H           48.28526763030869        2.77793691388183       -0.14446625392139
H           46.41573853819322        4.54494872511217       -0.23225037080687
H           43.77141253703289        4.46799724988988       -0.22843628601534
H           41.06218940945251        4.46573679491925       -0.22798454180505
H           39.19485461495272        2.69389790847670       -0.13994342684011
H           39.43511528854273       -2.70371392373209        0.12739120405356
H           41.43646744744257       -4.54954963187428        0.21899328495365
H           44.03432921017907       -4.56378565687225        0.21988030806051
H           46.71599067295272       -4.52754009413550        0.21834460941414
H           48.45005901571241       -2.60352223167751        0.12294684146215
C           22.50779583843374        0.00710751405286       -0.00335489565891
C           21.25264931858107       -0.01213241852547       -0.00774299336287
C           23.82243682562640        0.00586521331492       -0.00174438334704
C           25.12174919025176       -0.02064117368929       -0.01481035818601
C           35.31424683904655        0.00622622158327       -0.00391162229886
C           34.18558445847545       -0.02030728099241       -0.01473399786371
C           36.61372219850114        0.00617569618493       -0.00152752547221
C           38.07809757092105       -0.01207331896329       -0.00774998468938
Zn          29.60324469852486       -0.03746850490970       -0.03354633188852
C           26.33374485100719        0.01840936240510        0.01557192173686
C           26.86064642647820        0.90167400461950        0.80207791935425
C           26.20930305209819        1.87818437921529        1.67103065426177
C           27.17289179133105        2.56176915693402        2.27937510344112
C           28.44731431725556        2.03911239074893        1.81434782264303
N           28.25383174715265        0.99056291954560        0.88129035761903
C           29.63953758768571        2.50514698182682        2.22909757319636
C           30.93883998094536        2.00890297618452        1.78754696788201
C           32.20413484010948        2.54967224053789        2.26885028333408
C           33.18212929845613        1.87804737592757        1.67117234520712
N           31.12097569827286        1.04242265237677        0.92742856124369
C           32.51025648900988        0.91473559552509        0.81380120265704
C           33.00109888244727        0.01791993126869        0.01535261523741
C           32.41341741592263       -0.94996869430732       -0.84568405819031
C           33.01970091229614       -1.84455304976576       -1.64194349984180
C           31.97738676974063       -2.58766471764362       -2.30319707563735
C           30.80811147376535       -2.10113118083640       -1.87006453933739
N           31.01091953279469       -1.05087921383794       -0.93536252072845
C           29.51532438544888       -2.61199168402655       -2.32451880618665
C           28.32912247455329       -2.14569110976950       -1.90948257164825
C           27.04663393681111       -2.64854420165426       -2.35682220538051
C           26.13422912678127       -1.92851357428676       -1.71611623472860
C           26.85455708082429       -0.97430793663520       -0.86719141896882
N           28.13537676980987       -1.09618420892905       -0.97566819488545
H           25.15312019301120        2.05168859630662        1.82537118073982
H           27.01470978927632        3.36097709171801        2.99054765059604
H           29.63951595269437        3.31515697331212        2.94989843206925
H           32.33932524293468        3.34984974880315        2.98097514608519
H           34.23890919083568        2.05014425391203        1.82436934059744
H           34.08164467936486       -1.99073156825141       -1.77213373843824
H           32.10248407682019       -3.38940059788366       -3.01671720391255
H           29.51228463265463       -3.42339281213923       -3.04652212136613
H           26.85013377342675       -3.44311433406478       -3.06379141439135
H           25.06746176977208       -2.05219380217810       -1.82609735426772
115
 energy: -201.010646820782 gnorm: 0.493158385335 xtb: 6.5.1 (b24c23e)
Zn          15.39039189562541        0.02669768986897        0.02741909345272
C           12.01264190407511       -0.06432720286170       -0.06398105032568
C           12.69153502292817       -0.89607583808134       -0.89947294915678
C           12.05413466842574       -1.81914955337709       -1.82661759346207
C           13.02525214806128       -2.46732876758533       -2.47770515692682
C           14.29739395284233       -1.96765918144409       -1.97586199293981
N           14.08014122687629       -0.99575695874836       -0.99964810035367
C           15.51102325793063       -2.40018998214884       -2.41029026527757
C           16.78200258913578       -1.92600040666045       -1.93395299834037
C           18.05634780970910       -2.41812849441598       -2.42797947552573
C           19.02547943536492       -1.76415890657349       -1.77107760320641
N           16.96506542880655       -1.00111148882559       -1.00511803237267
C           18.37299540287415       -0.85019214113699       -0.85331239585037
C           18.98483929663537        0.00751390664869        0.00807843002731
C           18.21902662698883        0.88578214802255        0.89007777493569
C           18.78993200307044        1.76703758819734        1.77507841729294
C           17.75525881040985        2.44452078566118        2.45551201334915
C           16.56489976366307        1.96525393698469        1.97422266090000
N           16.80732680965618        0.98627615300243        0.99101574169400
C           15.28351884817610        2.43728460041215        2.44842806564527
C           14.09187275288131        1.98810622989157        1.99737685629032
C           12.79228263880780        2.43793882025785        2.44939171572040
C           11.89262829384404        1.73574166070379        1.74418307256585
C           12.62664919448840        0.84916295575702        0.85353402312016
N           13.92938349556915        1.00445985340957        1.00933779398505
H           10.92926347550053       -0.09739866389800       -0.09712709632655
H           10.99393283295487       -1.96763438235060       -1.97571256494959
H           12.87302524051496       -3.22227660667493       -3.23597863572127
H           15.51562907839293       -3.16612269249170       -3.17958175830229
H           18.21040144436279       -3.17015325314097       -3.18315184520550
H           20.08550855981360       -1.90819448895293       -1.91552065233351
H           19.84797811838596        1.90364527204754        1.91226117599100
H           17.85146100570529        3.20259881623036        3.21688874690749
H           15.25704241998850        3.20645620097388        3.22101979102216
H           12.57220108162795        3.18512159851811        3.19996244571591
H           10.82354418972455        1.82234911122240        1.83134787721723
Zn          43.88934907626275       -0.05422837280458       -0.00388619242009
C           47.26697500963701        0.07467613356971       -0.01025466060277
C           46.58814979824280        1.25210472141649       -0.06876146993220
C           47.22551836378236        2.55882215283373       -0.13363097841522
C           46.25440440762732        3.47636996015429       -0.17921750261152
C           44.98226799568179        2.76895908288778       -0.14411756021776
N           45.19943018179795        1.39326577122236       -0.07579969171635
C           43.76840774200615        3.38116927532970       -0.17449682125447
C           42.49753597351256        2.70987797695452       -0.14114715857911
C           41.22325245007812        3.40653529912052       -0.17553236266078
C           40.25394315339940        2.48102479629125       -0.12954175906637
N           42.31381256575567        1.40029854549987       -0.07622913318903
C           40.90549629996339        1.18723791636001       -0.06547606977796
C           40.29184012999710       -0.02686619617139       -0.00512374883379
C           41.05946376552679       -1.27030397488686        0.05631604191110
C           40.48942531066394       -2.51780677834508        0.11818421073983
C           41.52435720092327       -3.47652790904006        0.16574812772489
C           42.71455402853756       -2.79798359311159        0.13212949865281
N           42.47173188799512       -1.41196196570459        0.06338217215774
C           43.99610382393091       -3.46634823416686        0.16537221569918
C           45.18774701633593       -2.83067060450226        0.13388716492457
C           46.48740599421692       -3.46760113477196        0.16564858512379
C           47.38700855800160       -2.47368380667260        0.11636673494507
C           46.65295016652031       -1.21851260002046        0.05394044657666
N           45.35023985135629       -1.43815691683178        0.06472326420090
H           48.35035792105175        0.12141165116986       -0.01252546570311
H           48.28570300426075        2.76896791249110       -0.14403323262277
H           46.40661307310612        4.54505699985858       -0.23226810428757
H           43.76393983079950        4.46546387345515       -0.22831962552638
H           41.06927106584556        4.47095061729608       -0.22825356985702
H           39.19396318074671        2.68451069499547       -0.13948096510931
H           39.43147680757959       -2.71101833104161        0.12774103156558
H           41.42822121944491       -4.54961739481834        0.21898710311858
H           44.02257060093940       -4.55523210869097        0.21944494595801
H           46.70745822694403       -4.52535375959419        0.21822447484928
H           48.45608392919237       -2.59635104511625        0.12257895150493
C           22.46610985505065        0.00666367910566       -0.00356428201499
C           21.21740420532204       -0.00919844167985       -0.00544517701221
C           23.82842307284765        0.00399094523977       -0.00246726947641
C           25.04118637918295       -0.02897214465923       -0.02246043491786
C           35.44503021373393        0.00237604524604       -0.00541484965154
C           34.19889392512604       -0.03355946792352       -0.02833647057911
C           36.77431087204169        0.00490963195319       -0.00206682700794
C           38.05903302547291       -0.01257519819530       -0.00717582568149
Zn          29.60303698856223       -0.03526943020062       -0.03157419113684
C           26.29319677992071        0.00195512504563        0.00067334850618
C           26.86987743977697        0.91509999249594        0.81400560026563
C           26.20998452012629        1.87647860061980        1.66954160065587
C           27.18031009220302        2.56462809145581        2.28191932286637
C           28.44978433087683        2.04258433263458        1.81743751007273
N           28.24345495647433        1.01424569011352        0.90228173819704
C           29.65421982650651        2.51015688687994        2.23357266645953
C           30.92574843046779        2.03196986624688        1.80808409958079
C           32.19206305255803        2.56066227906157        2.27860484035163
C           33.17321288839634        1.87682830743038        1.66999480236881
N           31.11256934655845        1.05755967274653        0.94092184417059
C           32.47898540100395        0.93099276625395        0.82843519567780
C           32.97239098127427        0.00160410176976        0.00134276775895
C           32.37722840992342       -0.95517112173570       -0.85011788781360
C           33.01481540458900       -1.86198855018665       -1.65754554974329
C           31.99796270830785       -2.59152098172633       -2.30663899222911
C           30.79583118406968       -2.10007181443734       -1.86911376562211
N           31.00108160816602       -1.06705374007148       -0.94971123416490
C           29.53134853603881       -2.60821585442243       -2.32115151978541
C           28.33182356913136       -2.14926934861959       -1.91265636012254
C           27.05095274149597       -2.64721978820987       -2.35564021582790
C           26.12565186948869       -1.92197309914531       -1.71029726512713
C           26.84437019968765       -0.97828685168931       -0.87079329486289
N           28.14297113194329       -1.11279330636211       -0.99048483963958
H           25.15271075303786        2.04334541399262        1.81794575128907
H           27.02322961458332        3.36224956822719        2.99167732868656
H           29.64521899217272        3.31801138051104        2.95244791835710
H           32.33328866475213        3.35609708940828        2.98653162784898
H           34.23436022137139        2.04064031020835        1.81590348913642
H           34.08001227820053       -1.99326397161162       -1.77440018588742
H           32.11175136552865       -3.39121816606513       -3.01834052636172
H           29.52284433176358       -3.42045170128354       -3.04390179525078
H           26.85778777405761       -3.44170884998306       -3.06253904607600
H           25.06192772272506       -2.04503192149514       -1.81972707278252
115
 energy: -201.138249660253 gnorm: 0.350057146553 xtb: 6.5.1 (b24c23e)
Zn          15.39969967994088        0.02260133983705        0.02333536210652
C           12.01453393474163       -0.05189792854821       -0.05149828736168
C           12.69476689208089       -0.89790385640204       -0.90130948688466
C           12.05404029067336       -1.81447124219020       -1.82191882694922
C           13.03325853477672       -2.46765866176545       -2.47803843237190
C           14.29603090704527       -1.96502348238337       -1.97321422110326
N           14.05637305276491       -1.01316969678845       -1.01713730240677
C           15.53277325206740       -2.39408404069217       -2.40415745067620
C           16.78313953624440       -1.93511916239665       -1.94312252482497
C           18.05046598231604       -2.42326528804372       -2.43314482657471
C           19.02765578051145       -1.76194893303630       -1.76883862090221
N           16.99601270843610       -0.99700042965052       -1.00101667666817
C           18.39819258298312       -0.84763167941306       -0.85069143235424
C           19.02084025610376        0.02130598911613        0.02209206478375
C           18.23762513427898        0.87696198309250        0.88125946044754
C           18.79869999681446        1.78649401415248        1.79463179032523
C           17.78690866396831        2.44346390760773        2.45444785296001
C           16.56607190196104        1.95302672030515        1.96194257353747
N           16.83583021549249        0.98977905626063        0.99452676877805
C           15.30948541519076        2.42216406545448        2.43323736667454
C           14.09058202397999        1.98333091915811        1.99257758061373
C           12.79686069421194        2.43313220127285        2.44456275412418
C           11.88235575583258        1.72852012535136        1.73692811576455
C           12.60349555734751        0.84444047926303        0.84878853117413
N           13.92435417527912        1.01441922826468        1.01933171158429
H           10.93083326251553       -0.09226261818289       -0.09196789345196
H           10.99362039207100       -1.95875512259528       -1.96679540137630
H           12.88638814672068       -3.22240157552929       -3.23610689840324
H           15.52652402759683       -3.16156064889989       -3.17499554419888
H           18.20179963988081       -3.17466710459083       -3.18769193333134
H           20.08778415115827       -1.90024708806865       -1.90753663307847
H           19.85694483411930        1.91168545591336        1.92034132861419
H           17.86243212333003        3.20240224993604        3.21668476235052
H           15.27762585422406        3.19406740138241        3.20857386535037
H           12.58476238842376        3.18161763882097        3.19643952951197