      -----------------------------------------------------------      
     |                   =====================                   |     
     |                           x T B                           |     
     |                   =====================                   |     
     |                         S. Grimme                         |     
     |          Mulliken Center for Theoretical Chemistry        |     
     |                    University of Bonn                     |     
      -----------------------------------------------------------      

   * xtb version 6.5.1 (b24c23e) compiled by 'conda@728c89f4b128' on 2022-07-12

   xtb is free software: you can redistribute it and/or modify it under
   the terms of the GNU Lesser General Public License as published by
   the Free Software Foundation, either version 3 of the License, or
   (at your option) any later version.
   
   xtb is distributed in the hope that it will be useful,
   but WITHOUT ANY WARRANTY; without even the implied warranty of
   MERCHANTABILITY or FITNESS FOR A PARTICULAR PURPOSE.  See the
   GNU Lesser General Public License for more details.
   
   Cite this work as:
   * C. Bannwarth, E. Caldeweyher, S. Ehlert, A. Hansen, P. Pracht,
     J. Seibert, S. Spicher, S. Grimme, WIREs Comput. Mol. Sci., 2020, 11,
     e01493. DOI: 10.1002/wcms.1493
   
   for GFN2-xTB:
   * C. Bannwarth, S. Ehlert and S. Grimme., J. Chem. Theory Comput., 2019,
     15, 1652-1671. DOI: 10.1021/acs.jctc.8b01176
   for GFN1-xTB:
   * S. Grimme, C. Bannwarth, P. Shushkov, J. Chem. Theory Comput., 2017,
     13, 1989-2009. DOI: 10.1021/acs.jctc.7b00118
   for GFN0-xTB:
   * P. Pracht, E. Caldeweyher, S. Ehlert, S. Grimme, ChemRxiv, 2019, preprint.
     DOI: 10.26434/chemrxiv.8326202.v1
   for GFN-FF:
   * S. Spicher and S. Grimme, Angew. Chem. Int. Ed., 2020, 59, 15665-15673.
     DOI: 10.1002/anie.202004239
   
   for ALPB and GBSA implicit solvation:
   * S. Ehlert, M. Stahn, S. Spicher, S. Grimme, J. Chem. Theory Comput.,
     2021, 17, 4250-4261. DOI: 10.1021/acs.jctc.1c00471
   
   for DFT-D4:
   * E. Caldeweyher, C. Bannwarth and S. Grimme, J. Chem. Phys., 2017,
     147, 034112. DOI: 10.1063/1.4993215
   * E. Caldeweyher, S. Ehlert, A. Hansen, H. Neugebauer, S. Spicher,
     C. Bannwarth and S. Grimme, J. Chem. Phys., 2019, 150, 154122.
     DOI: 10.1063/1.5090222
   * E. Caldeweyher, J.-M. Mewes, S. Ehlert and S. Grimme, Phys. Chem. Chem. Phys.
     2020, 22, 8499-8512. DOI: 10.1039/D0CP00502A
   
   for sTDA-xTB:
   * S. Grimme and C. Bannwarth, J. Chem. Phys., 2016, 145, 054103.
     DOI: 10.1063/1.4959605
   
   in the mass-spec context:
   * V. Asgeirsson, C. Bauer and S. Grimme, Chem. Sci., 2017, 8, 4879.
     DOI: 10.1039/c7sc00601b
   * J. Koopman and S. Grimme, ACS Omega 2019, 4, 12, 15120-15133.
     DOI: 10.1021/acsomega.9b02011
   
   for metadynamics refer to:
   * S. Grimme, J. Chem. Theory Comput., 2019, 155, 2847-2862
     DOI: 10.1021/acs.jctc.9b00143
   
   for SPH calculations refer to:
   * S. Spicher and S. Grimme, J. Chem. Theory Comput., 2021, 17, 1701-1714
     DOI: 10.1021/acs.jctc.0c01306
   
   with help from (in alphabetical order)
   P. Atkinson, C. Bannwarth, F. Bohle, G. Brandenburg, E. Caldeweyher
   M. Checinski, S. Dohm, S. Ehlert, S. Ehrlich, I. Gerasimov, C. Hölzer
   A. Katbashev, J. Koopman, C. Lavigne, S. Lehtola, F. März, M. Müller,
   F. Musil, H. Neugebauer, J. Pisarek, C. Plett, P. Pracht, F. Pultar,
   J. Seibert, P. Shushkov, S. Spicher, M. Stahn, M. Steiner, T. Strunk,
   J. Stückrath, T. Rose, and J. Unsleber
   
 * started run on 2022/07/27 at 22:27:43.554     

           -------------------------------------------------
          |                Calculation Setup                |
           -------------------------------------------------

          program call               : xtb PhCN_C8_4.xyz --gfn 1 --opt -T 48
          hostname                   : cx3-6-25.cx3.hpc.ic.ac.uk
          coordinate file            : PhCN_C8_4.xyz
          omp threads                :                     1

   ID    Z sym.   atoms
    1    6 C      1-5, 7-12, 14-18, 20-25, 27-32, 34-39, 60-64, 66-71, 73-77,
                  79-84, 86-91, 93-98, 119-147, 149-154, 156-160, 162-167,
                  169-174, 176-181, 201-205, 207-212, 214-218, 220-225,
                  227-232, 234-239
    2    7 N      6, 13, 19, 26, 33, 40, 65, 72, 78, 85, 92, 99, 148, 155,
                  161, 168, 175, 182, 206, 213, 219, 226, 233, 240
    3    1 H      41-59, 100-118, 183-200, 241-258

molecular fragmentation (1/2 indicates fragments):
111111111111111111111111111111111111111111111111111111111112222222222222
222222222222222222222222222222222222222222222222222222222222222222222222
222222222222222222222222222222222222222222222222222222222222222222222222
222222222222222222222222222222222222222222
# atoms in fragment 1/2:    59   199
 fragment masses (1/2) :      511.56     1820.91
CMA distance (Bohr)    :  67.709
constraining FC (au)   :  0.0500
########################################################################
[WARNING] Please study the warnings concerning your input carefully
-1- prog_main_parseArguments: Unknown option '-T' provided
########################################################################

           -------------------------------------------------
          |                 G F N 1 - x T B                 |
           -------------------------------------------------

        Reference                      10.1021/acs.jctc.7b00118
      * Hamiltonian:
        H0-scaling (s, p, d)           1.850000    2.250000    2.000000
        zeta-weighting                 0.000000
      * Dispersion:
        s8                             2.400000
        a1                             0.630000
        a2                             5.000000
        s9                             0.000000
      * Repulsion:
        kExp                           1.500000
        rExp                           1.000000
      * Coulomb:
        alpha                          2.000000
        third order                    atomic
        anisotropic                    false
      * Halogen bond correction:
        rad-scale                      1.300000
        damping                        0.440000


          ...................................................
          :                      SETUP                      :
          :.................................................:
          :  # basis functions                 884          :
          :  # atomic orbitals                 884          :
          :  # shells                          516          :
          :  # electrons                       834          :
          :  # halogen bonds                     0          :
          :  max. iterations                   250          :
          :  Hamiltonian                  GFN1-xTB          :
          :  restarted?                      false          :
          :  GBSA solvation                  false          :
          :  PC potential                    false          :
          :  electronic temp.          300.0000000     K    :
          :  accuracy                    1.0000000          :
          :  -> integral cutoff          0.2500000E+02      :
          :  -> integral neglect         0.1000000E-07      :
          :  -> SCF convergence          0.1000000E-05 Eh   :
          :  -> wf. convergence          0.2000000E-04 e    :
          :  Broyden damping             0.4000000          :
          ...................................................

 iter      E             dE          RMSdq      gap      omega  full diag
   1   -460.4253457 -0.460425E+03  0.107E+01    0.07       0.0  T
   2   -446.2410077  0.141843E+02  0.707E+00    0.17       1.0  T
   3   2384.2411596  0.283048E+04  0.194E+01    0.07       1.0  T
   4   2143.8879423 -0.240353E+03  0.192E+01    0.08       1.0  T
   5   -391.5167719 -0.253540E+04  0.684E+00    0.05       1.0  T
   6   -299.6107361  0.919060E+02  0.637E+00    0.01       1.0  T
   7    174.1967072  0.473807E+03  0.101E+01    0.06       1.0  T
   8   -371.7678082 -0.545965E+03  0.524E+00    0.06       1.0  T
   9   -419.5642510 -0.477964E+02  0.371E+00    0.02       1.0  T
  10   -435.9675632 -0.164033E+02  0.273E+00    0.03       1.0  T
  11   -426.8136994  0.915386E+01  0.297E+00    0.01       1.0  T
  12   -441.4310985 -0.146174E+02  0.228E+00    0.03       1.0  T
  13   -442.1200634 -0.688965E+00  0.217E+00    0.11       1.0  T
  14   -450.4293689 -0.830931E+01  0.174E+00    0.03       1.0  T
  15   -454.5406560 -0.411129E+01  0.154E+00    0.05       1.0  T
  16   -457.8600056 -0.331935E+01  0.123E+00    0.07       1.0  T
  17   -458.2077086 -0.347703E+00  0.110E+00    0.05       1.0  T
  18   -459.2300461 -0.102234E+01  0.106E+00    0.10       1.0  T
  19   -459.4435388 -0.213493E+00  0.101E+00    0.04       1.0  T
  20   -460.2025473 -0.759009E+00  0.112E+00    0.07       1.0  T
  21   -460.3535959 -0.151049E+00  0.102E+00    0.01       1.0  T
  22   -460.5209830 -0.167387E+00  0.964E-01    0.04       1.0  T
  23   -460.6043935 -0.834105E-01  0.947E-01    0.03       1.0  T
  24   -460.6115782 -0.718474E-02  0.891E-01    0.02       1.0  T
  25   -460.9967457 -0.385167E+00  0.835E-01    0.05       1.0  T
  26   -461.0343979 -0.376522E-01  0.696E-01    0.02       1.0  T
  27   -461.1880652 -0.153667E+00  0.649E-01    0.01       1.0  T
  28   -461.2601620 -0.720968E-01  0.503E-01    0.09       1.0  T
  29   -461.2942961 -0.341341E-01  0.427E-01    0.05       1.0  T
  30   -461.3199386 -0.256425E-01  0.360E-01    0.08       1.0  T
  31   -461.3665197 -0.465812E-01  0.172E-01    0.04       1.0  T
  32   -461.3780815 -0.115617E-01  0.106E-01    0.02       1.0  T
  33   -461.3739691  0.411237E-02  0.122E-01    0.02       1.0  T
  34   -461.3418437  0.321254E-01  0.224E-01    0.02       1.0  T
  35   -461.3750643 -0.332206E-01  0.125E-01    0.01       1.0  T
  36   -461.3773580 -0.229372E-02  0.127E-01    0.02       1.0  T
  37   -461.3837775 -0.641950E-02  0.913E-02    0.02       1.0  T
  38   -461.3850182 -0.124062E-02  0.782E-02    0.03       1.0  T
  39   -461.3862596 -0.124144E-02  0.590E-02    0.02       1.0  T
  40   -461.3871664 -0.906802E-03  0.516E-02    0.02       1.0  T
  41   -461.3878253 -0.658941E-03  0.428E-02    0.02       1.0  T
  42   -461.3884859 -0.660589E-03  0.342E-02    0.03       1.0  T
  43   -461.3886149 -0.128976E-03  0.292E-02    0.02       1.0  T
  44   -461.3888705 -0.255603E-03  0.242E-02    0.03       1.0  T
  45   -461.3890901 -0.219546E-03  0.163E-02    0.03       1.0  T
  46   -461.3892114 -0.121350E-03  0.109E-02    0.03       1.0  T
  47   -461.3892653 -0.539307E-04  0.929E-03    0.03       1.0  T
  48   -461.3892869 -0.215948E-04  0.859E-03    0.03       1.0  T
  49   -461.3893054 -0.184161E-04  0.711E-03    0.03       1.0  T
  50   -461.3893276 -0.222911E-04  0.499E-03    0.03       1.2  T
  51   -461.3893431 -0.154148E-04  0.348E-03    0.03       1.8  T
  52   -461.3893507 -0.765457E-05  0.329E-03    0.03       1.9  T
  53   -461.3893567 -0.596567E-05  0.266E-03    0.03       2.3  T
  54   -461.3893632 -0.649131E-05  0.154E-03    0.03       4.0  T
  55   -461.3893651 -0.190966E-05  0.940E-04    0.03       6.6  T
  56   -461.3893659 -0.817306E-06  0.669E-04    0.03       9.3  T
  57   -461.3893661 -0.247956E-06  0.503E-04    0.03      12.4  T
  58   -461.3893663 -0.133194E-06  0.503E-04    0.03      12.4  T
  59   -461.3893664 -0.105015E-06  0.378E-04    0.03      16.5  T
  60   -461.3893664 -0.397647E-07  0.243E-04    0.03      25.6  T
  61   -461.3893664 -0.221441E-07  0.219E-04    0.03      28.5  T
  62   -461.3893665 -0.177510E-07  0.197E-04    0.03      31.6  T
  63   -461.3893665 -0.305970E-07  0.156E-04    0.03      39.8  T

   *** convergence criteria satisfied after 63 iterations ***

         #    Occupation            Energy/Eh            Energy/eV
      -------------------------------------------------------------
         1        2.0000           -0.8239944             -22.4220
       ...           ...                  ...                  ...
       411        2.0000           -0.3967800             -10.7969
       412        2.0000           -0.3887285             -10.5778
       413        2.0000           -0.3885040             -10.5717
       414        2.0000           -0.3847913             -10.4707
       415        2.0000           -0.3783353             -10.2950
       416        1.8936           -0.3702567             -10.0752
       417        1.3037           -0.3681174             -10.0170 (HOMO)
       418        0.7924           -0.3671214              -9.9899 (LUMO)
       419        0.0097           -0.3624681              -9.8633
       420        0.0006           -0.3597461              -9.7892
       421        0.0000           -0.3570658              -9.7163
       422        0.0000           -0.3528733              -9.6022
       ...           ...                  ...                  ...
       884                         12.3990479             337.3953
      -------------------------------------------------------------
                  HL-Gap            0.0009961 Eh            0.0271 eV
             Fermi-level           -0.3675216 Eh          -10.0008 eV

 SCC (total)                   0 d,  0 h,  0 min, 14.647 sec
 SCC setup                      ...        0 min,  0.016 sec (  0.112%)
 Dispersion                     ...        0 min,  0.009 sec (  0.063%)
 classical contributions        ...        0 min,  0.003 sec (  0.018%)
 integral evaluation            ...        0 min,  0.255 sec (  1.742%)
 iterations                     ...        0 min, 13.787 sec ( 94.130%)
 molecular gradient             ...        0 min,  0.531 sec (  3.627%)
 printout                       ...        0 min,  0.045 sec (  0.308%)

         :::::::::::::::::::::::::::::::::::::::::::::::::::::
         ::                     SUMMARY                     ::
         :::::::::::::::::::::::::::::::::::::::::::::::::::::
         :: total energy            -449.444187520942 Eh    ::
         :: gradient norm              7.961914686095 Eh/a0 ::
         :: HOMO-LUMO gap              0.027104450728 eV    ::
         ::.................................................::
         :: SCC energy              -461.389366492033 Eh    ::
         :: -> electrostatic           0.376711343591 Eh    ::
         :: repulsion energy          12.161051729840 Eh    ::
         :: dispersion energy         -0.215872758749 Eh    ::
         :: halogen bond corr.         0.000000000000 Eh    ::
         :: add. restraining           0.000000000000 Eh    ::
         :: total charge              -0.000000000000 e     ::
         :::::::::::::::::::::::::::::::::::::::::::::::::::::

      ----------------------------------------------------------- 
     |                   =====================                   |
     |                        A N C O P T                        |
     |                   =====================                   |
     |               Approximate Normal Coordinate               |
     |                Rational Function Optimizer                |
      ----------------------------------------------------------- 

          ...................................................
          :                      SETUP                      :
          :.................................................:
          :   optimization level            normal          :
          :   max. optcycles                   774          :
          :   ANC micro-cycles                  20          :
          :   degrees of freedom               768          :
          :.................................................:
          :   RF solver                   davidson          :
          :   write xtbopt.log                true          :
          :   linear?                        false          :
          :   energy convergence         0.5000000E-05 Eh   :
          :   grad. convergence          0.1000000E-02 Eh/α :
          :   maximium RF displ.         1.0000000          :
          :   Hlow (freq-cutoff)         0.1000000E-01      :
          :   Hmax (freq-cutoff)         5.0000000          :
          :   S6 in model hess.         20.0000000          :
          ...................................................

generating ANC from model Hessian ...
Using Lindh-Hessian (1995)
 Shifting diagonal of input Hessian by    1.0031849741684818E-002
 Lowest  eigenvalues of input Hessian
    0.010000    0.010016    0.010024    0.010028    0.010028    0.010030
    0.010031    0.000000    0.000000    0.000000    0.000000    0.000000
    0.000000    0.010034    0.010035    0.010039    0.010042    0.010044
 Highest eigenvalues
    3.979986    3.979987    4.747023    4.747026    4.919275    4.919275


........................................................................
.............................. CYCLE    1 ..............................
........................................................................
   1   -461.3893665 -0.461389E+03  0.123E-04    0.03       0.0  T
   2   -461.3893661  0.372724E-06  0.547E-04    0.03      11.4  T
   3   -461.3893664 -0.292806E-06  0.290E-04    0.03      21.5  T
   4   -461.3893653  0.109910E-05  0.106E-03    0.03       5.8  T
   5   -461.3893663 -0.989281E-06  0.453E-04    0.03      13.7  T
   6   -461.3893663  0.789777E-08  0.433E-04    0.03      14.4  T
   7   -461.3893665 -0.198733E-06  0.127E-04    0.03      49.1  T
   8   -461.3893665 -0.108204E-07  0.785E-05    0.03      79.3  T
     SCC iter.                  ...        0 min,  1.768 sec
     gradient                   ...        0 min,  0.531 sec
 * total energy  :  -449.4441876 Eh     change       -0.3254377E-07 Eh
   gradient norm :     7.9619010 Eh/α   predicted     0.0000000E+00 (-100.00%)
   displ. norm   :     0.7581799 α      lambda       -0.6003222E+01
   maximum displ.:     0.4611777 α      in ANC's #768, #767, #765, ...

........................................................................
.............................. CYCLE    2 ..............................
........................................................................
   1   -461.3223697 -0.461322E+03  0.491E-01    0.16       0.0  T
   2   -460.2468144  0.107556E+01  0.936E-01    0.03       1.0  T
   3   -460.6706383 -0.423824E+00  0.751E-01    0.03       1.0  T
   4   -461.4139267 -0.743288E+00  0.222E-01    0.06       1.0  T
   5   -461.4299470 -0.160203E-01  0.214E-01    0.14       1.0  T
   6   -461.4645835 -0.346365E-01  0.106E-01    0.09       1.0  T
   7   -461.4499929  0.145906E-01  0.153E-01    0.12       1.0  T
   8   -461.4721255 -0.221326E-01  0.734E-02    0.10       1.0  T
   9   -461.4767171 -0.459163E-02  0.448E-02    0.09       1.0  T
  10   -461.4756797  0.103743E-02  0.537E-02    0.09       1.0  T
  11   -461.4730611  0.261863E-02  0.682E-02    0.09       1.0  T
  12   -461.4756159 -0.255484E-02  0.508E-02    0.09       1.0  T
  13   -461.4772894 -0.167349E-02  0.346E-02    0.09       1.0  T
  14   -461.4777033 -0.413939E-03  0.274E-02    0.09       1.0  T
  15   -461.4784363 -0.732996E-03  0.105E-02    0.09       1.0  T
  16   -461.4785473 -0.110993E-03  0.522E-03    0.09       1.2  T
  17   -461.4785788 -0.315208E-04  0.198E-03    0.09       3.2  T
  18   -461.4785812 -0.236783E-05  0.863E-04    0.09       7.2  T
  19   -461.4785813 -0.103963E-06  0.839E-04    0.09       7.4  T
  20   -461.4785820 -0.661745E-06  0.407E-04    0.09      15.3  T
  21   -461.4785821 -0.152348E-06  0.113E-04    0.09      55.1  T
  22   -461.4785821 -0.166064E-07  0.403E-05    0.09     154.4  T
     SCC iter.                  ...        0 min,  4.848 sec
     gradient                   ...        0 min,  0.526 sec
 * total energy  :  -452.2489575 Eh     change       -0.2804770E+01 Eh
   gradient norm :     1.6519098 Eh/α   predicted    -0.4727348E+01 (  68.55%)
   displ. norm   :     0.5657051 α      lambda       -0.7957765E+00
   maximum displ.:     0.1702426 α      in ANC's #756, #755, #757, ...

........................................................................
.............................. CYCLE    3 ..............................
........................................................................
   1   -461.5033506 -0.461503E+03  0.103E-01    0.17       0.0  T
   2   -461.4465416  0.568091E-01  0.218E-01    0.25       1.0  T
   3   -461.4588354 -0.122939E-01  0.189E-01    0.22       1.0  T
   4   -461.5021688 -0.433334E-01  0.816E-02    0.17       1.0  T
   5   -461.5058568 -0.368793E-02  0.494E-02    0.16       1.0  T
   6   -461.5078474 -0.199061E-02  0.310E-02    0.16       1.0  T
   7   -461.5082748 -0.427406E-03  0.200E-02    0.16       1.0  T
   8   -461.5086990 -0.424175E-03  0.746E-03    0.16       1.0  T
   9   -461.5087767 -0.777680E-04  0.316E-03    0.16       2.0  T
  10   -461.5087929 -0.161266E-04  0.814E-04    0.16       7.6  T
  11   -461.5087930 -0.870849E-07  0.484E-04    0.16      12.9  T
  12   -461.5087932 -0.251098E-06  0.185E-04    0.16      33.6  T
  13   -461.5087932  0.496295E-07  0.218E-04    0.16      28.6  T
  14   -461.5087932 -0.654285E-07  0.667E-05    0.16      93.3  T
     SCC iter.                  ...        0 min,  3.093 sec
     gradient                   ...        0 min,  0.534 sec
 * total energy  :  -452.7957128 Eh     change       -0.5467553E+00 Eh
   gradient norm :     0.8667892 Eh/α   predicted    -0.5252184E+00 (  -3.94%)
   displ. norm   :     0.5970008 α      lambda       -0.3506216E+00
   maximum displ.:     0.1233305 α      in ANC's #458, #204, #219, ...

........................................................................
.............................. CYCLE    4 ..............................
........................................................................
   1   -461.5724596 -0.461572E+03  0.906E-02    0.33       0.0  T
   2   -461.5742096 -0.174997E-02  0.737E-02    0.31       1.0  T
   3   -461.5758102 -0.160065E-02  0.314E-02    0.31       1.0  T
   4   -461.5750858  0.724439E-03  0.361E-02    0.32       1.0  T
   5   -461.5751067 -0.209389E-04  0.315E-02    0.32       1.0  T
   6   -461.5759749 -0.868233E-03  0.142E-02    0.31       1.0  T
   7   -461.5761880 -0.213018E-03  0.388E-03    0.31       1.6  T
   8   -461.5762010 -0.130221E-04  0.108E-03    0.31       5.8  T
   9   -461.5762016 -0.629969E-06  0.553E-04    0.31      11.3  T
  10   -461.5762018 -0.153438E-06  0.270E-04    0.31      23.0  T
  11   -461.5762018 -0.479548E-07  0.912E-05    0.31      68.3  T
  12   -461.5762018 -0.585180E-08  0.296E-05    0.31     210.0  T
     SCC iter.                  ...        0 min,  2.665 sec
     gradient                   ...        0 min,  0.517 sec
 * total energy  :  -453.0578173 Eh     change       -0.2621046E+00 Eh
   gradient norm :     0.4892430 Eh/α   predicted    -0.2377930E+00 (  -9.28%)
   displ. norm   :     0.7060699 α      lambda       -0.1963480E+00
   maximum displ.:     0.2013161 α      in ANC's #204, #208, #219, ...

........................................................................
.............................. CYCLE    5 ..............................
........................................................................
   1   -461.5909632 -0.461591E+03  0.710E-02    0.49       0.0  T
   2   -461.5922102 -0.124699E-02  0.641E-02    0.47       1.0  T
   3   -461.5934328 -0.122259E-02  0.235E-02    0.47       1.0  T
   4   -461.5931214  0.311335E-03  0.243E-02    0.48       1.0  T
   5   -461.5933907 -0.269229E-03  0.111E-02    0.48       1.0  T
   6   -461.5934936 -0.102980E-03  0.319E-03    0.48       2.0  T
   7   -461.5935012 -0.758234E-05  0.110E-03    0.48       5.7  T
   8   -461.5935019 -0.700678E-06  0.517E-04    0.48      12.0  T
   9   -461.5935021 -0.150343E-06  0.259E-04    0.48      24.0  T
  10   -461.5935021 -0.488565E-07  0.126E-04    0.48      49.5  T
  11   -461.5935021 -0.126451E-07  0.411E-05    0.48     151.4  T
     SCC iter.                  ...        0 min,  2.400 sec
     gradient                   ...        0 min,  0.513 sec
 * total energy  :  -453.2116714 Eh     change       -0.1538541E+00 Eh
   gradient norm :     0.2756982 Eh/α   predicted    -0.1471170E+00 (  -4.38%)
   displ. norm   :     0.8097482 α      lambda       -0.1313891E+00
   maximum displ.:     0.2475373 α      in ANC's #204, #208, #219, ...

........................................................................
.............................. CYCLE    6 ..............................
........................................................................
   1   -461.5880633 -0.461588E+03  0.568E-02    0.58       0.0  T
   2   -461.5885721 -0.508819E-03  0.620E-02    0.58       1.0  T
   3   -461.5894991 -0.926959E-03  0.259E-02    0.58       1.0  T
   4   -461.5892305  0.268524E-03  0.220E-02    0.58       1.0  T
   5   -461.5894857 -0.255114E-03  0.648E-03    0.58       1.0  T
   6   -461.5895231 -0.374582E-04  0.227E-03    0.58       2.7  T
   7   -461.5895282 -0.505279E-05  0.758E-04    0.58       8.2  T
   8   -461.5895286 -0.404728E-06  0.295E-04    0.58      21.1  T
   9   -461.5895286 -0.403383E-07  0.135E-04    0.58      46.0  T
  10   -461.5895286 -0.467480E-08  0.615E-05    0.58     101.2  T
     SCC iter.                  ...        0 min,  2.180 sec
     gradient                   ...        0 min,  0.526 sec
 * total energy  :  -453.3240920 Eh     change       -0.1124206E+00 Eh
   gradient norm :     0.2158479 Eh/α   predicted    -0.1087702E+00 (  -3.25%)
   displ. norm   :     0.8549997 α      lambda       -0.1091524E+00
   maximum displ.:     0.2461671 α      in ANC's #204, #154, #208, ...

........................................................................
.............................. CYCLE    7 ..............................
........................................................................
   1   -461.6064360 -0.461606E+03  0.599E-02    0.66       0.0  T
   2   -461.6067852 -0.349212E-03  0.621E-02    0.66       1.0  T
   3   -461.6075062 -0.721019E-03  0.275E-02    0.66       1.0  T
   4   -461.6071681  0.338122E-03  0.241E-02    0.66       1.0  T
   5   -461.6075015 -0.333456E-03  0.552E-03    0.66       1.1  T
   6   -461.6075246 -0.230991E-04  0.189E-03    0.66       3.3  T
   7   -461.6075278 -0.322451E-05  0.683E-04    0.66       9.1  T
   8   -461.6075282 -0.386277E-06  0.224E-04    0.66      27.8  T
   9   -461.6075283 -0.261312E-07  0.110E-04    0.66      56.8  T
  10   -461.6075283 -0.407562E-08  0.517E-05    0.66     120.4  T
     SCC iter.                  ...        0 min,  2.196 sec
     gradient                   ...        0 min,  0.526 sec
 * total energy  :  -453.4147522 Eh     change       -0.9066018E-01 Eh
   gradient norm :     0.1353251 Eh/α   predicted    -0.9447267E-01 (   4.21%)
   displ. norm   :     0.8292886 α      lambda       -0.7603229E-01
   maximum displ.:     0.2452311 α      in ANC's #154, #204, #208, ...

........................................................................
.............................. CYCLE    8 ..............................
........................................................................
   1   -461.6205080 -0.461621E+03  0.465E-02    0.68       0.0  T
   2   -461.6205530 -0.449800E-04  0.488E-02    0.68       1.0  T
   3   -461.6210714 -0.518437E-03  0.209E-02    0.68       1.0  T
   4   -461.6208039  0.267541E-03  0.205E-02    0.68       1.0  T
   5   -461.6210765 -0.272660E-03  0.412E-03    0.68       1.5  T
   6   -461.6210850 -0.846584E-05  0.116E-03    0.68       5.4  T
   7   -461.6210861 -0.115340E-05  0.505E-04    0.68      12.3  T
   8   -461.6210864 -0.247175E-06  0.119E-04    0.68      52.2  T
   9   -461.6210864 -0.587164E-08  0.641E-05    0.68      97.1  T
     SCC iter.                  ...        0 min,  1.974 sec
     gradient                   ...        0 min,  0.522 sec
 * total energy  :  -453.4733163 Eh     change       -0.5856414E-01 Eh
   gradient norm :     0.1155422 Eh/α   predicted    -0.6416076E-01 (   9.56%)
   displ. norm   :     0.7599650 α      lambda       -0.4867082E-01
   maximum displ.:     0.2395031 α      in ANC's #154, #81, #204, ...

........................................................................
.............................. CYCLE    9 ..............................
........................................................................
   1   -461.6802144 -0.461680E+03  0.269E-02    0.70       0.0  T
   2   -461.6802468 -0.324136E-04  0.215E-02    0.70       1.0  T
   3   -461.6803964 -0.149585E-03  0.908E-03    0.70       1.0  T
   4   -461.6803875  0.885974E-05  0.904E-03    0.70       1.0  T
   5   -461.6804294 -0.418172E-04  0.220E-03    0.70       2.8  T
   6   -461.6804314 -0.202679E-05  0.778E-04    0.70       8.0  T
   7   -461.6804319 -0.503140E-06  0.306E-04    0.70      20.4  T
   8   -461.6804320 -0.713578E-07  0.117E-04    0.70      53.1  T
   9   -461.6804320 -0.595531E-08  0.490E-05    0.70     127.0  T
     SCC iter.                  ...        0 min,  1.972 sec
     gradient                   ...        0 min,  0.530 sec
 * total energy  :  -453.5132582 Eh     change       -0.3994187E-01 Eh
   gradient norm :     0.0782305 Eh/α   predicted    -0.3839025E-01 (  -3.88%)
   displ. norm   :     0.8138558 α      lambda       -0.3697393E-01
   maximum displ.:     0.2705742 α      in ANC's #81, #154, #75, ...

........................................................................
.............................. CYCLE   10 ..............................
........................................................................
   1   -461.7344861 -0.461734E+03  0.265E-02    0.73       0.0  T
   2   -461.7345259 -0.398152E-04  0.223E-02    0.73       1.0  T
   3   -461.7346924 -0.166405E-03  0.902E-03    0.73       1.0  T
   4   -461.7346709  0.214529E-04  0.926E-03    0.73       1.0  T
   5   -461.7347124 -0.415192E-04  0.261E-03    0.73       2.4  T
   6   -461.7347154 -0.299455E-05  0.803E-04    0.73       7.8  T
   7   -461.7347160 -0.571092E-06  0.287E-04    0.73      21.7  T
   8   -461.7347160 -0.634997E-07  0.105E-04    0.73      59.3  T
   9   -461.7347161 -0.362638E-08  0.541E-05    0.73     115.0  T
     SCC iter.                  ...        0 min,  1.975 sec
     gradient                   ...        0 min,  0.529 sec
 * total energy  :  -453.5430793 Eh     change       -0.2982113E-01 Eh
   gradient norm :     0.0623356 Eh/α   predicted    -0.3073201E-01 (   3.05%)
   displ. norm   :     0.8256688 α      lambda       -0.2800470E-01
   maximum displ.:     0.2716397 α      in ANC's #81, #83, #154, ...

........................................................................
.............................. CYCLE   11 ..............................
........................................................................
   1   -461.7790585 -0.461779E+03  0.256E-02    0.76       0.0  T
   2   -461.7791073 -0.487774E-04  0.231E-02    0.76       1.0  T
   3   -461.7792537 -0.146418E-03  0.857E-03    0.76       1.0  T
   4   -461.7792167  0.369950E-04  0.897E-03    0.76       1.0  T
   5   -461.7792594 -0.426392E-04  0.222E-03    0.76       2.8  T
   6   -461.7792614 -0.206156E-05  0.579E-04    0.76      10.8  T
   7   -461.7792617 -0.223510E-06  0.236E-04    0.76      26.3  T
   8   -461.7792617 -0.506884E-07  0.811E-05    0.76      76.7  T
   9   -461.7792617 -0.281477E-08  0.385E-05    0.76     161.6  T
     SCC iter.                  ...        0 min,  1.976 sec
     gradient                   ...        0 min,  0.533 sec
 * total energy  :  -453.5645067 Eh     change       -0.2142741E-01 Eh
   gradient norm :     0.0537527 Eh/α   predicted    -0.2354818E-01 (   9.90%)
   displ. norm   :     0.8130856 α      lambda       -0.2156827E-01
   maximum displ.:     0.2947868 α      in ANC's #81, #75, #77, ...

........................................................................
.............................. CYCLE   12 ..............................
........................................................................
   1   -461.8175648 -0.461818E+03  0.199E-02    0.77       0.0  T
   2   -461.8176052 -0.403886E-04  0.170E-02    0.77       1.0  T
   3   -461.8176681 -0.628729E-04  0.665E-03    0.77       1.0  T
   4   -461.8176470  0.210392E-04  0.674E-03    0.77       1.0  T
   5   -461.8176710 -0.239489E-04  0.160E-03    0.77       3.9  T
   6   -461.8176722 -0.119945E-05  0.432E-04    0.77      14.4  T
   7   -461.8176723 -0.109710E-06  0.184E-04    0.77      33.8  T
   8   -461.8176723 -0.296153E-07  0.618E-05    0.77     100.8  T
     SCC iter.                  ...        0 min,  1.758 sec
     gradient                   ...        0 min,  0.527 sec
 * total energy  :  -453.5811194 Eh     change       -0.1661271E-01 Eh
   gradient norm :     0.0483788 Eh/α   predicted    -0.1791363E-01 (   7.83%)
   displ. norm   :     0.8167293 α      lambda       -0.1645203E-01
   maximum displ.:     0.3183003 α      in ANC's #81, #75, #83, ...

........................................................................
.............................. CYCLE   13 ..............................
........................................................................
   1   -461.8506896 -0.461851E+03  0.119E-02    0.78       0.0  T
   2   -461.8507074 -0.177164E-04  0.748E-03    0.78       1.0  T
   3   -461.8507159 -0.857513E-05  0.396E-03    0.78       1.6  T
   4   -461.8507151  0.845107E-06  0.289E-03    0.78       2.2  T
   5   -461.8507182 -0.310145E-05  0.108E-03    0.78       5.7  T
   6   -461.8507193 -0.109670E-05  0.285E-04    0.78      21.9  T
   7   -461.8507194 -0.635501E-07  0.105E-04    0.78      59.5  T
   8   -461.8507194 -0.649385E-08  0.440E-05    0.78     141.5  T
     SCC iter.                  ...        0 min,  1.754 sec
     gradient                   ...        0 min,  0.532 sec
 * total energy  :  -453.5941798 Eh     change       -0.1306042E-01 Eh
   gradient norm :     0.0417910 Eh/α   predicted    -0.1371316E-01 (   5.00%)
   displ. norm   :     0.8566670 α      lambda       -0.1503654E-01
   maximum displ.:     0.2484954 α      in ANC's #81, #75, #84, ...

........................................................................
.............................. CYCLE   14 ..............................
........................................................................
   1   -461.8773896 -0.461877E+03  0.127E-02    0.78       0.0  T
   2   -461.8774064 -0.167619E-04  0.109E-02    0.78       1.0  T
   3   -461.8774396 -0.332398E-04  0.425E-03    0.78       1.5  T
   4   -461.8774328  0.681720E-05  0.424E-03    0.78       1.5  T
   5   -461.8774413 -0.853473E-05  0.125E-03    0.78       5.0  T
   6   -461.8774421 -0.778679E-06  0.378E-04    0.78      16.5  T
   7   -461.8774422 -0.112742E-06  0.134E-04    0.78      46.3  T
   8   -461.8774422 -0.140914E-07  0.442E-05    0.78     140.7  T
     SCC iter.                  ...        0 min,  1.758 sec
     gradient                   ...        0 min,  0.528 sec
 * total energy  :  -453.6033650 Eh     change       -0.9185104E-02 Eh
   gradient norm :     0.0729952 Eh/α   predicted    -0.1303579E-01 (  41.92%)
   displ. norm   :     0.7149343 α      lambda       -0.1303637E-01
   maximum displ.:     0.2752243 α      in ANC's #81, #75, #83, ...

........................................................................
.............................. CYCLE   15 ..............................
........................................................................
   1   -461.9068023 -0.461907E+03  0.108E-02    0.79       0.0  T
   2   -461.9068119 -0.966437E-05  0.822E-03    0.79       1.0  T
   3   -461.9068269 -0.149769E-04  0.427E-03    0.79       1.5  T
   4   -461.9068227  0.425414E-05  0.359E-03    0.79       1.7  T
   5   -461.9068315 -0.886006E-05  0.852E-04    0.79       7.3  T
   6   -461.9068318 -0.230515E-06  0.380E-04    0.79      16.4  T
   7   -461.9068319 -0.137080E-06  0.904E-05    0.79      68.9  T
   8   -461.9068319 -0.494197E-08  0.305E-05    0.79     204.3  T
     SCC iter.                  ...        0 min,  1.759 sec
     gradient                   ...        0 min,  0.534 sec
 * total energy  :  -453.6129670 Eh     change       -0.9602009E-02 Eh
   gradient norm :     0.0380927 Eh/α   predicted    -0.9849837E-02 (   2.58%)
   displ. norm   :     0.7684281 α      lambda       -0.8793481E-02
   maximum displ.:     0.2569721 α      in ANC's #81, #75, #61, ...

........................................................................
.............................. CYCLE   16 ..............................
........................................................................
   1   -461.9346244 -0.461935E+03  0.814E-03    0.79       0.0  T
   2   -461.9346182  0.621994E-05  0.738E-03    0.79       1.0  T
   3   -461.9346449 -0.267238E-04  0.285E-03    0.79       2.2  T
   4   -461.9346438  0.107599E-05  0.259E-03    0.79       2.4  T
   5   -461.9346471 -0.324517E-05  0.738E-04    0.79       8.4  T
   6   -461.9346475 -0.394989E-06  0.265E-04    0.79      23.5  T
   7   -461.9346475 -0.522192E-07  0.641E-05    0.79      97.2  T
   8   -461.9346475 -0.216477E-08  0.250E-05    0.79     249.1  T
     SCC iter.                  ...        0 min,  1.758 sec
     gradient                   ...        0 min,  0.529 sec
 * total energy  :  -453.6199814 Eh     change       -0.7014423E-02 Eh
   gradient norm :     0.0368206 Eh/α   predicted    -0.6992942E-02 (  -0.31%)
   displ. norm   :     0.8264892 α      lambda       -0.8248287E-02
   maximum displ.:     0.2283583 α      in ANC's #75, #81, #61, ...

........................................................................
.............................. CYCLE   17 ..............................
........................................................................
   1   -461.9607390 -0.461961E+03  0.119E-02    0.80       0.0  T
   2   -461.9607319  0.709367E-05  0.113E-02    0.80       1.0  T
   3   -461.9607879 -0.559572E-04  0.364E-03    0.80       1.7  T
   4   -461.9607818  0.607917E-05  0.368E-03    0.80       1.7  T
   5   -461.9607898 -0.803935E-05  0.850E-04    0.80       7.3  T
   6   -461.9607902 -0.357187E-06  0.334E-04    0.80      18.6  T
   7   -461.9607903 -0.826132E-07  0.997E-05    0.80      62.4  T
   8   -461.9607903 -0.608657E-08  0.300E-05    0.80     207.3  T
     SCC iter.                  ...        0 min,  1.754 sec
     gradient                   ...        0 min,  0.532 sec
 * total energy  :  -453.6253643 Eh     change       -0.5382938E-02 Eh
   gradient norm :     0.0342968 Eh/α   predicted    -0.6941283E-02 (  28.95%)
   displ. norm   :     0.7254803 α      lambda       -0.7136232E-02
   maximum displ.:     0.2110488 α      in ANC's #61, #75, #81, ...

........................................................................
.............................. CYCLE   18 ..............................
........................................................................
   1   -461.9798947 -0.461980E+03  0.871E-03    0.81       0.0  T
   2   -461.9798953 -0.568317E-06  0.733E-03    0.81       1.0  T
   3   -461.9799238 -0.285326E-04  0.291E-03    0.81       2.1  T
   4   -461.9799242 -0.401061E-06  0.251E-03    0.81       2.5  T
   5   -461.9799271 -0.285792E-05  0.737E-04    0.81       8.5  T
   6   -461.9799274 -0.326263E-06  0.379E-04    0.81      16.4  T
   7   -461.9799275 -0.113959E-06  0.604E-05    0.81     103.1  T
   8   -461.9799275 -0.142353E-08  0.302E-05    0.81     206.5  T
     SCC iter.                  ...        0 min,  1.760 sec
     gradient                   ...        0 min,  0.535 sec
 * total energy  :  -453.6298281 Eh     change       -0.4463778E-02 Eh
   gradient norm :     0.0349863 Eh/α   predicted    -0.5446102E-02 (  22.01%)
   displ. norm   :     0.6839753 α      lambda       -0.5124866E-02
   maximum displ.:     0.2153628 α      in ANC's #61, #75, #50, ...

........................................................................
.............................. CYCLE   19 ..............................
........................................................................
   1   -461.9952518 -0.461995E+03  0.767E-03    0.81       0.0  T
   2   -461.9952524 -0.597424E-06  0.657E-03    0.81       1.0  T
   3   -461.9952712 -0.187967E-04  0.251E-03    0.81       2.5  T
   4   -461.9952700  0.122270E-05  0.248E-03    0.81       2.5  T
   5   -461.9952733 -0.326997E-05  0.657E-04    0.81       9.5  T
   6   -461.9952735 -0.223689E-06  0.235E-04    0.81      26.5  T
   7   -461.9952735 -0.361175E-07  0.507E-05    0.81     122.9  T
   8   -461.9952735 -0.143450E-08  0.244E-05    0.81     255.3  T
     SCC iter.                  ...        0 min,  1.762 sec
     gradient                   ...        0 min,  0.536 sec
 * total energy  :  -453.6325434 Eh     change       -0.2715271E-02 Eh
   gradient norm :     0.0271852 Eh/α   predicted    -0.3761201E-02 (  38.52%)
   displ. norm   :     0.6254621 α      lambda       -0.4628368E-02
   maximum displ.:     0.2096239 α      in ANC's #61, #71, #48, ...

........................................................................
.............................. CYCLE   20 ..............................
........................................................................
   1   -462.0096648 -0.462010E+03  0.730E-03    0.81       0.0  T
   2   -462.0096632  0.164751E-05  0.748E-03    0.81       1.0  T
   3   -462.0096840 -0.208550E-04  0.288E-03    0.81       2.2  T
   4   -462.0096807  0.336233E-05  0.248E-03    0.81       2.5  T
   5   -462.0096841 -0.341622E-05  0.691E-04    0.81       9.0  T
   6   -462.0096844 -0.356408E-06  0.222E-04    0.81      28.1  T
   7   -462.0096845 -0.376195E-07  0.632E-05    0.81      98.6  T
   8   -462.0096845 -0.305192E-08  0.149E-05    0.81     417.5  T
     SCC iter.                  ...        0 min,  1.759 sec
     gradient                   ...        0 min,  0.533 sec
 * total energy  :  -453.6350394 Eh     change       -0.2496055E-02 Eh
   gradient norm :     0.0416745 Eh/α   predicted    -0.3219505E-02 (  28.98%)
   displ. norm   :     0.5674588 α      lambda       -0.3470728E-02
   maximum displ.:     0.1970234 α      in ANC's #61, #50, #62, ...
 * RMSD in coord.:     0.6551472 α      energy gain  -0.4190852E+01 Eh

generating ANC from model Hessian ...
Using Lindh-Hessian (1995)
 Shifting diagonal of input Hessian by    1.0001247081721768E-002
 Lowest  eigenvalues of input Hessian
    0.010000    0.010000    0.010001    0.000000    0.000000    0.000000
    0.000000    0.000000    0.000000    0.010002    0.010002    0.010003
    0.010004    0.010006    0.010009    0.010014    0.010017    0.010020
 Highest eigenvalues
    2.819201    2.823705    2.836976    3.037117    3.039150    3.067691


........................................................................
.............................. CYCLE   21 ..............................
........................................................................
   1   -462.0194306 -0.462019E+03  0.848E-03    0.82       0.0  T
   2   -462.0194362 -0.565904E-05  0.764E-03    0.82       1.0  T
   3   -462.0194535 -0.172949E-04  0.263E-03    0.82       2.4  T
   4   -462.0194504  0.309811E-05  0.260E-03    0.82       2.4  T
   5   -462.0194541 -0.367532E-05  0.669E-04    0.82       9.3  T
   6   -462.0194543 -0.167136E-06  0.195E-04    0.82      32.0  T
   7   -462.0194543 -0.232587E-07  0.816E-05    0.82      76.3  T
     SCC iter.                  ...        0 min,  1.535 sec
     gradient                   ...        0 min,  0.533 sec
 * total energy  :  -453.6368051 Eh     change       -0.1765633E-02 Eh
   gradient norm :     0.0279580 Eh/α   predicted     0.0000000E+00 (-100.00%)
   displ. norm   :     0.3348006 α      lambda       -0.2530152E-02
   maximum displ.:     0.1113693 α      in ANC's #68, #61, #62, ...

........................................................................
.............................. CYCLE   22 ..............................
........................................................................
   1   -462.0203178 -0.462020E+03  0.549E-03    0.81       0.0  T
   2   -462.0203185 -0.733727E-06  0.548E-03    0.81       1.1  T
   3   -462.0203266 -0.808310E-05  0.232E-03    0.81       2.7  T
   4   -462.0203250  0.161024E-05  0.174E-03    0.81       3.6  T
   5   -462.0203266 -0.165967E-05  0.420E-04    0.81      14.8  T
   6   -462.0203268 -0.110539E-06  0.961E-05    0.81      64.8  T
   7   -462.0203268 -0.565223E-08  0.345E-05    0.81     180.3  T
     SCC iter.                  ...        0 min,  1.544 sec
     gradient                   ...        0 min,  0.529 sec
 * total energy  :  -453.6377550 Eh     change       -0.9499096E-03 Eh
   gradient norm :     0.0153614 Eh/α   predicted    -0.1408002E-02 (  48.22%)
   displ. norm   :     0.4634456 α      lambda       -0.3231647E-02
   maximum displ.:     0.1806881 α      in ANC's #61, #58, #72, ...

........................................................................
.............................. CYCLE   23 ..............................
........................................................................
   1   -462.0292165 -0.462029E+03  0.693E-03    0.81       0.0  T
   2   -462.0292192 -0.269032E-05  0.715E-03    0.81       1.0  T
   3   -462.0292327 -0.135328E-04  0.288E-03    0.81       2.2  T
   4   -462.0292292  0.350538E-05  0.240E-03    0.81       2.6  T
   5   -462.0292328 -0.352503E-05  0.569E-04    0.81      10.9  T
   6   -462.0292330 -0.220120E-06  0.138E-04    0.81      45.1  T
   7   -462.0292330 -0.126070E-07  0.543E-05    0.81     114.6  T
     SCC iter.                  ...        0 min,  1.577 sec
     gradient                   ...        0 min,  0.531 sec
 * total energy  :  -453.6395865 Eh     change       -0.1831536E-02 Eh
   gradient norm :     0.0226623 Eh/α   predicted    -0.1962873E-02 (   7.17%)
   displ. norm   :     0.4943821 α      lambda       -0.2134204E-02
   maximum displ.:     0.2067070 α      in ANC's #61, #58, #42, ...

........................................................................
.............................. CYCLE   24 ..............................
........................................................................
   1   -462.0238944 -0.462024E+03  0.210E-03    0.81       0.0  T
   2   -462.0238948 -0.436025E-06  0.157E-03    0.81       4.0  T
   3   -462.0238954 -0.620841E-06  0.792E-04    0.81       7.9  T
   4   -462.0238955 -0.251027E-07  0.540E-04    0.81      11.5  T
   5   -462.0238956 -0.937967E-07  0.200E-04    0.81      31.2  T
   6   -462.0238956 -0.260049E-07  0.638E-05    0.81      97.6  T
     SCC iter.                  ...        0 min,  1.319 sec
     gradient                   ...        0 min,  0.531 sec
 * total energy  :  -453.6409698 Eh     change       -0.1383275E-02 Eh
   gradient norm :     0.0200588 Eh/α   predicted    -0.1327917E-02 (  -4.00%)
   displ. norm   :     0.6471267 α      lambda       -0.2691239E-02
   maximum displ.:     0.2914628 α      in ANC's #61, #58, #62, ...

........................................................................
.............................. CYCLE   25 ..............................
........................................................................
   1   -462.0128240 -0.462013E+03  0.447E-03    0.81       0.0  T
   2   -462.0128253 -0.132424E-05  0.430E-03    0.81       1.4  T
   3   -462.0128304 -0.509416E-05  0.183E-03    0.81       3.4  T
   4   -462.0128292  0.115933E-05  0.138E-03    0.81       4.5  T
   5   -462.0128303 -0.110783E-05  0.447E-04    0.81      13.9  T
   6   -462.0128305 -0.186256E-06  0.133E-04    0.81      46.9  T
   7   -462.0128305 -0.150128E-07  0.374E-05    0.81     166.4  T
     SCC iter.                  ...        0 min,  1.519 sec
     gradient                   ...        0 min,  0.521 sec
 * total energy  :  -453.6429748 Eh     change       -0.2004982E-02 Eh
   gradient norm :     0.0211324 Eh/α   predicted    -0.1909131E-02 (  -4.78%)
   displ. norm   :     0.7242780 α      lambda       -0.2446590E-02
   maximum displ.:     0.3279108 α      in ANC's #61, #58, #62, ...

........................................................................
.............................. CYCLE   26 ..............................
........................................................................
   1   -462.0056670 -0.462006E+03  0.364E-03    0.81       0.0  T
   2   -462.0056683 -0.123153E-05  0.313E-03    0.81       2.0  T
   3   -462.0056710 -0.275413E-05  0.122E-03    0.81       5.1  T
   4   -462.0056705  0.483405E-06  0.102E-03    0.81       6.1  T
   5   -462.0056711 -0.532225E-06  0.345E-04    0.81      18.0  T
   6   -462.0056711 -0.752336E-07  0.972E-05    0.81      64.0  T
   7   -462.0056712 -0.674157E-08  0.286E-05    0.81     217.5  T
     SCC iter.                  ...        0 min,  1.520 sec
     gradient                   ...        0 min,  0.532 sec
 * total energy  :  -453.6445936 Eh     change       -0.1618884E-02 Eh
   gradient norm :     0.0195554 Eh/α   predicted    -0.1865008E-02 (  15.20%)
   displ. norm   :     0.6944862 α      lambda       -0.2470570E-02
   maximum displ.:     0.3206778 α      in ANC's #61, #62, #58, ...

........................................................................
.............................. CYCLE   27 ..............................
........................................................................
   1   -462.0084791 -0.462008E+03  0.341E-03    0.82       0.0  T
   2   -462.0084805 -0.147490E-05  0.243E-03    0.82       2.6  T
   3   -462.0084814 -0.871059E-06  0.119E-03    0.82       5.2  T
   4   -462.0084811  0.274211E-06  0.855E-04    0.82       7.3  T
   5   -462.0084815 -0.330237E-06  0.314E-04    0.82      19.8  T
   6   -462.0084815 -0.839185E-07  0.838E-05    0.82      74.3  T
   7   -462.0084815 -0.562898E-08  0.290E-05    0.82     214.6  T
     SCC iter.                  ...        0 min,  1.541 sec
     gradient                   ...        0 min,  0.531 sec
 * total energy  :  -453.6463303 Eh     change       -0.1736605E-02 Eh
   gradient norm :     0.0132443 Eh/α   predicted    -0.1831080E-02 (   5.44%)
   displ. norm   :     0.7123419 α      lambda       -0.2037022E-02
   maximum displ.:     0.3335006 α      in ANC's #61, #58, #62, ...

........................................................................
.............................. CYCLE   28 ..............................
........................................................................
   1   -462.0112514 -0.462011E+03  0.282E-03    0.82       0.0  T
   2   -462.0112523 -0.912945E-06  0.203E-03    0.82       3.1  T
   3   -462.0112530 -0.737805E-06  0.103E-03    0.82       6.1  T
   4   -462.0112528  0.252131E-06  0.829E-04    0.82       7.5  T
   5   -462.0112532 -0.408199E-06  0.245E-04    0.82      25.4  T
   6   -462.0112532 -0.381876E-07  0.739E-05    0.82      84.2  T
   7   -462.0112532 -0.345312E-08  0.251E-05    0.82     247.7  T
     SCC iter.                  ...        0 min,  1.541 sec
     gradient                   ...        0 min,  0.524 sec
 * total energy  :  -453.6476438 Eh     change       -0.1313529E-02 Eh
   gradient norm :     0.0167155 Eh/α   predicted    -0.1535341E-02 (  16.89%)
   displ. norm   :     0.6852551 α      lambda       -0.2005568E-02
   maximum displ.:     0.3235473 α      in ANC's #61, #58, #62, ...

........................................................................
.............................. CYCLE   29 ..............................
........................................................................
   1   -462.0143056 -0.462014E+03  0.291E-03    0.82       0.0  T
   2   -462.0143069 -0.127261E-05  0.191E-03    0.82       3.3  T
   3   -462.0143076 -0.689898E-06  0.989E-04    0.82       6.3  T
   4   -462.0143075  0.110549E-06  0.753E-04    0.82       8.3  T
   5   -462.0143077 -0.265424E-06  0.264E-04    0.82      23.6  T
   6   -462.0143078 -0.388974E-07  0.868E-05    0.82      71.8  T
   7   -462.0143078 -0.562710E-08  0.276E-05    0.82     225.8  T
     SCC iter.                  ...        0 min,  1.542 sec
     gradient                   ...        0 min,  0.530 sec
 * total energy  :  -453.6492290 Eh     change       -0.1585185E-02 Eh
   gradient norm :     0.0091419 Eh/α   predicted    -0.1473668E-02 (  -7.03%)
   displ. norm   :     0.7669638 α      lambda       -0.1691080E-02
   maximum displ.:     0.3681095 α      in ANC's #61, #62, #58, ...

........................................................................
.............................. CYCLE   30 ..............................
........................................................................
   1   -462.0156556 -0.462016E+03  0.283E-03    0.82       0.0  T
   2   -462.0156566 -0.964362E-06  0.212E-03    0.82       2.9  T
   3   -462.0156585 -0.189248E-05  0.869E-04    0.82       7.2  T
   4   -462.0156586 -0.114158E-06  0.663E-04    0.82       9.4  T
   5   -462.0156588 -0.152534E-06  0.205E-04    0.82      30.4  T
   6   -462.0156588 -0.236958E-07  0.764E-05    0.82      81.5  T
   7   -462.0156588 -0.320563E-08  0.310E-05    0.82     201.0  T
     SCC iter.                  ...        0 min,  1.549 sec
     gradient                   ...        0 min,  0.534 sec
 * total energy  :  -453.6504614 Eh     change       -0.1232430E-02 Eh
   gradient norm :     0.0114872 Eh/α   predicted    -0.1342923E-02 (   8.97%)
   displ. norm   :     0.7520387 α      lambda       -0.1654326E-02
   maximum displ.:     0.3620550 α      in ANC's #61, #62, #58, ...

........................................................................
.............................. CYCLE   31 ..............................
........................................................................
   1   -462.0169934 -0.462017E+03  0.261E-03    0.82       0.0  T
   2   -462.0169937 -0.279601E-06  0.213E-03    0.82       2.9  T
   3   -462.0169962 -0.251828E-05  0.840E-04    0.82       7.4  T
   4   -462.0169964 -0.153119E-06  0.584E-04    0.82      10.7  T
   5   -462.0169965 -0.101387E-06  0.218E-04    0.82      28.5  T
   6   -462.0169965 -0.264024E-07  0.804E-05    0.82      77.4  T
   7   -462.0169965 -0.427548E-08  0.289E-05    0.82     215.6  T
     SCC iter.                  ...        0 min,  1.556 sec
     gradient                   ...        0 min,  0.531 sec
 * total energy  :  -453.6516314 Eh     change       -0.1170040E-02 Eh
   gradient norm :     0.0120375 Eh/α   predicted    -0.1294977E-02 (  10.68%)
   displ. norm   :     0.7123551 α      lambda       -0.1401141E-02
   maximum displ.:     0.3330429 α      in ANC's #61, #62, #58, ...

........................................................................
.............................. CYCLE   32 ..............................
........................................................................
   1   -462.0115344 -0.462012E+03  0.243E-03    0.82       0.0  T
   2   -462.0115349 -0.581710E-06  0.178E-03    0.82       3.5  T
   3   -462.0115358 -0.859173E-06  0.988E-04    0.82       6.3  T
   4   -462.0115358 -0.352577E-08  0.668E-04    0.82       9.3  T
   5   -462.0115360 -0.240865E-06  0.194E-04    0.82      32.1  T
   6   -462.0115361 -0.124843E-07  0.400E-05    0.82     155.6  T
     SCC iter.                  ...        0 min,  1.335 sec
     gradient                   ...        0 min,  0.534 sec
 * total energy  :  -453.6524890 Eh     change       -0.8575879E-03 Eh
   gradient norm :     0.0129841 Eh/α   predicted    -0.1056079E-02 (  23.15%)
   displ. norm   :     0.6362435 α      lambda       -0.1124989E-02
   maximum displ.:     0.3296202 α      in ANC's #62, #61, #58, ...

........................................................................
.............................. CYCLE   33 ..............................
........................................................................
   1   -462.0087259 -0.462009E+03  0.205E-03    0.82       0.0  T
   2   -462.0087263 -0.399510E-06  0.130E-03    0.82       4.8  T
   3   -462.0087266 -0.265048E-06  0.768E-04    0.82       8.1  T
   4   -462.0087266 -0.165830E-07  0.503E-04    0.82      12.4  T
   5   -462.0087267 -0.146954E-06  0.155E-04    0.82      40.2  T
   6   -462.0087267 -0.151875E-07  0.416E-05    0.82     149.8  T
     SCC iter.                  ...        0 min,  1.334 sec
     gradient                   ...        0 min,  0.530 sec
 * total energy  :  -453.6532567 Eh     change       -0.7676810E-03 Eh
   gradient norm :     0.0096166 Eh/α   predicted    -0.7902007E-03 (   2.93%)
   displ. norm   :     0.6125306 α      lambda       -0.9966397E-03
   maximum displ.:     0.3141701 α      in ANC's #62, #61, #58, ...

........................................................................
.............................. CYCLE   34 ..............................
........................................................................
   1   -462.0106868 -0.462011E+03  0.371E-03    0.82       0.0  T
   2   -462.0106880 -0.119129E-05  0.182E-03    0.82       3.4  T
   3   -462.0106881 -0.131341E-06  0.135E-03    0.82       4.6  T
   4   -462.0106881 -0.465652E-07  0.666E-04    0.82       9.3  T
   5   -462.0106884 -0.248590E-06  0.269E-04    0.82      23.2  T
   6   -462.0106884 -0.586067E-07  0.530E-05    0.82     117.5  T
   7   -462.0106884 -0.870671E-09  0.289E-05    0.82     215.6  T
     SCC iter.                  ...        0 min,  1.543 sec
     gradient                   ...        0 min,  0.531 sec
 * total energy  :  -453.6535039 Eh     change       -0.2471955E-03 Eh
   gradient norm :     0.0194215 Eh/α   predicted    -0.6852891E-03 ( 177.23%)
   displ. norm   :     0.3786143 α      lambda       -0.1033254E-02
   maximum displ.:     0.1839120 α      in ANC's #62, #61, #58, ...

........................................................................
.............................. CYCLE   35 ..............................
........................................................................
   1   -462.0161642 -0.462016E+03  0.398E-03    0.82       0.0  T
   2   -462.0161653 -0.110941E-05  0.193E-03    0.82       3.2  T
   3   -462.0161654 -0.149412E-06  0.147E-03    0.82       4.2  T
   4   -462.0161655 -0.511846E-07  0.684E-04    0.82       9.1  T
   5   -462.0161657 -0.210955E-06  0.270E-04    0.82      23.1  T
   6   -462.0161657 -0.511172E-07  0.555E-05    0.82     112.2  T
   7   -462.0161657 -0.151124E-08  0.348E-05    0.82     178.8  T
     SCC iter.                  ...        0 min,  1.547 sec
     gradient                   ...        0 min,  0.534 sec
 * total energy  :  -453.6540445 Eh     change       -0.5405560E-03 Eh
   gradient norm :     0.0099552 Eh/α   predicted    -0.5906883E-03 (   9.27%)
   displ. norm   :     0.3857937 α      lambda       -0.6659866E-03
   maximum displ.:     0.1585186 α      in ANC's #62, #61, #58, ...

........................................................................
.............................. CYCLE   36 ..............................
........................................................................
   1   -462.0057088 -0.462006E+03  0.325E-03    0.82       0.0  T
   2   -462.0057095 -0.725005E-06  0.197E-03    0.82       3.2  T
   3   -462.0057101 -0.628447E-06  0.129E-03    0.82       4.8  T
   4   -462.0057104 -0.293531E-06  0.746E-04    0.82       8.3  T
   5   -462.0057107 -0.238432E-06  0.213E-04    0.82      29.3  T
   6   -462.0057107 -0.205866E-07  0.827E-05    0.82      75.3  T
   7   -462.0057107 -0.548073E-08  0.267E-05    0.82     232.9  T
     SCC iter.                  ...        0 min,  1.556 sec
     gradient                   ...        0 min,  0.535 sec
 * total energy  :  -453.6539842 Eh     change        0.6023820E-04 Eh
   gradient norm :     0.0149094 Eh/α   predicted    -0.3825595E-03 (-735.08%)
   displ. norm   :     0.2256538 α      lambda       -0.8324994E-03
   maximum displ.:     0.1058181 α      in ANC's #62, #61, #22, ...

........................................................................
.............................. CYCLE   37 ..............................
........................................................................
   1   -462.0049662 -0.462005E+03  0.230E-03    0.82       0.0  T
   2   -462.0049665 -0.331616E-06  0.138E-03    0.82       4.5  T
   3   -462.0049668 -0.282677E-06  0.913E-04    0.82       6.8  T
   4   -462.0049669 -0.105362E-06  0.569E-04    0.82      10.9  T
   5   -462.0049671 -0.184032E-06  0.143E-04    0.82      43.4  T
   6   -462.0049671 -0.998187E-08  0.653E-05    0.82      95.4  T
     SCC iter.                  ...        0 min,  1.330 sec
     gradient                   ...        0 min,  0.539 sec
 * total energy  :  -453.6543969 Eh     change       -0.4126382E-03 Eh
   gradient norm :     0.0080999 Eh/α   predicted    -0.4374488E-03 (   6.01%)
   displ. norm   :     0.2519275 α      lambda       -0.4461246E-03
   maximum displ.:     0.1038253 α      in ANC's #62, #59, #16, ...

........................................................................
.............................. CYCLE   38 ..............................
........................................................................
   1   -462.0106574 -0.462011E+03  0.263E-03    0.82       0.0  T
   2   -462.0106579 -0.579563E-06  0.161E-03    0.82       3.9  T
   3   -462.0106580 -0.114047E-06  0.974E-04    0.82       6.4  T
   4   -462.0106580  0.437665E-07  0.630E-04    0.82       9.9  T
   5   -462.0106582 -0.213478E-06  0.174E-04    0.82      35.9  T
   6   -462.0106582 -0.203886E-07  0.427E-05    0.82     145.9  T
     SCC iter.                  ...        0 min,  1.331 sec
     gradient                   ...        0 min,  0.537 sec
 * total energy  :  -453.6543537 Eh     change        0.4315977E-04 Eh
   gradient norm :     0.0106707 Eh/α   predicted    -0.2372218E-03 (-649.64%)
   displ. norm   :     0.1629821 α      lambda       -0.5074809E-03
   maximum displ.:     0.0478283 α      in ANC's #22, #30, #62, ...

........................................................................
.............................. CYCLE   39 ..............................
........................................................................
   1   -462.0138330 -0.462014E+03  0.130E-03    0.82       0.0  T
   2   -462.0138332 -0.124204E-06  0.943E-04    0.82       6.6  T
   3   -462.0138334 -0.276052E-06  0.479E-04    0.82      13.0  T
   4   -462.0138334  0.909097E-09  0.338E-04    0.82      18.4  T
   5   -462.0138335 -0.632308E-07  0.941E-05    0.82      66.1  T
   6   -462.0138335 -0.441491E-08  0.346E-05    0.82     180.1  T
     SCC iter.                  ...        0 min,  1.325 sec
     gradient                   ...        0 min,  0.531 sec
 * total energy  :  -453.6546346 Eh     change       -0.2808792E-03 Eh
   gradient norm :     0.0050434 Eh/α   predicted    -0.2604867E-03 (  -7.26%)
   displ. norm   :     0.2336835 α      lambda       -0.2342925E-03
   maximum displ.:     0.0723165 α      in ANC's #24, #58, #62, ...

........................................................................
.............................. CYCLE   40 ..............................
........................................................................
   1   -461.9996480 -0.462000E+03  0.278E-03    0.83       0.0  T
   2   -461.9996484 -0.402577E-06  0.156E-03    0.83       4.0  T
   3   -461.9996485 -0.830751E-07  0.117E-03    0.83       5.3  T
   4   -461.9996490 -0.526639E-06  0.566E-04    0.83      11.0  T
   5   -461.9996492 -0.134499E-06  0.163E-04    0.83      38.1  T
   6   -461.9996492 -0.114842E-07  0.685E-05    0.83      90.9  T
     SCC iter.                  ...        0 min,  1.307 sec
     gradient                   ...        0 min,  0.522 sec
 * total energy  :  -453.6546893 Eh     change       -0.5477293E-04 Eh
   gradient norm :     0.0076384 Eh/α   predicted    -0.1235476E-03 ( 125.56%)
   displ. norm   :     0.2254094 α      lambda       -0.2712804E-03
   maximum displ.:     0.0789971 α      in ANC's #59, #22, #62, ...

........................................................................
.............................. CYCLE   41 ..............................
........................................................................
   1   -461.9998984 -0.462000E+03  0.179E-03    0.82       0.0  T
   2   -461.9998985 -0.811839E-07  0.109E-03    0.82       5.7  T
   3   -461.9998988 -0.329654E-06  0.791E-04    0.82       7.9  T
   4   -461.9998991 -0.292125E-06  0.370E-04    0.82      16.8  T
   5   -461.9998992 -0.283126E-07  0.834E-05    0.82      74.6  T
   6   -461.9998992 -0.281096E-08  0.346E-05    0.82     179.8  T
     SCC iter.                  ...        0 min,  1.298 sec
     gradient                   ...        0 min,  0.521 sec
 * total energy  :  -453.6547974 Eh     change       -0.1080519E-03 Eh
   gradient norm :     0.0079690 Eh/α   predicted    -0.1425346E-03 (  31.91%)
   displ. norm   :     0.2841994 α      lambda       -0.3087558E-03
   maximum displ.:     0.1083642 α      in ANC's #59, #61, #16, ...

........................................................................
.............................. CYCLE   42 ..............................
........................................................................
   1   -462.0129318 -0.462013E+03  0.293E-03    0.83       0.0  T
   2   -462.0129322 -0.459218E-06  0.152E-03    0.83       4.1  T
   3   -462.0129320  0.242597E-06  0.102E-03    0.83       6.1  T
   4   -462.0129321 -0.153988E-06  0.524E-04    0.83      11.9  T
   5   -462.0129323 -0.197980E-06  0.165E-04    0.83      37.7  T
   6   -462.0129323 -0.204414E-07  0.410E-05    0.83     151.8  T
     SCC iter.                  ...        0 min,  1.306 sec
     gradient                   ...        0 min,  0.521 sec
 * total energy  :  -453.6549292 Eh     change       -0.1317993E-03 Eh
   gradient norm :     0.0065808 Eh/α   predicted    -0.1668456E-03 (  26.59%)
   displ. norm   :     0.2606421 α      lambda       -0.2586040E-03
   maximum displ.:     0.0866671 α      in ANC's #59, #16, #22, ...
 * RMSD in coord.:     0.5585988 α      energy gain  -0.1988977E-01 Eh

generating ANC from model Hessian ...
Using Lindh-Hessian (1995)
 Shifting diagonal of input Hessian by    1.0003334565806633E-002
 Lowest  eigenvalues of input Hessian
    0.010000    0.010001    0.010002    0.010003    0.000000    0.000000
    0.000000    0.000000    0.000000    0.000000    0.010004    0.010004
    0.010005    0.010005    0.010007    0.010015    0.010019    0.010024
 Highest eigenvalues
    2.806413    2.807656    2.815642    3.031850    3.031977    3.040570


........................................................................
.............................. CYCLE   43 ..............................
........................................................................
   1   -462.0131686 -0.462013E+03  0.236E-03    0.83       0.0  T
   2   -462.0131691 -0.449455E-06  0.115E-03    0.83       5.4  T
   3   -462.0131691 -0.414195E-07  0.871E-04    0.83       7.1  T
   4   -462.0131691 -0.205151E-07  0.284E-04    0.83      21.9  T
   5   -462.0131692 -0.314338E-07  0.161E-04    0.83      38.6  T
   6   -462.0131692 -0.258386E-07  0.349E-05    0.83     178.3  T
     SCC iter.                  ...        0 min,  1.299 sec
     gradient                   ...        0 min,  0.529 sec
 * total energy  :  -453.6549300 Eh     change       -0.7728880E-06 Eh
   gradient norm :     0.0129591 Eh/α   predicted     0.0000000E+00 (-100.00%)
   displ. norm   :     0.0814030 α      lambda       -0.2441620E-03
   maximum displ.:     0.0190612 α      in ANC's #27, #90, #58, ...

........................................................................
.............................. CYCLE   44 ..............................
........................................................................
   1   -462.0080887 -0.462008E+03  0.266E-03    0.83       0.0  T
   2   -462.0080892 -0.429646E-06  0.131E-03    0.83       4.7  T
   3   -462.0080892 -0.413411E-07  0.985E-04    0.83       6.3  T
   4   -462.0080892  0.776203E-08  0.436E-04    0.83      14.3  T
   5   -462.0080893 -0.119619E-06  0.175E-04    0.83      35.5  T
   6   -462.0080893 -0.247919E-07  0.335E-05    0.83     186.0  T
     SCC iter.                  ...        0 min,  1.300 sec
     gradient                   ...        0 min,  0.520 sec
 * total energy  :  -453.6550310 Eh     change       -0.1010285E-03 Eh
   gradient norm :     0.0048323 Eh/α   predicted    -0.1228934E-03 (  21.64%)
   displ. norm   :     0.1439823 α      lambda       -0.2948947E-03
   maximum displ.:     0.0395163 α      in ANC's #62, #23, #39, ...

........................................................................
.............................. CYCLE   45 ..............................
........................................................................
   1   -462.0009045 -0.462001E+03  0.305E-03    0.82       0.0  T
   2   -462.0009050 -0.535156E-06  0.158E-03    0.82       3.9  T
   3   -462.0009050  0.102450E-07  0.121E-03    0.82       5.1  T
   4   -462.0009052 -0.148897E-06  0.605E-04    0.82      10.3  T
   5   -462.0009054 -0.249015E-06  0.164E-04    0.82      38.0  T
   6   -462.0009054 -0.189951E-07  0.344E-05    0.82     181.1  T
     SCC iter.                  ...        0 min,  1.306 sec
     gradient                   ...        0 min,  0.524 sec
 * total energy  :  -453.6549936 Eh     change        0.3740322E-04 Eh
   gradient norm :     0.0158349 Eh/α   predicted    -0.1505093E-03 (-502.40%)
   displ. norm   :     0.0866727 α      lambda       -0.3474690E-03
   maximum displ.:     0.0358056 α      in ANC's #49, #65, #54, ...

........................................................................
.............................. CYCLE   46 ..............................
........................................................................
   1   -462.0029295 -0.462003E+03  0.208E-03    0.82       0.0  T
   2   -462.0029298 -0.297630E-06  0.102E-03    0.82       6.1  T
   3   -462.0029298 -0.788233E-07  0.728E-04    0.82       8.5  T
   4   -462.0029298  0.385714E-07  0.339E-04    0.82      18.4  T
   5   -462.0029299 -0.777982E-07  0.139E-04    0.82      44.7  T
   6   -462.0029299 -0.172830E-07  0.254E-05    0.82     245.2  T
     SCC iter.                  ...        0 min,  1.298 sec
     gradient                   ...        0 min,  0.525 sec
 * total energy  :  -453.6551355 Eh     change       -0.1419114E-03 Eh
   gradient norm :     0.0064398 Eh/α   predicted    -0.1750444E-03 (  23.35%)
   displ. norm   :     0.1146046 α      lambda       -0.2930856E-03
   maximum displ.:     0.0414590 α      in ANC's #44, #47, #68, ...

........................................................................
.............................. CYCLE   47 ..............................
........................................................................
   1   -462.0078154 -0.462008E+03  0.344E-03    0.82       0.0  T
   2   -462.0078162 -0.815537E-06  0.169E-03    0.82       3.7  T
   3   -462.0078164 -0.192842E-06  0.120E-03    0.82       5.2  T
   4   -462.0078164  0.160305E-07  0.373E-04    0.82      16.7  T
   5   -462.0078165 -0.676533E-07  0.220E-04    0.82      28.4  T
   6   -462.0078165 -0.470219E-07  0.427E-05    0.82     145.7  T
   7   -462.0078165 -0.958664E-09  0.230E-05    0.82     270.2  T
     SCC iter.                  ...        0 min,  1.522 sec
     gradient                   ...        0 min,  0.523 sec
 * total energy  :  -453.6550585 Eh     change        0.7702525E-04 Eh
   gradient norm :     0.0119175 Eh/α   predicted    -0.1484728E-03 (-292.76%)
   displ. norm   :     0.1000915 α      lambda       -0.3836358E-03
   maximum displ.:     0.0326867 α      in ANC's #68, #23, #64, ...

........................................................................
.............................. CYCLE   48 ..............................
........................................................................
   1   -462.0071875 -0.462007E+03  0.171E-03    0.82       0.0  T
   2   -462.0071878 -0.221851E-06  0.859E-04    0.82       7.3  T
   3   -462.0071878 -0.709661E-07  0.586E-04    0.82      10.6  T
   4   -462.0071878  0.329715E-07  0.318E-04    0.82      19.6  T
   5   -462.0071879 -0.753740E-07  0.101E-04    0.82      61.8  T
   6   -462.0071879 -0.826844E-08  0.259E-05    0.82     240.5  T
     SCC iter.                  ...        0 min,  1.302 sec
     gradient                   ...        0 min,  0.518 sec
 * total energy  :  -453.6552228 Eh     change       -0.1643245E-03 Eh
   gradient norm :     0.0042368 Eh/α   predicted    -0.1937410E-03 (  17.90%)
   displ. norm   :     0.1510931 α      lambda       -0.2560770E-03
   maximum displ.:     0.0479953 α      in ANC's #54, #23, #17, ...

........................................................................
.............................. CYCLE   49 ..............................
........................................................................
   1   -462.0031372 -0.462003E+03  0.268E-03    0.82       0.0  T
   2   -462.0031377 -0.506029E-06  0.134E-03    0.82       4.6  T
   3   -462.0031378 -0.103872E-06  0.996E-04    0.82       6.3  T
   4   -462.0031378  0.412015E-07  0.526E-04    0.82      11.8  T
   5   -462.0031380 -0.216667E-06  0.150E-04    0.82      41.4  T
   6   -462.0031380 -0.189895E-07  0.398E-05    0.82     156.2  T
     SCC iter.                  ...        0 min,  1.306 sec
     gradient                   ...        0 min,  0.517 sec
 * total energy  :  -453.6551353 Eh     change        0.8753997E-04 Eh
   gradient norm :     0.0109738 Eh/α   predicted    -0.1309640E-03 (-249.60%)
   displ. norm   :     0.0886258 α      lambda       -0.3562561E-03
   maximum displ.:     0.0243846 α      in ANC's #39, #47, #44, ...

........................................................................
.............................. CYCLE   50 ..............................
........................................................................
   1   -462.0059891 -0.462006E+03  0.127E-03    0.82       0.0  T
   2   -462.0059892 -0.164988E-06  0.631E-04    0.82       9.9  T
   3   -462.0059893 -0.299008E-07  0.438E-04    0.82      14.2  T
   4   -462.0059892  0.134162E-07  0.201E-04    0.82      30.9  T
   5   -462.0059893 -0.265900E-07  0.896E-05    0.82      69.5  T
   6   -462.0059893 -0.732092E-08  0.217E-05    0.82     286.9  T
     SCC iter.                  ...        0 min,  1.298 sec
     gradient                   ...        0 min,  0.521 sec
 * total energy  :  -453.6552940 Eh     change       -0.1587721E-03 Eh
   gradient norm :     0.0050163 Eh/α   predicted    -0.1795317E-03 (  13.08%)
   displ. norm   :     0.1313898 α      lambda       -0.2298313E-03
   maximum displ.:     0.0336939 α      in ANC's #50, #90, #61, ...

........................................................................
.............................. CYCLE   51 ..............................
........................................................................
   1   -462.0094555 -0.462009E+03  0.265E-03    0.82       0.0  T
   2   -462.0094560 -0.523920E-06  0.132E-03    0.82       4.7  T
   3   -462.0094561 -0.112000E-06  0.929E-04    0.82       6.7  T
   4   -462.0094561  0.875144E-08  0.300E-04    0.82      20.8  T
   5   -462.0094562 -0.450477E-07  0.164E-04    0.82      37.9  T
   6   -462.0094562 -0.261320E-07  0.276E-05    0.82     225.2  T
     SCC iter.                  ...        0 min,  1.303 sec
     gradient                   ...        0 min,  0.523 sec
 * total energy  :  -453.6552238 Eh     change        0.7025543E-04 Eh
   gradient norm :     0.0095165 Eh/α   predicted    -0.1168999E-03 (-266.39%)
   displ. norm   :     0.0970455 α      lambda       -0.2970512E-03
   maximum displ.:     0.0286973 α      in ANC's #30, #49, #17, ...

........................................................................
.............................. CYCLE   52 ..............................
........................................................................
   1   -462.0081688 -0.462008E+03  0.141E-03    0.82       0.0  T
   2   -462.0081690 -0.161097E-06  0.742E-04    0.82       8.4  T
   3   -462.0081690 -0.429807E-07  0.501E-04    0.82      12.4  T
   4   -462.0081690  0.209790E-07  0.279E-04    0.82      22.3  T
   5   -462.0081691 -0.592700E-07  0.796E-05    0.82      78.2  T
   6   -462.0081691 -0.535653E-08  0.200E-05    0.82     311.5  T
     SCC iter.                  ...        0 min,  1.300 sec
     gradient                   ...        0 min,  0.526 sec
 * total energy  :  -453.6553669 Eh     change       -0.1431025E-03 Eh
   gradient norm :     0.0028100 Eh/α   predicted    -0.1499225E-03 (   4.77%)
   displ. norm   :     0.1673663 α      lambda       -0.2024158E-03
   maximum displ.:     0.0563165 α      in ANC's #39, #54, #17, ...

........................................................................
.............................. CYCLE   53 ..............................
........................................................................
   1   -462.0049834 -0.462005E+03  0.209E-03    0.82       0.0  T
   2   -462.0049837 -0.309558E-06  0.104E-03    0.82       6.0  T
   3   -462.0049838 -0.624623E-07  0.748E-04    0.82       8.3  T
   4   -462.0049838  0.102517E-07  0.319E-04    0.82      19.5  T
   5   -462.0049838 -0.585532E-07  0.127E-04    0.82      49.1  T
   6   -462.0049838 -0.141306E-07  0.223E-05    0.82     279.7  T
     SCC iter.                  ...        0 min,  1.297 sec
     gradient                   ...        0 min,  0.522 sec
 * total energy  :  -453.6552596 Eh     change        0.1073197E-03 Eh
   gradient norm :     0.0093418 Eh/α   predicted    -0.1040473E-03 (-196.95%)
   displ. norm   :     0.0871810 α      lambda       -0.3317085E-03
   maximum displ.:     0.0254338 α      in ANC's #54, #49, #67, ...

........................................................................
.............................. CYCLE   54 ..............................
........................................................................
   1   -462.0078335 -0.462008E+03  0.146E-03    0.82       0.0  T
   2   -462.0078337 -0.165843E-06  0.765E-04    0.82       8.1  T
   3   -462.0078337 -0.310216E-07  0.524E-04    0.82      11.9  T
   4   -462.0078337  0.426206E-08  0.233E-04    0.82      26.8  T
   5   -462.0078337 -0.270994E-07  0.907E-05    0.82      68.6  T
   6   -462.0078337 -0.663937E-08  0.164E-05    0.82     380.3  T
     SCC iter.                  ...        0 min,  1.298 sec
     gradient                   ...        0 min,  0.530 sec
 * total energy  :  -453.6554443 Eh     change       -0.1846974E-03 Eh
   gradient norm :     0.0021083 Eh/α   predicted    -0.1671177E-03 (  -9.52%)
   displ. norm   :     0.1362228 α      lambda       -0.7032031E-04
   maximum displ.:     0.0475913 α      in ANC's #17, #39, #16, ...

........................................................................
.............................. CYCLE   55 ..............................
........................................................................
   1   -462.0083585 -0.462008E+03  0.625E-04    0.82       0.0  T
   2   -462.0083586 -0.369087E-07  0.342E-04    0.82      18.2  T
   3   -462.0083586 -0.101917E-07  0.221E-04    0.82      28.2  T
   4   -462.0083586  0.162686E-09  0.151E-04    0.82      41.3  T
   5   -462.0083586 -0.144510E-07  0.424E-05    0.82     146.8  T
     SCC iter.                  ...        0 min,  1.083 sec
     gradient                   ...        0 min,  0.525 sec
 * total energy  :  -453.6554642 Eh     change       -0.1997469E-04 Eh
[...]
     8   6 C        9   6 C                                       1.3968920
     9   6 C       10   6 C                                       1.3832331
    10   6 C       11   6 C                                       1.3981054
    12   6 C       13   7 N                                       1.1507486
    11   6 C       14   6 C                                       1.3980164
     8   6 C       15   6 C                                       1.3968808
    14   6 C       15   6 C                                       1.3833408
     7   6 C       16   6 C                                       1.3970219
    16   6 C       17   6 C                                       1.4520744
    17   6 C       18   6 C                                       1.3489416
    16   6 C       19   7 N                                       1.3613572
    18   6 C       20   6 C                                       1.4502194
    19   7 N       20   6 C                                       1.3481502
    20   6 C       21   6 C                                       1.4099048
    21   6 C       22   6 C                                       1.4078178
    22   6 C       23   6 C                                       1.4200207
    23   6 C       24   6 C                                       1.3673451
    24   6 C       25   6 C                                       1.4226288
    22   6 C       26   7 N                                       1.3629262
    25   6 C       26   7 N                                       1.3696425
    25   6 C       27   6 C                                       1.3992904
    28   6 C       29   6 C                                       1.3970973
    29   6 C       30   6 C                                       1.3832133
    30   6 C       31   6 C                                       1.3981058
    32   6 C       33   7 N                                       1.1507360
    31   6 C       34   6 C                                       1.3980847
    28   6 C       35   6 C                                       1.3972051
    34   6 C       35   6 C                                       1.3832055
    27   6 C       36   6 C                                       1.3992993
    37   6 C       38   6 C                                       1.3479952
     1   6 C       39   6 C                                       1.3885039
    38   6 C       39   6 C                                       1.4524176 (max)
    36   6 C       40   7 N                                       1.3537425
    39   6 C       40   7 N                                       1.3558347
     1   6 C       41   1 H                                       1.0853202
     3   6 C       42   1 H                                       1.0782728
     4   6 C       43   1 H                                       1.0779263
     6   7 N       44   1 H                                       1.0144985
     9   6 C       45   1 H                                       1.0840983
    10   6 C       46   1 H                                       1.0837040
    14   6 C       47   1 H                                       1.0837293
    15   6 C       48   1 H                                       1.0842370
    17   6 C       49   1 H                                       1.0778935
    18   6 C       50   1 H                                       1.0781700
    23   6 C       51   1 H                                       1.0780273
    24   6 C       52   1 H                                       1.0777557
    26   7 N       53   1 H                                       1.0147095
    29   6 C       54   1 H                                       1.0840932
    30   6 C       55   1 H                                       1.0837117
    34   6 C       56   1 H                                       1.0837287
    35   6 C       57   1 H                                       1.0842387
    37   6 C       58   1 H                                       1.0780706
    38   6 C       59   1 H                                       1.0786766
    60   6 C       61   6 C                                       1.3888021
    61   6 C       62   6 C                                       1.4232671
    62   6 C       63   6 C                                       1.3663272
    63   6 C       64   6 C                                       1.4243475
    61   6 C       65   7 N                                       1.3664375
    64   6 C       65   7 N                                       1.3655698
    64   6 C       66   6 C                                       1.3996393
    67   6 C       68   6 C                                       1.3968239
    68   6 C       69   6 C                                       1.3832865
    69   6 C       70   6 C                                       1.3980924
    71   6 C       72   7 N                                       1.1507461
    70   6 C       73   6 C                                       1.3980204
    67   6 C       74   6 C                                       1.3969105
    73   6 C       74   6 C                                       1.3833061
    66   6 C       75   6 C                                       1.3969412
    75   6 C       76   6 C                                       1.4520606
    76   6 C       77   6 C                                       1.3489229
    75   6 C       78   7 N                                       1.3614587
    77   6 C       79   6 C                                       1.4502508
    78   7 N       79   6 C                                       1.3480827
    79   6 C       80   6 C                                       1.4100032
    80   6 C       81   6 C                                       1.4077932
    81   6 C       82   6 C                                       1.4200221
    82   6 C       83   6 C                                       1.3673260
    83   6 C       84   6 C                                       1.4226436
    81   6 C       85   7 N                                       1.3629069
    84   6 C       85   7 N                                       1.3696631
    84   6 C       86   6 C                                       1.3992569
    87   6 C       88   6 C                                       1.3970799
    88   6 C       89   6 C                                       1.3832221
    89   6 C       90   6 C                                       1.3981027
    91   6 C       92   7 N                                       1.1507428
    90   6 C       93   6 C                                       1.3980821
    87   6 C       94   6 C                                       1.3971812
    93   6 C       94   6 C                                       1.3832067
    86   6 C       95   6 C                                       1.3992933
    96   6 C       97   6 C                                       1.3479935
    60   6 C       98   6 C                                       1.3884933
    97   6 C       98   6 C                                       1.4524098
    95   6 C       99   7 N                                       1.3537406
    98   6 C       99   7 N                                       1.3558474
    60   6 C      100   1 H                                       1.0853199
    62   6 C      101   1 H                                       1.0782720
    63   6 C      102   1 H                                       1.0779311
    65   7 N      103   1 H                                       1.0144971 (min)
    68   6 C      104   1 H                                       1.0840912
    69   6 C      105   1 H                                       1.0837025
    73   6 C      106   1 H                                       1.0837303
    74   6 C      107   1 H                                       1.0842412
    76   6 C      108   1 H                                       1.0778863
    77   6 C      109   1 H                                       1.0781649
    82   6 C      110   1 H                                       1.0780274
    83   6 C      111   1 H                                       1.0777529
    85   7 N      112   1 H                                       1.0147092
    88   6 C      113   1 H                                       1.0840964
    89   6 C      114   1 H                                       1.0837138
    93   6 C      115   1 H                                       1.0837244
    94   6 C      116   1 H                                       1.0842337
    96   6 C      117   1 H                                       1.0780686
    97   6 C      118   1 H                                       1.0786768
   119   6 C      120   6 C                                       1.2247451
   121   6 C      122   6 C                                       1.2308559
   123   6 C      124   6 C                                       1.2309450
   125   6 C      126   6 C                                       1.2249661
   127   6 C      128   6 C                                       1.2252348
   129   6 C      130   6 C                                       1.2312792
   131   6 C      132   6 C                                       1.2312812
   133   6 C      134   6 C                                       1.2252376
   135   6 C      136   6 C                                       1.2249894
   137   6 C      138   6 C                                       1.2309576
   139   6 C      140   6 C                                       1.2308752
   141   6 C      142   6 C                                       1.2247562
   143   6 C      144   6 C                                       1.4083859
   144   6 C      145   6 C                                       1.4187624
   145   6 C      146   6 C                                       1.3681869
   146   6 C      147   6 C                                       1.4214950
   144   6 C      148   7 N                                       1.3629421
   147   6 C      148   7 N                                       1.3689144
   147   6 C      149   6 C                                       1.4006304
   150   6 C      151   6 C                                       1.3969357
   151   6 C      152   6 C                                       1.3832837
   152   6 C      153   6 C                                       1.3980034
   154   6 C      155   7 N                                       1.1507244
   153   6 C      156   6 C                                       1.3980578
   150   6 C      157   6 C                                       1.3967939
   156   6 C      157   6 C                                       1.3833218
   149   6 C      158   6 C                                       1.3958000
   158   6 C      159   6 C                                       1.4521917
   159   6 C      160   6 C                                       1.3489369
   158   6 C      161   7 N                                       1.3617212
   160   6 C      162   6 C                                       1.4496111
   161   7 N      162   6 C                                       1.3479835
   162   6 C      163   6 C                                       1.4098937
   163   6 C      164   6 C                                       1.4085896
   164   6 C      165   6 C                                       1.4187385
   165   6 C      166   6 C                                       1.3681679
   166   6 C      167   6 C                                       1.4215560
   164   6 C      168   7 N                                       1.3627762
   167   6 C      168   7 N                                       1.3691048
   167   6 C      169   6 C                                       1.4004776
   170   6 C      171   6 C                                       1.3969560
   171   6 C      172   6 C                                       1.3832877
   172   6 C      173   6 C                                       1.3980167
   174   6 C      175   7 N                                       1.1507345
   173   6 C      176   6 C                                       1.3980503
   170   6 C      177   6 C                                       1.3968475
   176   6 C      177   6 C                                       1.3832940
   169   6 C      178   6 C                                       1.3961226
   178   6 C      179   6 C                                       1.4521885
   179   6 C      180   6 C                                       1.3489672
   143   6 C      181   6 C                                       1.4095381
   180   6 C      181   6 C                                       1.4495309
   178   6 C      182   7 N                                       1.3613961
   181   6 C      182   7 N                                       1.3483814
   145   6 C      183   1 H                                       1.0779777
   146   6 C      184   1 H                                       1.0777252
   148   7 N      185   1 H                                       1.0145126
   151   6 C      186   1 H                                       1.0842274
   152   6 C      187   1 H                                       1.0837134
   156   6 C      188   1 H                                       1.0836890
   157   6 C      189   1 H                                       1.0840766
   159   6 C      190   1 H                                       1.0778447
   160   6 C      191   1 H                                       1.0781650
   165   6 C      192   1 H                                       1.0779762
   166   6 C      193   1 H                                       1.0777160
   168   7 N      194   1 H                                       1.0145100
   171   6 C      195   1 H                                       1.0842243
   172   6 C      196   1 H                                       1.0837100
   176   6 C      197   1 H                                       1.0836928
   177   6 C      198   1 H                                       1.0840810
   179   6 C      199   1 H                                       1.0778461
   180   6 C      200   1 H                                       1.0781630
   201   6 C      202   6 C                                       1.4085566
   202   6 C      203   6 C                                       1.4187365
   203   6 C      204   6 C                                       1.3681703
   204   6 C      205   6 C                                       1.4215441
   202   6 C      206   7 N                                       1.3627895
   205   6 C      206   7 N                                       1.3690521
   205   6 C      207   6 C                                       1.4005093
   208   6 C      209   6 C                                       1.3969842
   209   6 C      210   6 C                                       1.3832508
   210   6 C      211   6 C                                       1.3980161
   212   6 C      213   7 N                                       1.1507253
   211   6 C      214   6 C                                       1.3980434
   208   6 C      215   6 C                                       1.3967713
   214   6 C      215   6 C                                       1.3833491
   207   6 C      216   6 C                                       1.3960233
   216   6 C      217   6 C                                       1.4521699
   217   6 C      218   6 C                                       1.3489492
   216   6 C      219   7 N                                       1.3615133
   218   6 C      220   6 C                                       1.4495620
   219   7 N      220   6 C                                       1.3482905
   220   6 C      221   6 C                                       1.4096417
   221   6 C      222   6 C                                       1.4083657
   222   6 C      223   6 C                                       1.4187637
   223   6 C      224   6 C                                       1.3681776
   224   6 C      225   6 C                                       1.4215059
   222   6 C      226   7 N                                       1.3629328
   225   6 C      226   7 N                                       1.3689223
   225   6 C      227   6 C                                       1.4006189
   228   6 C      229   6 C                                       1.3969154
   229   6 C      230   6 C                                       1.3833014
   230   6 C      231   6 C                                       1.3980140
   232   6 C      233   7 N                                       1.1507300
   231   6 C      234   6 C                                       1.3980398
   228   6 C      235   6 C                                       1.3967771
   234   6 C      235   6 C                                       1.3833184
   227   6 C      236   6 C                                       1.3957813
   236   6 C      237   6 C                                       1.4521828
   237   6 C      238   6 C                                       1.3489387
   201   6 C      239   6 C                                       1.4099338
   238   6 C      239   6 C                                       1.4496018
   236   6 C      240   7 N                                       1.3617520
   239   6 C      240   7 N                                       1.3479703
   203   6 C      241   1 H                                       1.0779758
   204   6 C      242   1 H                                       1.0777214
   206   7 N      243   1 H                                       1.0145113
   209   6 C      244   1 H                                       1.0842295
   210   6 C      245   1 H                                       1.0837119
   214   6 C      246   1 H                                       1.0836902
   215   6 C      247   1 H                                       1.0840728
   217   6 C      248   1 H                                       1.0778373
   218   6 C      249   1 H                                       1.0781593
   223   6 C      250   1 H                                       1.0779781
   224   6 C      251   1 H                                       1.0777254
   226   7 N      252   1 H                                       1.0145115
   229   6 C      253   1 H                                       1.0842251
   230   6 C      254   1 H                                       1.0837104
   234   6 C      255   1 H                                       1.0836909
   235   6 C      256   1 H                                       1.0840767
   237   6 C      257   1 H                                       1.0778414
   238   6 C      258   1 H                                       1.0781645

 * 4 distinct bonds (by element types)

   Z      Z             #   av. dist./Å        max./Å        min./Å
   1 H    6 C          66     1.0811049     1.0853202     1.0777160
   6 C    6 C         138     1.3856203     1.4524176     1.2247451
   1 H    7 N           8     1.0145575     1.0147095     1.0144971
   6 C    7 N          40     1.3184930     1.3696631     1.1507244


optimized geometry written to: xtbopt.xyz


           -------------------------------------------------
          | TOTAL ENERGY             -453.656274939441 Eh   |
          | GRADIENT NORM               0.000684970438 Eh/α |
          | HOMO-LUMO GAP               0.826173288563 eV   |
           -------------------------------------------------

------------------------------------------------------------------------
 * finished run on 2022/07/27 at 22:31:33.626     
------------------------------------------------------------------------
 total:
 * wall-time:     0 d,  0 h,  3 min, 50.072 sec
 *  cpu-time:     0 d,  0 h,  3 min, 49.206 sec
 * ratio c/w:     0.996 speedup
 SCF:
 * wall-time:     0 d,  0 h,  0 min, 14.648 sec
 *  cpu-time:     0 d,  0 h,  0 min, 14.597 sec
 * ratio c/w:     0.996 speedup
 ANC optimizer:
 * wall-time:     0 d,  0 h,  3 min, 35.170 sec
 *  cpu-time:     0 d,  0 h,  3 min, 34.383 sec
 * ratio c/w:     0.996 speedup

