258
 energy: -449.444187553486 gnorm: 7.961901047037 xtb: 6.5.1 (b24c23e)
C           37.24512899999999       -0.02712200000000        0.09449400000000
C           37.97334799999999        1.34884200000000        0.17324700000000
C           37.36604000000000        2.57050200000000        0.35161500000000
C           38.38866000000000        3.55333600000000        0.30454300000000
C           39.58613000000000        2.89757900000000        0.08946700000000
N           39.32538499999999        1.55031300000000        0.05810200000000
C           41.00897100000000        3.56638200000000       -0.11348300000000
C           41.04836800000000        5.03235700000000       -0.31721300000000
C           41.35271700000000        5.88366600000000        0.75204900000000
C           41.38165000000000        7.26737000000000        0.56502200000000
C           41.10514999999999        7.80719400000000       -0.69563200000000
C           41.13594399999999        9.22694900000000       -0.89152100000000
N           41.15966900000000       10.37643300000000       -1.05580900000000
C           40.79845400000000        6.95978600000000       -1.76610500000000
C           40.77023000000000        5.57581500000000       -1.57541800000000
C           42.13924400000000        2.80989700000000       -0.13696600000000
C           43.44233700000000        3.39079100000000       -0.38905300000000
C           44.34576400000000        2.41817300000000       -0.37289400000000
N           42.33736200000000        1.46440100000000        0.03081400000000
C           43.66932300000000        1.16545100000000       -0.09840200000000
C           44.34068900000000       -0.01420200000000       -0.01308000000000
C           43.56754300000000       -1.36219800000000        0.31384300000000
C           44.12124300000000       -2.51362400000000        0.84104800000000
C           43.09392900000000       -3.48678000000000        0.91365900000000
C           41.94023499999999       -2.90069000000000        0.43809700000000
N           42.22567799999999       -1.59210600000000        0.13162400000000
C           40.52715500000000       -3.60353800000000        0.28357900000000
C           40.49477500000000       -5.07931600000000        0.19683700000000
C           40.15241500000000       -5.84992700000000        1.31512000000000
C           40.13101500000000       -7.24310200000000        1.22976500000000
C           40.45629000000000       -7.87447000000000        0.02412300000000
C           40.43262599999999       -9.30477100000000       -0.06609500000000
N           40.41443200000000      -10.46376100000000       -0.13981400000000
C           40.80294400000000       -7.10789000000000       -1.09451000000000
C           40.82129200000000       -5.71485400000000       -1.00631800000000
C           39.39980899999999       -2.85103700000000        0.19922200000000
C           38.07641200000000       -3.42967300000000        0.04373300000000
C           37.18908400000000       -2.43949200000000        0.00632100000000
C           37.91138300000000       -1.19673400000000        0.11952800000000
N           39.23377900000000       -1.49445300000000        0.22899500000000
H           36.16628300000000       -0.02567700000000       -0.00652400000000
H           36.30807999999999        2.73643000000000        0.48466600000000
H           38.26038499999999        4.62145400000000        0.39339800000000
H           40.02478499999999        0.81770200000000       -0.03232000000000
H           41.57123500000000        5.44983800000000        1.72662500000000
H           41.62146799999999        7.90938700000000        1.40814400000000
H           40.58272399999999        7.35991900000000       -2.75244500000000
H           40.53483900000000        4.90664900000000       -2.39984300000000
H           43.65526800000000        4.42835900000000       -0.57474400000000
H           45.39828900000000        2.56074800000000       -0.53675300000000
H           45.15435399999999       -2.64770400000000        1.12384800000000
H           43.19219400000000       -4.50433200000000        1.25588000000000
H           41.53777400000000       -0.89650300000000       -0.14792600000000
H           39.89794300000000       -5.34619000000000        2.24543300000000
H           39.85963000000000       -7.82196600000000        2.10829600000000
H           41.06115699999999       -7.57910700000000       -2.03931200000000
H           41.08491000000000       -5.10648100000000       -1.87065700000000
H           37.84487700000000       -4.47652900000000       -0.02914100000000
H           36.12379600000000       -2.53939000000000       -0.10090100000000
C          100.21608599999999        0.02808300000000        0.08667600000000
C           99.48786699999998       -1.27189600000000        0.54442200000000
C          100.09517500000000       -2.39597900000000        1.05501800000000
C           99.07255499999998       -3.35323000000000        1.28272000000000
C           97.87508500000000       -2.78298800000000        0.89400600000000
N           98.13583000000000       -1.49741800000000        0.48975200000000
C           96.45224399999998       -3.48184400000000        0.88475700000000
C           96.41284700000000       -4.94673700000000        1.09612700000000
C           96.10849799999998       -5.46764200000000        2.35973500000000
C           96.07956500000000       -6.84886100000000        2.56430400000000
C           96.35606500000000       -7.71752600000000        1.50313400000000
C           96.32527100000000       -9.13583900000000        1.70920100000000
N           96.30154599999999      -10.28573600000000        1.87057500000000
C           96.66276100000000       -7.20070500000000        0.23944600000000
C           96.69098500000000       -5.81821200000000        0.03831800000000
C           95.32197100000000       -2.76163200000000        0.65213000000000
C           94.01887800000000       -3.38968300000000        0.57126600000000
C           93.11545099999999       -2.45082900000000        0.31670300000000
N           95.12385299999998       -1.42246300000000        0.43968100000000
C           93.79189200000000       -1.17115200000000        0.23253200000000
C           93.12052600000000       -0.01420200000000       -0.01308000000000
C           93.89367200000000        1.37156200000000       -0.07333900000000
C           93.33997200000000        2.62410300000000        0.11339100000000
C           94.36728599999998        3.57914900000000       -0.08708900000000
C           95.52097999999999        2.88405100000000       -0.38119600000000
N           95.23553699999999        1.54182800000000       -0.31223500000000
C           96.93406000000000        3.51634800000000       -0.72481100000000
C           96.96644000000001        4.90999700000000       -1.21795000000000
C           97.30880000000001        5.96083700000000       -0.35763800000000
C           97.33020000000000        7.27551700000000       -0.82650700000000
C           97.00492500000000        7.54725900000000       -2.16005700000000
C           97.02858899999998        8.89625600000000       -2.64390700000000
N           97.04678299999999        9.98919200000000       -3.03656700000000
C           96.65827100000000        6.50019500000000       -3.02182300000000
C           96.63992300000000        5.18643600000000       -2.55026800000000
C           98.06140600000001        2.77001700000000       -0.59688900000000
C           99.38480300000001        3.28271800000000       -0.90694400000000
C          100.27213100000000        2.32109100000000       -0.66792100000000
C           99.54983199999999        1.15864700000000       -0.21406500000000
N           98.22743600000000        1.47505400000000       -0.19157700000000
H          101.29493200000000       -0.00135700000000       -0.00996900000000
H          101.15313499999999       -2.51843400000000        1.22891300000000
H           99.20083000000000       -4.35466500000000        1.66468600000000
H           97.43642999999999       -0.81873000000000        0.19944800000000
H           95.88997999999999       -4.78024600000000        3.17551200000000
H           95.83974699999999       -7.23150200000000        3.55254900000000
H           96.87849099999998       -7.85899800000000       -0.59698900000000
H           96.92637600000000       -5.40429900000000       -0.93950300000000
H           93.80594700000000       -4.43800800000000        0.68100000000000
H           92.06292600000000       -2.63329900000000        0.19888000000000
H           92.30686100000000        2.83144000000000        0.34783600000000
H           94.26902100000000        4.65171300000000       -0.04089100000000
H           95.92344100000000        0.79595400000000       -0.38762900000000
H           97.56327199999998        5.73525000000000        0.67596800000000
H           97.60158499999999        8.07557400000000       -0.14327300000000
H           96.40005800000000        6.69051800000000       -4.06031900000000
H           96.37630500000000        4.36197200000000       -3.21167400000000
H           99.61633800000000        4.26816600000000       -1.26765300000000
H          101.33741900000000        2.38728600000000       -0.79866600000000
C           46.48390100000000        0.00048900000000       -0.00280400000000
C           47.94212700000000       -0.02134800000000       -0.02067800000000
C           49.07605500000000       -0.04210200000000       -0.02216900000000
C           50.43743700000000       -0.05469100000000       -0.02436000000000
C           51.71165600000000       -0.04438500000000       -0.02912500000000
C           52.90011800000000       -0.02558700000000       -0.03528100000000
C           54.25247900000000       -0.00080300000000       -0.01941300000000
C           55.35274600000000        0.00048900000000       -0.00280400000000
C           64.23416600000000        0.00048900000000       -0.00280400000000
C           65.69239300000000       -0.02134800000000       -0.02067800000000
C           66.82632099999999       -0.04210200000000       -0.02216900000000
C           68.18770200000000       -0.05469100000000       -0.02436000000000
C           69.46192100000000       -0.04438500000000       -0.02912500000000
C           70.65038400000000       -0.02558700000000       -0.03528100000000
C           72.00274400000001       -0.00080300000000       -0.01941300000000
C           73.10301200000001        0.00048900000000       -0.00280400000000
C           81.98443199999998        0.00048900000000       -0.00280400000000
C           83.44265799999999       -0.02134800000000       -0.02067800000000
C           84.57658600000001       -0.04210200000000       -0.02216900000000
C           85.93796799999998       -0.05469100000000       -0.02436000000000
C           87.21218700000000       -0.04438500000000       -0.02912500000000
C           88.40064900000000       -0.02558700000000       -0.03528100000000
C           89.75301000000000       -0.00080300000000       -0.01941300000000
C           90.85327700000001        0.00048900000000       -0.00280400000000
C           56.27642699999999        0.01434500000000        0.01388600000000
C           57.07166100000000        1.16607600000000       -0.72785100000000
C           56.57049500000000        2.38644400000000       -1.13261100000000
C           57.60905700000000        3.06216900000000       -1.82332900000000
C           58.71283600000000        2.23531300000000       -1.81330500000000
N           58.39843100000000        1.11988300000000       -1.07854700000000
C           60.09966499999999        2.50904400000000       -2.52455100000000
C           60.08753200000000        3.35442800000000       -3.73891600000000
C           59.61087100000000        2.83559300000000       -4.94835200000000
C           59.58424999999999        3.63227700000000       -6.09519200000000
C           60.03347399999999        4.95643200000000       -6.03671100000000
C           60.00739700000000        5.77551800000000       -7.21268400000000
N           59.98610800000000        6.44149900000000       -8.16471500000000
C           60.50758000000000        5.48094200000000       -4.82887100000000
C           60.53194499999999        4.68154900000000       -3.68413100000000
C           61.23604199999999        1.93678500000000       -2.04821100000000
C           62.52146199999999        2.10796400000000       -2.69383500000000
C           63.43054300000000        1.42790300000000       -2.00358100000000
N           61.44588000000000        1.12576200000000       -0.96825500000000
C           62.77005599999999        0.78820700000000       -0.88388300000000
C           63.43438100000000        0.01434500000000        0.01388600000000
C           62.63916500000000       -0.65908600000000        1.20685400000000
C           63.14041599999999       -0.99230900000000        2.44862300000000
C           62.10186100000000       -1.64251300000000        3.16342100000000
C           60.99797999999999       -1.68034100000000        2.33751000000000
N           61.31233100000000       -1.01164300000000        1.18125400000000
C           59.61115500000000       -2.37446800000000        2.65220200000000
C           59.62347400000000       -3.53791300000000        3.56641100000000
C           60.10177700000000       -4.77482600000000        3.11873500000000
C           60.12860700000000       -5.87374600000000        3.98029100000000
C           59.67797100000000       -5.73938200000000        5.29842400000000
C           59.70421100000000       -6.86615000000000        6.18397300000000
N           59.72557499999999       -7.77827100000000        6.90362200000000
C           59.20227599999999       -4.50372200000000        5.75189300000000
C           59.17773300000000       -3.40703200000000        4.88774500000000
C           58.47474799999999       -1.93218600000000        2.05327700000000
C           57.18937800000000       -2.56692500000000        2.26153400000000
C           56.28028799999999       -1.91744300000000        1.54245100000000
C           56.94072400000000       -0.83674200000000        0.83882900000000
N           58.26485700000000       -0.90113800000000        1.18093200000000
H           55.56490200000000        2.74355600000000       -0.96943600000000
H           57.55116000000000        4.03285300000000       -2.29202900000000
H           59.05596800000000        0.39744200000000       -0.79969700000000
H           59.26344100000000        1.80446000000000       -4.98241600000000
H           59.21156499999999        3.20778500000000       -7.02368800000000
H           60.86104099999999        6.50658500000000       -4.76441700000000
H           60.90029600000000        5.07691300000000       -2.73902900000000
H           62.71722799999999        2.67707500000000       -3.58467500000000
H           64.47463999999999        1.37042700000000       -2.25201700000000
H           64.14605899999999       -0.80882300000000        2.79554500000000
H           62.15980199999999       -2.05411200000000        4.15967100000000
H           60.65471800000000       -0.77500200000000        0.44400700000000
H           60.45033700000000       -4.86801700000000        2.09164200000000
H           60.50256299999999       -6.82483600000000        3.61045000000000
H           58.84770300000000       -4.38053000000000        6.77176700000000
H           58.80818600000000       -2.44102300000000        5.22756500000000
H           56.99366000000000       -3.42327400000000        2.88134500000000
H           55.23623600000000       -2.16896600000000        1.49934700000000
C           74.02669200000000        0.01434500000000        0.01388600000000
C           74.82192600000000        1.16607600000000       -0.72785100000000
C           74.32076100000000        2.38644400000000       -1.13261100000000
C           75.35932200000001        3.06216900000000       -1.82332900000000
C           76.46310099999998        2.23531300000000       -1.81330500000000
N           76.14869700000000        1.11988300000000       -1.07854700000000
C           77.84993000000000        2.50904400000000       -2.52455100000000
C           77.83779800000001        3.35442800000000       -3.73891600000000
C           77.36113600000000        2.83559300000000       -4.94835200000000
C           77.33451599999998        3.63227700000000       -6.09519200000000
C           77.78373999999999        4.95643200000000       -6.03671100000000
C           77.75766200000000        5.77551800000000       -7.21268400000000
N           77.73637400000000        6.44149900000000       -8.16471500000000
C           78.25784600000000        5.48094200000000       -4.82887100000000
C           78.28221099999999        4.68154900000000       -3.68413100000000
C           78.98630700000000        1.93678500000000       -2.04821100000000
C           80.27172699999998        2.10796400000000       -2.69383500000000
C           81.18080900000000        1.42790300000000       -2.00358100000000
N           79.19614599999998        1.12576200000000       -0.96825500000000
C           80.52032199999999        0.78820700000000       -0.88388300000000
C           81.18464699999998        0.01434500000000        0.01388600000000
C           80.38942999999999       -0.65908600000000        1.20685400000000
C           80.89068199999998       -0.99230900000000        2.44862300000000
C           79.85212700000000       -1.64251300000000        3.16342100000000
C           78.74824599999998       -1.68034100000000        2.33751000000000
N           79.06259600000000       -1.01164300000000        1.18125400000000
C           77.36142100000001       -2.37446800000000        2.65220200000000
C           77.37374000000000       -3.53791300000000        3.56641100000000
C           77.85204299999999       -4.77482600000000        3.11873500000000
C           77.87887200000000       -5.87374600000000        3.98029100000000
C           77.42823700000000       -5.73938200000000        5.29842400000000
C           77.45447600000000       -6.86615000000000        6.18397300000000
N           77.47583999999999       -7.77827100000000        6.90362200000000
C           76.95254100000000       -4.50372200000000        5.75189300000000
C           76.92799800000000       -3.40703200000000        4.88774500000000
C           76.22501399999999       -1.93218600000000        2.05327700000000
C           74.93964300000000       -2.56692500000000        2.26153400000000
C           74.03055300000000       -1.91744300000000        1.54245100000000
C           74.69098900000000       -0.83674200000000        0.83882900000000
N           76.01512199999999       -0.90113800000000        1.18093200000000
H           73.31516700000000        2.74355600000000       -0.96943600000000
H           75.30142499999999        4.03285300000000       -2.29202900000000
H           76.80623400000000        0.39744200000000       -0.79969700000000
H           77.01370600000000        1.80446000000000       -4.98241600000000
H           76.96183099999999        3.20778500000000       -7.02368800000000
H           78.61130700000000        6.50658500000000       -4.76441700000000
H           78.65056100000000        5.07691300000000       -2.73902900000000
H           80.46749400000000        2.67707500000000       -3.58467500000000
H           82.22490500000001        1.37042700000000       -2.25201700000000
H           81.89632400000001       -0.80882300000000        2.79554500000000
H           79.91006799999998       -2.05411200000000        4.15967100000000
H           78.40498300000000       -0.77500200000000        0.44400700000000
H           78.20060299999999       -4.86801700000000        2.09164200000000
H           78.25282799999998       -6.82483600000000        3.61045000000000
H           76.59796799999998       -4.38053000000000        6.77176700000000
H           76.55845200000000       -2.44102300000000        5.22756500000000
H           74.74392499999999       -3.42327400000000        2.88134500000000
H           72.98650100000000       -2.16896600000000        1.49934700000000
258
 energy: -452.248957457345 gnorm: 1.651909821790 xtb: 6.5.1 (b24c23e)
C           37.24830044115647       -0.02073715954512        0.09480796668833
C           37.97153008047741        1.34379593202062        0.17300555000126
C           37.36671470965728        2.57242413533487        0.35146712072420
C           38.38711266217071        3.55292523913249        0.30440820475138
C           39.59091771100640        2.89912424792069        0.08890311887905
N           39.32544497752730        1.55034610934381        0.05797011485096
C           41.00300412972665        3.56327166330043       -0.11261355839108
C           41.04797371500908        5.03220056551599       -0.31696430182481
C           41.35274452928356        5.88402488779867        0.75174679211124
C           41.38167089402794        7.26656523985756        0.56516506359784
C           41.10514310934153        7.80759493357482       -0.69570283965209
C           41.13595296678117        9.22801911451485       -0.89169958071012
N           41.15963611074248       10.37466695612135       -1.05554485018847
C           40.79847037812512        6.95895963739508       -1.76601380927803
C           40.77021698775982        5.57632196324323       -1.57520351415512
C           42.14087502112536        2.80884360252931       -0.13708935240895
C           43.44249649682426        3.39216395871925       -0.38927294621870
C           44.34714547596541        2.41837392507933       -0.37304659962500
N           42.33617002260691        1.46300139206479        0.03092273596719
C           43.67011176424115        1.16654013008733       -0.09870570971536
C           44.34208082134703       -0.01947970593482       -0.01134455853110
C           43.57066923944431       -1.35766535778514        0.31306437658878
C           44.12083325287672       -2.51506615167722        0.84099475165335
C           43.09542327278940       -3.48632367244691        0.91348844102470
C           41.93561354322406       -2.90229787374250        0.43755035473520
N           42.22578091596676       -1.59188218612332        0.13124884338588
C           40.53292377810963       -3.60044493584008        0.28408939037933
C           40.49522969289444       -5.07917585438025        0.19712859296837
C           40.15238742330773       -5.85028291959672        1.31479223194225
C           40.13098977078133       -7.24233909403485        1.22982872694089
C           40.45629182666301       -7.87487179063574        0.02407465363348
C           40.43262975975503       -9.30586339912622       -0.06616271104781
N           40.41445516011427      -10.46197317950805       -0.13970039746859
C           40.80293825643758       -7.10712155299992       -1.09449706931967
C           40.82131836101660       -5.71522963402495       -1.00609714732698
C           39.39820626559191       -2.85003126569985        0.19894582773116
C           38.07611893040371       -3.43106791836403        0.04369464243517
C           37.18791580525683       -2.44013235888000        0.00617901776730
C           37.91227822620269       -1.19835512371671        0.11942697558767
N           39.23527180078383       -1.49339199042082        0.22907601071880
H           36.16677651877379       -0.02514878769593       -0.00630545129536
H           36.30823728104747        2.73657041787950        0.48467722792868
H           38.26031795493689        4.62134102979542        0.39340879900769
H           40.02462834952976        0.81788551068962       -0.03231921910559
H           41.57115625217711        5.45007621483095        1.72637992083268
H           41.62140517289471        7.90938527601869        1.40789983330525
H           40.58277957806447        7.35999518433169       -2.75222745926757
H           40.53487079093173        4.90690301613423       -2.39971419208540
H           43.65501298421874        4.42882104446814       -0.57475881904807
H           45.39881884743917        2.56028677427667       -0.53673937769613
H           45.15424199325323       -2.64773585759453        1.12379424218545
H           43.19227351321556       -4.50426237571577        1.25589950015584
H           41.53798742697025       -0.89669657261800       -0.14787995064375
H           39.89802452438204       -5.34642521427069        2.24524205902869
H           39.85970425825925       -7.82198522036563        2.10805702137524
H           41.06106411318085       -7.57915928568998       -2.03905528235784
H           41.08486586895793       -5.10676722396732       -1.87044072140420
H           37.84510946081300       -4.47704925383712       -0.02911976207977
H           36.12341035716528       -2.53924472644673       -0.10092299937197
C          100.21289859489801        0.02198646310768        0.08876866178081
C           99.48968795116690       -1.26705522038810        0.54276246087717
C          100.09448698584727       -2.39792304768657        1.05542553855343
C           99.07416849040916       -3.35286178659845        1.28247755731053
C           97.87020846305305       -2.78463429440776        0.89387892086561
N           98.13576407424755       -1.49747974640686        0.48964063302261
C           96.45834315539005       -3.47863574049906        0.88474768946585
C           96.41324391016241       -4.94652006555992        1.09632500991369
C           96.10846856267774       -5.46807028429490        2.35954603965772
C           96.07954409119741       -6.84804882851158        2.56421710757372
C           96.35607191016895       -7.71792873267730        1.50317675372663
C           96.32526195599262       -9.13692176260409        1.70932745306616
N           96.30157891617912      -10.28396249240475        1.87033754532495
C           96.66274383250712       -7.19988656800773        0.23930556890776
C           96.69099855475181       -5.81863871631283        0.03866316588038
C           95.32026893921713       -2.76052644698534        0.65168744892755
C           94.01870525350662       -3.39104527278980        0.57143123593090
C           93.11404569151753       -2.45104802559183        0.31661128571415
N           95.12524201468196       -1.42127412028925        0.43944626309350
C           93.79096620033420       -1.17201474723113        0.23248229874417
C           93.12033019012573       -0.00855453994302       -0.01274622906211
C           93.89061232592628        1.36672584259978       -0.07285508362629
C           93.34039806669502        2.62556461357882        0.11292418129883
C           94.36568984844770        3.57865333684530       -0.08710726522773
C           95.52569860054392        2.88541107302795       -0.38219682187865
N           95.23548534371730        1.54156611284587       -0.31253201816997
C           96.92821675109607        3.51351197928439       -0.72345222047308
C           96.96598627498264        4.90995207580916       -1.21762663972202
C           97.30882726853795        5.96108711085204       -0.35804981174195
C           97.33022440765275        7.27480269202094       -0.82623556314152
C           97.00492309282360        7.54762838227714       -2.16021417021107
C           97.02858557328057        8.89729246854180       -2.64427772977195
N           97.04675941976775        9.98750216010152       -3.03595955548155
C           96.65827808392146        6.49946206712562       -3.02159588800488
C           96.63989731915936        5.18685365975974       -2.55015955692934
C           98.06303281441903        2.76894065092384       -0.59687607471566
C           99.38509051366043        3.28404876434854       -0.90736754239488
C          100.27330153440822        2.32166101506611       -0.66823347586656
C           99.54892255802271        1.16019501431028       -0.21461917509180
N           98.22595250618649        1.47407276629004       -0.19120982833608
H          101.29443749959523       -0.00180392997693       -0.00960972080994
H          101.15297677067467       -2.51856681907296        1.22896389273978
H           99.20089882619108       -4.35455176615577        1.66466597493496
H           97.43658446919896       -0.81890607210225        0.19949960769191
H           95.89005904276920       -4.78054294633087        3.17534294721214
H           95.83981012031333       -7.23156749877569        3.55231359714178
H           96.87843547465324       -7.85901006110623       -0.59675872657247
H           96.92634429917254       -5.40450700874511       -0.93930886177681
H           93.80620512105455       -4.43845607379344        0.68111457734791
H           92.06241718781800       -2.63287800507592        0.19876714702653
H           92.30698284286333        2.83146829443136        0.34777857569573
H           94.26894123515919        4.65165288702972       -0.04084972692779
H           95.92322368840172        0.79615726918796       -0.38764088745647
H           97.56319030449248        5.73542303867472        0.67571958601243
H           97.60151084423249        8.07552526626926       -0.14350795111635
H           96.40015080837044        6.69063866641233       -4.06008608310789
H           96.37634912203278        4.36230673091556       -3.21154570018331
H           99.61610460372836        4.26867014185454       -1.26777642063624
H          101.33780325892603        2.38713971547680       -0.79864656310785
C           46.48732485943982        0.00032257243035       -0.00279001440807
C           47.91202133575111       -0.02106916247961       -0.02060656984511
C           49.09818478133958       -0.04239805310452       -0.02220908318857
C           50.43040373883471       -0.05462229569228       -0.02435314167634
C           51.70407000904562       -0.04450485530319       -0.02907487020441
C           52.90741010861222       -0.02556953565700       -0.03525728614938