128
 energy: -232.786451327158 gnorm: 2.656690860841 xtb: 6.5.1 (b24c23e)
C           15.89740700000000       -0.00079400000000        0.06296800000000
C           16.62780400000000       -1.37838600000000        0.03375400000000
C           16.02251800000000       -2.61099100000000        0.12404700000000
C           17.04548400000000       -3.58677100000000        0.00054200000000
C           18.24130800000000       -2.91522200000000       -0.16573400000000
N           17.98036400000000       -1.56969600000000       -0.09053200000000
C           19.66337100000000       -3.56512400000000       -0.42553800000000
C           20.79238200000000       -2.80806100000000       -0.37715400000000
C           22.09633000000000       -3.35976000000000       -0.68352600000000
C           22.99648900000000       -2.38891700000000       -0.58360600000000
N           20.98713000000000       -1.48405100000000       -0.08483400000000
C           22.31705900000000       -1.16969700000000       -0.19182600000000
C           22.98332900000000        0.00000000000000        0.00000000000000
C           22.20600500000000        1.30435800000000        0.46142200000000
C           22.74813800000000        2.37874200000000        1.13879500000000
C           21.72255300000000        3.34305600000000        1.30224100000000
C           20.57984400000000        2.82578100000000        0.73084500000000
C           19.16853400000000        3.54268200000000        0.64166900000000
C           19.13192200000000        5.01736400000000        0.74768200000000
C           19.44168200000000        5.81139400000000       -0.36235200000000
C           19.41522900000000        7.20466000000000       -0.26123500000000
C           19.07986500000000        7.81275300000000        0.95547000000000
C           19.06199500000000        9.29389800000000        1.01991400000000
O           18.73467800000000        9.76485400000000        2.23842400000000
O           19.30737400000000       10.06221000000000        0.10718200000000
C           18.77183600000000        7.02096000000000        2.06944200000000
C           18.79949400000000        5.62851700000000        1.96310600000000
C           18.04415200000000        2.80170100000000        0.46376900000000
C           16.72109400000000        3.39146900000000        0.36058600000000
C           15.83716000000000        2.40988600000000        0.20694500000000
C           16.56077500000000        1.16250300000000        0.20004000000000
N           17.88178000000000        1.44990100000000        0.34436000000000
N           20.87098300000000        1.56409100000000        0.26794000000000
C           19.70149700000000       -5.00442800000000       -0.77307200000000
C           19.43469400000000       -5.41802000000000       -2.08345100000000
C           19.45319599999999       -6.77566400000000       -2.41306000000000
C           19.74238500000000       -7.72977900000000       -1.42843000000000
C           19.77374900000000       -9.18116100000000       -1.72939400000000
O           19.50710800000000       -9.45904500000000       -3.01934700000000
O           20.00840400000000      -10.07909300000000       -0.94020700000000
C           20.01116800000000       -7.31908200000000       -0.11638800000000
C           19.98767000000000       -5.96072900000000        0.20846700000000
H           14.81936300000000        0.00447800000000       -0.04344500000000
H           14.96513000000000       -2.78796100000000        0.24668100000000
H           16.91889100000000       -4.65913600000000        0.00665000000000
H           18.67994300000000       -0.83231400000000       -0.12651500000000
H           22.31005300000000       -4.37645400000000       -0.96046500000000
H           24.04907400000000       -2.51147400000000       -0.76267400000000
H           23.77144000000000        2.46774900000000        1.47011500000000
H           21.81001700000000        4.30674900000000        1.78013700000000
H           19.69934700000000        5.32967700000000       -1.30345300000000
H           19.65564400000000        7.80497400000000       -1.13484900000000
H           18.76546200000000       10.73471200000000        2.11769200000000
H           18.50702500000000        7.46907700000000        3.02209700000000
H           18.55898500000000        5.00248200000000        2.82031000000000
H           16.48933700000000        4.44014200000000        0.39923400000000
H           14.77327400000000        2.51949400000000        0.10096000000000
H           20.18701400000000        0.91055500000000       -0.10434500000000
H           19.21449100000000       -4.66765100000000       -2.83989600000000
H           19.24120400000000       -7.06958600000000       -3.43678400000000
H           19.56629400000000      -10.43477400000000       -3.05352300000000
H           20.24044500000000       -8.04653500000000        0.65820300000000
H           20.19435500000000       -5.63051300000000        1.22395100000000
C           33.21710300000000       -0.02752300000000        0.05664000000000
C           32.48670600000000        1.21694100000000        0.64818400000000
C           33.09199200000000        2.27822400000000        1.28154400000000
C           32.06902600000000        3.20580300000000        1.60865000000000
C           30.87320200000000        2.68008800000000        1.15892700000000
N           31.13414500000000        1.44366800000000        0.62286700000000
C           29.45113900000000        3.37749100000000        1.21809100000000
C           28.32212700000000        2.67909400000000        0.92190300000000
C           27.01818000000000        3.30959800000000        0.89541000000000
C           26.11802000000000        2.39700600000000        0.54943700000000
N           28.12738000000000        1.36455900000000        0.58956100000000
C           26.79745100000000        1.13154400000000        0.35298100000000
C           26.13118000000000        0.00000000000000        0.00000000000000
C           26.90850500000000       -1.37278800000000       -0.17237900000000
C           26.36637100000000       -2.63683600000000       -0.04861700000000
C           27.39195700000000       -3.57207300000000       -0.33488100000000
C           28.53466500000000       -2.85351400000000       -0.61369900000000
C           29.94597600000000       -3.45433600000000       -1.01484000000000
C           29.98258800000000       -4.82001600000000       -1.58126800000000
C           29.67282800000000       -5.03206700000000       -2.92948700000000
C           29.69928100000000       -6.32278000000000       -3.46378800000000
C           30.03464500000000       -7.41184700000000       -2.64887700000000
C           30.05251500000000       -8.76466700000000       -3.25536100000000
O           30.37983200000000       -9.73196500000000       -2.37734900000000
O           29.80713600000000       -9.04219300000000       -4.41568900000000
C           30.34267400000000       -7.20356100000000       -1.29814100000000
C           30.31501600000000       -5.91124500000000       -0.76887400000000
C           31.07035700000000       -2.71224500000000       -0.84163000000000
C           32.39341600000000       -3.19314700000000       -1.19828900000000
C           33.27735000000000       -2.24687000000000       -0.89551800000000
C           32.55373500000000       -1.12879700000000       -0.34241400000000
N           31.23272900000000       -1.45039500000000       -0.34227000000000
N           28.24352700000000       -1.51820100000000       -0.46177700000000
C           29.41301199999999        4.81983800000000        1.55277300000000
C           29.67981600000000        5.77705000000000        0.56692500000000
C           29.66131400000000        7.13836700000000        0.88101600000000
C           29.37212500000000        7.54973800000000        2.18891800000000
C           29.34076000000000        8.98199900000000        2.57064200000000
O           29.60740200000000        9.80875000000000        1.54220600000000
O           29.10610600000000        9.43077900000000        3.67865700000000
C           29.10334100000000        6.59436800000000        3.17755000000000
C           29.12684000000000        5.23454700000000        2.85889200000000
H           34.29514699999999        0.01547600000000       -0.04084200000000
H           34.14937900000000        2.38142500000000        1.47050800000000
H           32.19561900000000        4.16160100000000        2.09491500000000
H           30.43456600000000        0.80069000000000        0.26009100000000
H           26.80445700000000        4.34254000000000        1.10371300000000
H           25.06543500000000        2.58684200000000        0.44432600000000
H           25.34307000000000       -2.86494500000000        0.20762600000000
H           27.30449300000000       -4.64774300000000       -0.33979400000000
H           29.41516200000000       -4.17953100000000       -3.55471000000000
H           29.45886600000000       -6.46767900000000       -4.51382800000000
H           30.34904800000000      -10.54474300000000       -2.92011100000000
H           30.60748500000000       -8.03124400000000       -0.64752600000000
H           30.55552500000000       -5.73599800000000        0.27802900000000
H           32.62517300000000       -4.14783500000000       -1.63392600000000
H           34.34123599999999       -2.29732300000000       -1.03939700000000
H           28.92749600000000       -0.76711800000000       -0.50152500000000
H           29.90001800000000        5.44549000000000       -0.44566100000000
H           29.87330500000000        7.86008800000000        0.09774000000000
H           29.54821600000000       10.69623200000000        1.94913600000000
H           28.87406500000000        6.89730800000000        4.19608200000000
H           28.92015500000000        4.48408000000000        3.61853000000000
C           23.94629600000000        0.00000000000000        0.00000000000000
C           25.16821400000000        0.00000000000000        0.00000000000000
128
 energy: -233.393941940858 gnorm: 0.626346587930 xtb: 6.5.1 (b24c23e)
C           15.90771122343861       -0.01787723679712        0.06249598924415
C           16.62382355978820       -1.36714425414460        0.03451249231394
C           16.02438160104490       -2.61416651809086        0.12280694548725
C           17.04350198650289       -3.58570861456250       -0.00047329504096
C           18.25208021107910       -2.91884242023594       -0.16700144970930
N           17.98032493936221       -1.56968063594655       -0.09156493553717
C           19.64803181988361       -3.55580543019458       -0.42248239983641
C           20.79298615375476       -2.81075679455219       -0.37768223464449
C           22.09601087915843       -3.36583334685017       -0.68476609250797
C           22.99670776627267       -2.38750536710046       -0.58401862640246
N           20.97735476068970       -1.48390064376306       -0.08433604601884
C           22.26873724479686       -1.19324259660041       -0.19663713840499
C           22.80900380994668        0.01638168608305        0.00452269494841
C           22.18661016179151        1.30745003701291        0.46364221392494
C           22.74513794607882        2.38005957119085        1.13814949826696
C           21.72356681721398        3.34310210194306        1.30109424322421
C           20.56782848599979        2.83165024052205        0.73067403246954
C           19.18412984879859        3.53313830088651        0.64208837769143
C           19.13435196979077        5.01553877749829        0.74839177705453
C           19.44186974889974        5.81211339819927       -0.36140651595880
C           19.41497908017480        7.20192453884589       -0.26093961294513
C           19.08013219365699        7.81208538832973        0.95447714148386
C           19.06221183933160        9.29477497757223        1.01930848658494
O           18.73523483874817        9.76654360679499        2.23609142337363
O           19.30678274068576       10.05783054282204        0.10925578632996
C           18.77195650962456        7.01901060648262        2.06827554082745
C           18.79937446754215        5.62944348991326        1.96220014476378
C           18.04152190470569        2.79927925033793        0.46270955712538
C           16.71986765481338        3.39588548231257        0.36090779734467
C           15.83365294443328        2.41223275889772        0.20674905758899
C           16.56338888190842        1.16516723496255        0.19973897576707
N           17.88692133786202        1.44616662106402        0.34438811853789
N           20.86579369320425        1.56859833186905        0.26765133357913
C           19.69900344928322       -5.00287942274467       -0.77203905015179
C           19.43457993997848       -5.41911825070645       -2.08262706925149
C           19.45358256084210       -6.77392218179913       -2.41161078464094
C           19.74257605658670       -7.72920704480880       -1.42733350153865
C           19.77393146614493       -9.18230536016044       -1.72888598652981
O           19.50771908134456       -9.46109718301112       -3.01729166276899
O           20.00779654424387      -10.07438173996981       -0.94166839957420
C           20.01113734361824       -7.31636469546614       -0.11635375017611
C           19.98771524116999       -5.96115003675226        0.20752252220628
H           14.82281006696436        0.00120878266813       -0.04269784795978
H           14.96601065881255       -2.78880989636322        0.24658838648938
H           16.91844832045249       -4.65849590897842        0.00673630849807
H           18.67938359023227       -0.83296032060305       -0.12657365964469
H           22.30932445057476       -4.37915442694149       -0.96097553113464
H           24.04854695842748       -2.50822477920833       -0.76386128706402
H           23.76841437606426        2.46725013969864        1.47123024668513
H           21.81067006703842        4.30631644566608        1.77991102347177
H           19.69919088780569        5.33054211674685       -1.30260162715286
H           19.65526430745915        7.80502278556502       -1.13359520283995
H           18.76485240057367       10.73461224070379        2.11996662793050
H           18.50737601686936        7.46929514532859        3.02098107436708
H           18.55928828792898        5.00360546708719        2.81961567196200
H           16.49021512276993        4.44275085328214        0.39957067241635
H           14.77116913768489        2.51894542084662        0.10076248491399
H           20.18717583626236        0.91152027737344       -0.10410690402794
H           19.21459858681273       -4.66885195410996       -2.83939290050523
H           19.24155552134476       -7.06996745476480       -3.43561243892709
H           19.56578446873433      -10.43431027868239       -3.05579677399596
H           20.24009915070791       -8.04638471862516        0.65690652572700
H           20.19414048524755       -5.63124336278544        1.22309681936444
C           33.20679871106652       -0.01204138337236        0.06387754079220
C           32.49068636328079        1.20655226635920        0.64382159004404
C           33.09012827419720        2.28161850730475        1.28185936307233
C           32.07100796658595        3.20530850355549        1.60726608995541
C           30.86242976443237        2.68389244435089        1.15941740434363
N           31.13418418301373        1.44411743562805        0.62193680604302
C           29.46647804087970        3.36779152470155        1.21664416321004
C           28.32152303473220        2.68174056865991        0.92263949317970
C           27.01849899790207        3.31558235306737        0.89702457085720
C           26.11780141965248        2.39592930307935        0.54843525084522
N           28.13715516745438        1.36420141617329        0.58993868292043
C           26.84577278148499        1.15474750459314        0.35923748401457
C           26.30550593164562       -0.01667060489156       -0.00330228109083
C           26.92789979835758       -1.37654718848084       -0.17178076780841
C           26.36937132069029       -2.63772426909000       -0.04978484210222
C           27.39094305066988       -3.57160020557469       -0.33592665496803
C           28.54668074718633       -2.85868368485215       -0.61648343681728
C           29.93037999689493       -3.44599331181685       -1.01018606098334
C           29.98015798658160       -4.81870286649603       -1.57981530130551
C           29.67264024387314       -5.03313410402596       -2.92896438740182
C           29.69953090654278       -6.32046718426334       -3.46229752734737
C           30.03437781971445       -7.41080515449840       -2.64946517204953
C           30.05229818428573       -8.76517948197850       -3.25629523177180
O           30.37927513706532       -9.73242914841774       -2.38019154505370
O           29.80772726379527       -9.03920820130194       -4.41187179912182
C           30.34255346642527       -7.20129551644064       -1.29830972876296
C           30.31513550954910       -5.91166696752091       -0.77009920633282
C           31.07298731573425       -2.70960505008202       -0.84149110357232
C           32.39464226813283       -3.19723897501278       -1.19998149397550
C           33.28085700201092       -2.24887976994984       -0.89674536712032
C           32.55112097439053       -1.13104345005093       -0.34387753778899
N           31.22758785938604       -1.44706982808122       -0.34057064495052
N           28.24871624807568       -1.52210039401133       -0.46405590808970
C           29.41550563080994        4.81799055960032        1.55300201966993
C           29.67993000830140        5.77766222604420        0.56815388657457
C           29.66092741415573        7.13616047532027        0.88153045363981
C           29.37193386727621        7.54873496116397        2.18964162118475
C           29.34057763376111        8.98279429072850        2.57160931965270
O           29.60679086861074        9.80966294006956        1.54496335621632
O           29.10671345117651        9.42722298277008        3.67523817641099
C           29.10337172720047        6.59192362720157        3.17636235098013
C           29.12679470718080        5.23534691732981        2.85823654235512
H           34.29169990936059        0.01806321518022       -0.03870835239880
H           34.14849847181731        2.38222532418169        1.47080583320066
H           32.19606167390731        4.16099016146159        2.09470516588358
H           30.43512545576315        0.80129404897178        0.26032835985383
H           26.80518550667205        4.34518283788323        1.10446743790784
H           25.06596213345889        2.58446997795775        0.44180791836002
H           25.34609545013161       -2.86499917725865        0.20884658967994
H           27.30383992748409       -4.64725497171114       -0.33980204149822
H           29.41531813208266       -4.18068601889429       -3.55433688629715
H           29.45924571189435       -6.46828472228479       -4.51272904730192
H           30.34965759136034      -10.54567381118414       -2.91803318175473
H           30.60713400327452       -8.03093872324691       -0.64862121936791
H           30.55522172126037       -5.73669087975433        0.27690472001752
H           32.62429486420645       -4.15031787443681       -1.63479477569880
H           34.34334085067451       -2.29674411336154       -1.03932758703459
H           28.92733413978438       -0.76808757440243       -0.50174497222904
H           29.89991043810638        5.44633788575010       -0.44467289431154
H           29.87295348967352        7.85990362957814        0.09895827999514
H           29.54872554035304       10.69683688434578        1.94689562974295
H           28.87441083604745        6.89775494744746        4.19485571866918
H           28.92036952142124        4.48511586194814        3.61809392724692
C           24.02798140178963        0.00799202959710        0.00087876923054
C           25.08652778235030       -0.00753774844668       -0.00279782651621
128
 energy: -233.550900690186 gnorm: 0.348131875802 xtb: 6.5.1 (b24c23e)
C           15.93431318286921       -0.04685041195403        0.06223037686357
C           16.62279790774841       -1.35356469065101        0.03572097224258
C           16.02966507887032       -2.61797180758627        0.11778006511561
C           17.04138609856428       -3.58238040728300       -0.00529333759989
C           18.26574239571483       -2.92135700698774       -0.16881719439579
N           17.98181048832906       -1.56955515001690       -0.09405970812283
C           19.61165158169250       -3.54339192336234       -0.41688084327074
C           20.77908884463550       -2.82059143100507       -0.37887877206657
C           22.08965213243473       -3.37676591852772       -0.68657740967906
C           22.98346009918209       -2.38535933597878       -0.58643873014004
N           20.92653767844902       -1.49695711986334       -0.08718606824723
C           22.19835882157948       -1.21070127939913       -0.20452106628832
C           22.67953915585506        0.04404899687437        0.01824023858067
C           22.14815131451256        1.30308213180689        0.46803415360684
C           22.73049714847407        2.38346746260701        1.13403384536755
C           21.72136559296468        3.34524309666179        1.29516712561646
C           20.54397165843722        2.84396461453630        0.73095811210770
C           19.20916178424345        3.51443149689897        0.64253106212196
C           19.14536712560042        5.00681490578254        0.75097680513683
C           19.44355542916890        5.80961100725701       -0.35812685758257
C           19.41386808621982        7.19593840608375       -0.25965045111877
C           19.08054372714467        7.80905062002005        0.95303623626830
C           19.06246672202359        9.29294201169069        1.01942239491776
O           18.73597124160457        9.76914226310943        2.23291146805209
O           19.30675537307764       10.04753084561297        0.10943777340563
C           18.77191258332074        7.01469657468728        2.06450898305630
C           18.80022219683291        5.62802276275739        1.95897483074678
C           18.04222207234704        2.79378567449296        0.45944726258003
C           16.71954372899364        3.40283376771920        0.36170584417090
C           15.82982447325125        2.41466790427057        0.20635399251755
C           16.57174306230006        1.16471435204229        0.19757283775388
N           17.89692799264461        1.43988349273685        0.34312488238837
N           20.84062427020244        1.58128167815394        0.26888796324914
C           19.68490535015017       -4.99736334389021       -0.76752305196903
C           19.43275448918897       -5.41921495001951       -2.07891363201387
C           19.45513973031479       -6.77047649546657       -2.40773093407615
C           19.74276621472021       -7.72649691481535       -1.42537754516383
C           19.77370188410079       -9.18055716374688       -1.72855780389667
O           19.50847648654983       -9.46416326534526       -3.01463659797380
O           20.00745720786145      -10.06424352012163       -0.94028964455550
C           20.01164218041737       -7.31034207230001       -0.11700719189250
C           19.98654862772960       -5.95859213860548        0.20574351018052
H           14.84286713087737       -0.01560515688043       -0.03870013369057
H           14.97068087988130       -2.79227412801796        0.24593931325538
H           16.91642340303105       -4.65546851893279        0.00691498533643
H           18.67952860439433       -0.83389450157852       -0.12694804692268
H           22.30645386941194       -4.38939943514372       -0.96253726178334
H           24.03982779109052       -2.49391176784603       -0.76759128874619
H           23.75348750017208        2.46423111253233        1.47450940989813
H           21.81355585653078        4.30510263817100        1.77904702573162
H           19.69928613269142        5.33256163532944       -1.30035961349077
H           19.65380306986147        7.80402952966134       -1.12920757945079
H           18.76319490037441       10.73613519354045        2.12648573655811
H           18.50872541455757        7.46920238025941        3.01623310491945
H           18.56034256721288        5.00670088869785        2.81792776269416
H           16.49412324481553        4.45157221173974        0.40103989200626
H           14.76525859115733        2.51658963528383        0.10032839746988
H           20.17633936696440        0.91684630101765       -0.10415705066482
H           19.21430948447334       -4.67235827391421       -2.83791270353035
H           19.24309972691250       -7.07067557980992       -3.43084767583103
H           19.56430350944180      -10.43472195334084       -3.06258781757570
H           20.23898211862859       -8.04479160579434        0.65260068737934
H           20.19320707671125       -5.63286547958785        1.22115621016743
C           33.18019667617425        0.01397557223782        0.07663051677495
C           32.49171191504436        1.19387207612664        0.63881330616395
C           33.08484464309852        2.28727375646118        1.27907220872157
C           32.07312372870572        3.20449461990086        1.60146528697571
C           30.84876744454791        2.68695433622763        1.15892200321014
N           31.13269882671885        1.44512390221424        0.61965050677231
C           29.50285817939989        3.35418412280794        1.21608541933820
C           28.33542055030831        2.69106789088612        0.92597926890558
C           27.02485764199123        3.32616624862397        0.90030738687048
C           26.13104929170048        2.39509621443276        0.54530977085438
N           28.18797210088127        1.37714996260475        0.59324514692145
C           26.91615102591811        1.17388790739688        0.36001829329669
C           26.43497051522044       -0.04755154795466       -0.00344575080245
C           26.96635846293247       -1.37461186339978       -0.16589650308545
C           26.38401238268945       -2.63892501796945       -0.05499180928674
C           27.39314425056737       -3.57085663745767       -0.34218450618285
C           28.57053780598950       -2.86981845408710       -0.62175087042601
C           29.90534802149119       -3.42947051817668       -1.00140287325338
C           29.96914272142033       -4.81206420241624       -1.57359337392745
C           29.67095447916273       -5.03236804421119       -2.92491085734775
C           29.70064190103396       -6.31569429519543       -3.45846129850124
C           30.03396630764293       -7.40744653811458       -2.64939256166020
C           30.05204327573677       -8.76359223265312       -3.25537131486441
O           30.37853871646771       -9.73332584196395       -2.38419911787983
O           29.80775467483466       -9.03008334329201       -4.40709110919960
C           30.34259738378195       -7.19575067895373       -1.29974244361997
C           30.31428775448375       -5.90895094575697       -0.77234534464747
C           31.07228738480336       -2.70323172210157       -0.84194393850885
C           32.39496610955992       -3.20380757237245       -1.20238339084284
C           33.28468536438397       -2.25087921148393       -0.89819041293316
C           32.54276670428395       -1.12966737701268       -0.34561050176033
N           31.21758146656833       -1.44088743810169       -0.33888285370448
N           28.27388557187083       -1.53399185117589       -0.46863725049647
C           29.42960394265137        4.81103505723574        1.55456553047784
C           29.68175531747622        5.77608366189118        0.57151649836608
C           29.65937011741373        7.13134117030416        0.88345362707922
C           29.37174352399341        7.54543528626894        2.19017480595870
C           29.34080753170840        8.98108469612360        2.57111898102190
O           29.60603335869718        9.81121333965434        1.54871136764257
O           29.10705272091372        9.41754264430794        3.67192475604730
C           29.10286709918506        6.58683302214536        3.17307809703398
C           29.12796119290907        5.23385827829064        2.85549947232341
H           34.27164277237890        0.03130003223758       -0.02759622352809
H           34.14382844809513        2.38561286960714        1.47177884495415
H           32.19808654709911        4.15820396690648        2.09350751211311
H           30.43498060098621        0.80229702448063        0.26041257223879
H           26.80805600983055        4.35504078485490        1.10766492942745
H           25.07468154394621        2.57334855282877        0.43205644463311
H           25.36102211196037       -2.86377094853936        0.21313136881951
H           27.30095411683727       -4.64578255837366       -0.34003007342629
H           29.41522296910412       -4.18349649000883       -3.55323832384510
H           29.46070697735790       -6.46936400989230       -4.50836159819985
H           30.35131507692553      -10.54995812368381       -2.91288900504225
H           30.60578462785341       -8.02872713471412       -0.65282352669652
H           30.55416743635537       -5.73870087438602        0.27400816297632
H           32.62038668935432       -4.15886158737830       -1.63743666724638
H           34.34925132145801       -2.29444382055495       -1.03865935427645
H           28.93817054686724       -0.77282579291797       -0.50417778534709
H           29.90019961227788        5.44880830916436       -0.44177781500447
H           29.87140934434750        7.85840017606300        0.10353488353786
H           29.55020650063427       10.70024963768744        1.94100998677342
H           28.87552781311561        6.89826144865404        4.19029256442281