      -----------------------------------------------------------      
     |                   =====================                   |     
     |                           x T B                           |     
     |                   =====================                   |     
     |                         S. Grimme                         |     
     |          Mulliken Center for Theoretical Chemistry        |     
     |                    University of Bonn                     |     
      -----------------------------------------------------------      

   * xtb version 6.5.1 (b24c23e) compiled by 'conda@728c89f4b128' on 2022-07-12

   xtb is free software: you can redistribute it and/or modify it under
   the terms of the GNU Lesser General Public License as published by
   the Free Software Foundation, either version 3 of the License, or
   (at your option) any later version.
   
   xtb is distributed in the hope that it will be useful,
   but WITHOUT ANY WARRANTY; without even the implied warranty of
   MERCHANTABILITY or FITNESS FOR A PARTICULAR PURPOSE.  See the
   GNU Lesser General Public License for more details.
   
   Cite this work as:
   * C. Bannwarth, E. Caldeweyher, S. Ehlert, A. Hansen, P. Pracht,
     J. Seibert, S. Spicher, S. Grimme, WIREs Comput. Mol. Sci., 2020, 11,
     e01493. DOI: 10.1002/wcms.1493
   
   for GFN2-xTB:
   * C. Bannwarth, S. Ehlert and S. Grimme., J. Chem. Theory Comput., 2019,
     15, 1652-1671. DOI: 10.1021/acs.jctc.8b01176
   for GFN1-xTB:
   * S. Grimme, C. Bannwarth, P. Shushkov, J. Chem. Theory Comput., 2017,
     13, 1989-2009. DOI: 10.1021/acs.jctc.7b00118
   for GFN0-xTB:
   * P. Pracht, E. Caldeweyher, S. Ehlert, S. Grimme, ChemRxiv, 2019, preprint.
     DOI: 10.26434/chemrxiv.8326202.v1
   for GFN-FF:
   * S. Spicher and S. Grimme, Angew. Chem. Int. Ed., 2020, 59, 15665-15673.
     DOI: 10.1002/anie.202004239
   
   for ALPB and GBSA implicit solvation:
   * S. Ehlert, M. Stahn, S. Spicher, S. Grimme, J. Chem. Theory Comput.,
     2021, 17, 4250-4261. DOI: 10.1021/acs.jctc.1c00471
   
   for DFT-D4:
   * E. Caldeweyher, C. Bannwarth and S. Grimme, J. Chem. Phys., 2017,
     147, 034112. DOI: 10.1063/1.4993215
   * E. Caldeweyher, S. Ehlert, A. Hansen, H. Neugebauer, S. Spicher,
     C. Bannwarth and S. Grimme, J. Chem. Phys., 2019, 150, 154122.
     DOI: 10.1063/1.5090222
   * E. Caldeweyher, J.-M. Mewes, S. Ehlert and S. Grimme, Phys. Chem. Chem. Phys.
     2020, 22, 8499-8512. DOI: 10.1039/D0CP00502A
   
   for sTDA-xTB:
   * S. Grimme and C. Bannwarth, J. Chem. Phys., 2016, 145, 054103.
     DOI: 10.1063/1.4959605
   
   in the mass-spec context:
   * V. Asgeirsson, C. Bauer and S. Grimme, Chem. Sci., 2017, 8, 4879.
     DOI: 10.1039/c7sc00601b
   * J. Koopman and S. Grimme, ACS Omega 2019, 4, 12, 15120-15133.
     DOI: 10.1021/acsomega.9b02011
   
   for metadynamics refer to:
   * S. Grimme, J. Chem. Theory Comput., 2019, 155, 2847-2862
     DOI: 10.1021/acs.jctc.9b00143
   
   for SPH calculations refer to:
   * S. Spicher and S. Grimme, J. Chem. Theory Comput., 2021, 17, 1701-1714
     DOI: 10.1021/acs.jctc.0c01306
   
   with help from (in alphabetical order)
   P. Atkinson, C. Bannwarth, F. Bohle, G. Brandenburg, E. Caldeweyher
   M. Checinski, S. Dohm, S. Ehlert, S. Ehrlich, I. Gerasimov, C. Hölzer
   A. Katbashev, J. Koopman, C. Lavigne, S. Lehtola, F. März, M. Müller,
   F. Musil, H. Neugebauer, J. Pisarek, C. Plett, P. Pracht, F. Pultar,
   J. Seibert, P. Shushkov, S. Spicher, M. Stahn, M. Steiner, T. Strunk,
   J. Stückrath, T. Rose, and J. Unsleber
   
 * started run on 2022/07/29 at 17:46:13.074     

           -------------------------------------------------
          |                Calculation Setup                |
           -------------------------------------------------

          program call               : xtb Fe_C2Py_C6_2.xyz --gfn 1 --opt -T 48
          hostname                   : cx3-14-28.cx3.hpc.ic.ac.uk
          coordinate file            : Fe_C2Py_C6_2.xyz
          omp threads                :                     1

   ID    Z sym.   atoms
    1   26 Fe     1, 59
    2    6 C      2-6, 8-13, 15-19, 21-26, 28-33, 35-40, 60-64, 66-71, 73-77,
                  79-84, 86-91, 93-98, 117-122
    3    7 N      7, 14, 20, 27, 34, 41, 65, 72, 78, 85, 92, 99
    4    1 H      42-58, 100-116
########################################################################
[WARNING] Please study the warnings concerning your input carefully
-1- prog_main_parseArguments: Unknown option '-T' provided
########################################################################

           -------------------------------------------------
          |                 G F N 1 - x T B                 |
           -------------------------------------------------

        Reference                      10.1021/acs.jctc.7b00118
      * Hamiltonian:
        H0-scaling (s, p, d)           1.850000    2.250000    2.000000
        zeta-weighting                 0.000000
      * Dispersion:
        s8                             2.400000
        a1                             0.630000
        a2                             5.000000
        s9                             0.000000
      * Repulsion:
        kExp                           1.500000
        rExp                           1.000000
      * Coulomb:
        alpha                          2.000000
        third order                    atomic
        anisotropic                    false
      * Halogen bond correction:
        rad-scale                      1.300000
        damping                        0.440000


          ...................................................
          :                      SETUP                      :
          :.................................................:
          :  # basis functions                 432          :
          :  # atomic orbitals                 430          :
          :  # shells                          246          :
          :  # electrons                       406          :
          :  # halogen bonds                     0          :
          :  max. iterations                   250          :
          :  Hamiltonian                  GFN1-xTB          :
          :  restarted?                      false          :
          :  GBSA solvation                  false          :
          :  PC potential                    false          :
          :  electronic temp.          300.0000000     K    :
          :  accuracy                    1.0000000          :
          :  -> integral cutoff          0.2500000E+02      :
          :  -> integral neglect         0.1000000E-07      :
          :  -> SCF convergence          0.1000000E-05 Eh   :
          :  -> wf. convergence          0.2000000E-04 e    :
          :  Broyden damping             0.4000000          :
          ...................................................

 iter      E             dE          RMSdq      gap      omega  full diag
   1   -201.3058490 -0.201306E+03  0.123E+01    0.15       0.0  T
   2   -127.6972494  0.736086E+02  0.128E+01    0.01       1.0  T
   3   -202.6054640 -0.749082E+02  0.818E+00    0.05       1.0  T
   4   -166.3719811  0.362335E+02  0.881E+00    0.22       1.0  T
   5   -177.0754976 -0.107035E+02  0.778E+00    0.05       1.0  T
   6   -204.2673899 -0.271919E+02  0.551E+00    0.02       1.0  T
   7   -196.2780557  0.798933E+01  0.592E+00    0.07       1.0  T
   8   -218.9973479 -0.227193E+02  0.263E+00    0.06       1.0  T
   9   -218.8761545  0.121193E+00  0.293E+00    0.06       1.0  T
  10   -219.6558866 -0.779732E+00  0.215E+00    0.11       1.0  T
  11   -217.6570215  0.199887E+01  0.313E+00    0.17       1.0  T
  12   -218.4411799 -0.784158E+00  0.275E+00    0.02       1.0  T
  13   -219.0493058 -0.608126E+00  0.226E+00    0.16       1.0  T
  14   -221.2877800 -0.223847E+01  0.137E+00    0.07       1.0  T
  15   -221.8042759 -0.516496E+00  0.918E-01    0.05       1.0  T
  16   -221.5490418  0.255234E+00  0.113E+00    0.02       1.0  T
  17   -221.7527449 -0.203703E+00  0.914E-01    0.02       1.0  T
  18   -219.3208750  0.243187E+01  0.213E+00    0.11       1.0  T
  19   -219.3374490 -0.165740E-01  0.213E+00    0.11       1.0  T
  20   -220.5101446 -0.117270E+01  0.164E+00    0.05       1.0  T
  21   -220.2638893  0.246255E+00  0.167E+00    0.09       1.0  T
  22   -222.0375028 -0.177361E+01  0.466E-01    0.02       1.0  T
  23   -221.8630951  0.174408E+00  0.643E-01    0.01       1.0  T
  24   -221.9313990 -0.683038E-01  0.564E-01    0.00       1.0  T
  25   -221.8322499  0.991490E-01  0.717E-01    0.00       1.0  T
  26   -221.4147746  0.417475E+00  0.105E+00    0.02       1.0  T
  27   -222.1512284 -0.736454E+00  0.539E-02    0.03       1.0  T
  28   -221.5387424  0.612486E+00  0.963E-01    0.03       1.0  T
  29   -222.0191677 -0.480425E+00  0.451E-01    0.01       1.0  T
  30   -221.9917196  0.274481E-01  0.494E-01    0.01       1.0  T
  31   -221.9016907  0.900288E-01  0.618E-01    0.00       1.0  T
  32   -222.1520895 -0.250399E+00  0.217E-02    0.03       1.0  T
  33   -222.1456380  0.645156E-02  0.102E-01    0.03       1.0  T
  34   -222.1501487 -0.451074E-02  0.577E-02    0.03       1.0  T
  35   -222.1399519  0.101968E-01  0.137E-01    0.02       1.0  T
  36   -222.1492873 -0.933539E-02  0.680E-02    0.03       1.0  T
  37   -222.1487997  0.487533E-03  0.731E-02    0.02       1.0  T
  38   -222.1507464 -0.194664E-02  0.486E-02    0.03       1.0  T
  39   -222.1521921 -0.144576E-02  0.144E-02    0.03       1.0  T
  40   -222.1520478  0.144324E-03  0.209E-02    0.03       1.0  T
  41   -222.1521948 -0.146998E-03  0.141E-02    0.03       1.0  T
  42   -222.1521356  0.592157E-04  0.169E-02    0.03       1.0  T
  43   -222.1523154 -0.179849E-03  0.572E-04    0.03      15.8  T
  44   -222.1523066  0.884603E-05  0.360E-03    0.03       2.5  T
  45   -222.1523054  0.120696E-05  0.390E-03    0.03       2.3  T
  46   -222.1523136 -0.823561E-05  0.173E-03    0.03       5.2  T
  47   -222.1523153 -0.172683E-05  0.625E-04    0.03      14.5  T
  48   -222.1523155 -0.160925E-06  0.374E-04    0.03      24.2  T
  49   -222.1523156 -0.910236E-07  0.298E-05    0.03     303.5  T
  50   -222.1523156  0.678597E-09  0.456E-05    0.03     198.7  T

   *** convergence criteria satisfied after 50 iterations ***

         #    Occupation            Energy/Eh            Energy/eV
      -------------------------------------------------------------
         1        2.0000           -0.7780191             -21.1710
       ...           ...                  ...                  ...
       197        2.0000           -0.3972148             -10.8088
       198        1.9995           -0.3875462             -10.5457
       199        1.9995           -0.3874888             -10.5441
       200        1.9979           -0.3861974             -10.5090
       201        1.9979           -0.3861931             -10.5088
       202        1.3146           -0.3803157             -10.3489
       203        1.3120           -0.3803104             -10.3488 (HOMO)
       204        0.7818           -0.3792756             -10.3206 (LUMO)
       205        0.5970           -0.3788853             -10.3100
       206                         -0.3454500              -9.4002
       207                         -0.3429226              -9.3314
       208                         -0.3396226              -9.2416
       ...                                ...                  ...
       430                          1.5043758              40.9361
      -------------------------------------------------------------
                  HL-Gap            0.0010347 Eh            0.0282 eV
             Fermi-level           -0.3796971 Eh          -10.3321 eV

 SCC (total)                   0 d,  0 h,  0 min,  4.171 sec
 SCC setup                      ...        0 min,  0.006 sec (  0.146%)
 Dispersion                     ...        0 min,  0.005 sec (  0.131%)
 classical contributions        ...        0 min,  0.002 sec (  0.042%)
 integral evaluation            ...        0 min,  0.186 sec (  4.463%)
 iterations                     ...        0 min,  3.449 sec ( 82.681%)
 molecular gradient             ...        0 min,  0.505 sec ( 12.101%)
 printout                       ...        0 min,  0.018 sec (  0.435%)

         :::::::::::::::::::::::::::::::::::::::::::::::::::::
         ::                     SUMMARY                     ::
         :::::::::::::::::::::::::::::::::::::::::::::::::::::
         :: total energy            -218.472980437971 Eh    ::
         :: gradient norm              0.391242167057 Eh/a0 ::
         :: HOMO-LUMO gap              0.028155789368 eV    ::
         ::.................................................::
         :: SCC energy              -222.152315600547 Eh    ::
         :: -> electrostatic           0.171600082815 Eh    ::
         :: repulsion energy           3.779684337753 Eh    ::
         :: dispersion energy         -0.100349175177 Eh    ::
         :: halogen bond corr.         0.000000000000 Eh    ::
         :: add. restraining           0.000000000000 Eh    ::
         :: total charge               0.000000000044 e     ::
         :::::::::::::::::::::::::::::::::::::::::::::::::::::

      ----------------------------------------------------------- 
     |                   =====================                   |
     |                        A N C O P T                        |
     |                   =====================                   |
     |               Approximate Normal Coordinate               |
     |                Rational Function Optimizer                |
      ----------------------------------------------------------- 

          ...................................................
          :                      SETUP                      :
          :.................................................:
          :   optimization level            normal          :
          :   max. optcycles                   366          :
          :   ANC micro-cycles                  20          :
          :   degrees of freedom               360          :
          :.................................................:
          :   RF solver                   davidson          :
          :   write xtbopt.log                true          :
          :   linear?                        false          :
          :   energy convergence         0.5000000E-05 Eh   :
          :   grad. convergence          0.1000000E-02 Eh/α :
          :   maximium RF displ.         1.0000000          :
          :   Hlow (freq-cutoff)         0.1000000E-01      :
          :   Hmax (freq-cutoff)         5.0000000          :
          :   S6 in model hess.         20.0000000          :
          ...................................................

generating ANC from model Hessian ...
Using Lindh-Hessian (1995)
 Shifting diagonal of input Hessian by    1.0036277427115440E-002
 Lowest  eigenvalues of input Hessian
    0.010000    0.010023    0.010024    0.000000    0.000000    0.000000
    0.000000    0.000000    0.000000    0.010036    0.010050    0.010068
    0.010071    0.010107    0.010110    0.010212    0.010247    0.010359
 Highest eigenvalues
    2.482247    2.591523    2.591524    2.592965    2.592967    2.810237


........................................................................
.............................. CYCLE    1 ..............................
........................................................................
   1   -222.1523156 -0.222152E+03  0.284E-05    0.03       0.0  T
   2   -222.1522768  0.388421E-04  0.770E-03    0.03       1.2  T
   3   -222.1523155 -0.387376E-04  0.400E-04    0.03      22.7  T
   4   -222.1523155 -0.525883E-07  0.296E-04    0.03      30.6  T
   5   -222.1523156 -0.422392E-07  0.122E-04    0.03      74.1  T
   6   -222.1523156 -0.571345E-08  0.820E-05    0.03     110.4  T
     SCC iter.                  ...        0 min,  0.313 sec
     gradient                   ...        0 min,  0.374 sec
 * total energy  :  -218.4729804 Eh     change        0.3142759E-08 Eh
   gradient norm :     0.3912422 Eh/α   predicted     0.0000000E+00 (-100.00%)
   displ. norm   :     0.4061019 α      lambda       -0.9993152E-01
   maximum displ.:     0.0901273 α      in ANC's #164, #350, #145, ...

........................................................................
.............................. CYCLE    2 ..............................
........................................................................
   1   -222.1267218 -0.222127E+03  0.234E-01    0.02       0.0  T
   2   -218.2923800  0.383434E+01  0.277E+00    0.21       1.0  T
   3   -222.1200044 -0.382762E+01  0.238E-01    0.00       1.0  T
   4   -218.4299136  0.369009E+01  0.240E+00    0.10       1.0  T
   5   -221.7061802 -0.327627E+01  0.824E-01    0.03       1.0  T
   6   -219.7238304  0.198235E+01  0.192E+00    0.14       1.0  T
   7   -222.1004421 -0.237661E+01  0.289E-01    0.01       1.0  T
   8   -221.8525073  0.247935E+00  0.678E-01    0.03       1.0  T
   9   -222.1171278 -0.264621E+00  0.243E-01    0.01       1.0  T
  10   -222.1159010  0.122687E-02  0.247E-01    0.01       1.0  T
  11   -222.1408356 -0.249346E-01  0.152E-01    0.01       1.0  T
  12   -222.1542089 -0.133733E-01  0.522E-02    0.00       1.0  T
  13   -222.1559005 -0.169163E-02  0.119E-02    0.00       1.0  T
  14   -222.1559302 -0.297130E-04  0.990E-03    0.00       1.0  T
  15   -222.1559912 -0.609491E-04  0.251E-03    0.00       3.6  T
  16   -222.1559913 -0.161813E-06  0.250E-03    0.00       3.6  T
  17   -222.1559840  0.733111E-05  0.417E-03    0.00       2.2  T
  18   -222.1559953 -0.112898E-04  0.485E-04    0.00      18.7  T
  19   -222.1559951  0.233231E-06  0.764E-04    0.00      11.8  T
  20   -222.1559953 -0.271169E-06  0.413E-04    0.00      21.9  T
  21   -222.1559954 -0.108147E-06  0.752E-05    0.00     120.3  T
  22   -222.1559954 -0.410552E-09  0.702E-05    0.00     128.9  T
     SCC iter.                  ...        0 min,  1.441 sec
     gradient                   ...        0 min,  0.465 sec
 * total energy  :  -218.5498484 Eh     change       -0.7686792E-01 Eh
   gradient norm :     0.2126111 Eh/α   predicted    -0.5824155E-01 ( -24.23%)
   displ. norm   :     0.4738777 α      lambda       -0.6434153E-01
   maximum displ.:     0.1478335 α      in ANC's #98, #37, #350, ...

........................................................................
.............................. CYCLE    3 ..............................
........................................................................
   1   -222.1737312 -0.222174E+03  0.232E-01    0.06       0.0  T
   2   -218.1706723  0.400306E+01  0.282E+00    0.15       1.0  T
   3   -222.0703535 -0.389968E+01  0.512E-01    0.01       1.0  T
   4   -218.2089113  0.386144E+01  0.249E+00    0.07       1.0  T
   5   -222.1208406 -0.391193E+01  0.389E-01    0.01       1.0  T
   6   -221.4358224  0.685018E+00  0.108E+00    0.02       1.0  T
   7   -221.4319329  0.388950E-02  0.109E+00    0.01       1.0  T
   8   -221.8733750 -0.441442E+00  0.707E-01    0.02       1.0  T
   9   -222.0146973 -0.141322E+00  0.534E-01    0.02       1.0  T
  10   -222.1954582 -0.180761E+00  0.963E-02    0.04       1.0  T
  11   -222.1792402  0.162180E-01  0.184E-01    0.03       1.0  T
  12   -222.1855742 -0.633404E-02  0.155E-01    0.04       1.0  T
  13   -222.1982465 -0.126723E-01  0.694E-02    0.04       1.0  T
  14   -222.2001623 -0.191575E-02  0.431E-02    0.04       1.0  T
  15   -222.2013640 -0.120172E-02  0.403E-03    0.04       2.2  T
  16   -222.2010965  0.267485E-03  0.208E-02    0.04       1.0  T
  17   -222.2013660 -0.269521E-03  0.374E-03    0.04       2.4  T
  18   -222.2013700 -0.398380E-05  0.305E-03    0.04       3.0  T
  19   -222.2013578  0.122246E-04  0.513E-03    0.04       1.8  T
  20   -222.2013729 -0.151460E-04  0.186E-03    0.04       4.9  T
  21   -222.2013724  0.565365E-06  0.204E-03    0.04       4.4  T
  22   -222.2013748 -0.242254E-05  0.683E-04    0.04      13.3  T
  23   -222.2013751 -0.298706E-06  0.121E-04    0.04      74.7  T
  24   -222.2013751 -0.246033E-08  0.104E-04    0.04      86.7  T
     SCC iter.                  ...        0 min,  1.602 sec
     gradient                   ...        0 min,  0.476 sec
 * total energy  :  -218.5917662 Eh     change       -0.4191780E-01 Eh
   gradient norm :     0.0718538 Eh/α   predicted    -0.3939504E-01 (  -6.02%)
   displ. norm   :     0.5436986 α      lambda       -0.1775525E-01
   maximum displ.:     0.2677083 α      in ANC's #37, #41, #24, ...

........................................................................
.............................. CYCLE    4 ..............................
........................................................................
   1   -222.2450343 -0.222245E+03  0.855E-02    0.07       0.0  T
   2   -222.1463873  0.986470E-01  0.412E-01    0.12       1.0  T
   3   -221.0785252  0.106786E+01  0.143E+00    0.07       1.0  T
   4   -220.7631953  0.315330E+00  0.158E+00    0.07       1.0  T
   5   -222.2097537 -0.144656E+01  0.266E-01    0.04       1.0  T
   6   -222.2286948 -0.189411E-01  0.164E-01    0.06       1.0  T
   7   -222.2361182 -0.742338E-02  0.129E-01    0.08       1.0  T
   8   -222.2060175  0.301007E-01  0.250E-01    0.07       1.0  T
   9   -222.1697918  0.362256E-01  0.341E-01    0.06       1.0  T
  10   -222.0914448  0.783470E-01  0.484E-01    0.05       1.0  T
  11   -222.1368624 -0.454175E-01  0.406E-01    0.05       1.0  T
  12   -222.2229356 -0.860732E-01  0.187E-01    0.06       1.0  T
  13   -222.2463778 -0.234423E-01  0.789E-03    0.07       1.1  T
  14   -222.2392752  0.710262E-02  0.107E-01    0.07       1.0  T
  15   -222.2378249  0.145035E-02  0.117E-01    0.07       1.0  T
  16   -222.2389415 -0.111666E-02  0.109E-01    0.07       1.0  T
  17   -222.2418318 -0.289024E-02  0.850E-02    0.07       1.0  T
  18   -222.2451832 -0.335141E-02  0.434E-02    0.07       1.0  T
  19   -222.2463939 -0.121067E-02  0.308E-03    0.07       2.9  T
  20   -222.2463961 -0.223983E-05  0.224E-03    0.07       4.0  T
  21   -222.2463989 -0.276919E-05  0.537E-04    0.07      16.9  T
  22   -222.2463990 -0.139209E-06  0.285E-04    0.07      31.7  T
  23   -222.2463990  0.603572E-08  0.269E-04    0.07      33.7  T
  24   -222.2463990 -0.387662E-07  0.377E-05    0.07     240.4  T
  25   -222.2463990 -0.924388E-09  0.657E-06    0.07    1377.6  T
     SCC iter.                  ...        0 min,  2.795 sec
     gradient                   ...        0 min,  0.478 sec
 * total energy  :  -218.6050135 Eh     change       -0.1324737E-01 Eh
   gradient norm :     0.0374480 Eh/α   predicted    -0.1150219E-01 ( -13.17%)
   displ. norm   :     0.6661798 α      lambda       -0.1137340E-01
   maximum displ.:     0.3387685 α      in ANC's #37, #41, #24, ...

........................................................................
.............................. CYCLE    5 ..............................
........................................................................
   1   -222.2824720 -0.222282E+03  0.479E-02    0.08       0.0  T
   2   -222.2166969  0.657751E-01  0.344E-01    0.12       1.0  T
   3   -221.2116024  0.100509E+01  0.132E+00    0.05       1.0  T
   4   -221.7712087 -0.559606E+00  0.940E-01    0.04       1.0  T
   5   -222.2808058 -0.509597E+00  0.593E-02    0.07       1.0  T
   6   -222.2827498 -0.194396E-02  0.162E-02    0.08       1.0  T
   7   -222.2815509  0.119887E-02  0.465E-02    0.07       1.0  T
   8   -222.2800410  0.150996E-02  0.656E-02    0.07       1.0  T
   9   -222.2828483 -0.280737E-02  0.108E-02    0.08       1.0  T
  10   -222.2820699  0.778486E-03  0.358E-02    0.08       1.0  T
  11   -222.2819955  0.743934E-04  0.375E-02    0.08       1.0  T
  12   -222.2819979 -0.244548E-05  0.374E-02    0.08       1.0  T
  13   -222.2826309 -0.632950E-03  0.204E-02    0.08       1.0  T
  14   -222.2828938 -0.262964E-03  0.555E-03    0.08       1.6  T
  15   -222.2828441  0.497208E-04  0.105E-02    0.08       1.0  T
  16   -222.2828482 -0.407002E-05  0.101E-02    0.08       1.0  T
  17   -222.2828983 -0.500925E-04  0.447E-03    0.08       2.0  T
  18   -222.2829099 -0.116174E-04  0.123E-03    0.08       7.4  T
  19   -222.2829105 -0.634851E-06  0.737E-04    0.08      12.3  T
  20   -222.2829108 -0.303098E-06  0.262E-04    0.08      34.6  T
  21   -222.2829109 -0.410826E-07  0.589E-05    0.08     153.7  T
  22   -222.2829109 -0.213623E-08  0.662E-06    0.08    1367.0  T
     SCC iter.                  ...        0 min,  1.551 sec
     gradient                   ...        0 min,  0.486 sec
 * total energy  :  -218.6131974 Eh     change       -0.8183843E-02 Eh
   gradient norm :     0.0293461 Eh/α   predicted    -0.8210723E-02 (   0.33%)
   displ. norm   :     0.7670374 α      lambda       -0.1000093E-01
   maximum displ.:     0.4058428 α      in ANC's #37, #41, #24, ...

........................................................................
.............................. CYCLE    6 ..............................
........................................................................
   1   -222.3120521 -0.222312E+03  0.592E-02    0.09       0.0  T
   2   -220.1645445  0.214751E+01  0.207E+00    0.08       1.0  T
   3   -222.2885956 -0.212405E+01  0.200E-01    0.06       1.0  T
   4   -221.3936958  0.894900E+00  0.119E+00    0.02       1.0  T
   5   -222.3106700 -0.916974E+00  0.705E-02    0.08       1.0  T
   6   -222.3091344  0.153555E-02  0.890E-02    0.07       1.0  T
   7   -222.2948348  0.142997E-01  0.175E-01    0.06       1.0  T
   8   -222.3086801 -0.138453E-01  0.882E-02    0.07       1.0  T
   9   -222.3135519 -0.487177E-02  0.214E-02    0.08       1.0  T
  10   -222.3137541 -0.202189E-03  0.130E-02    0.08       1.0  T
  11   -222.3137322  0.218996E-04  0.144E-02    0.08       1.0  T
  12   -222.3137414 -0.922778E-05  0.133E-02    0.08       1.0  T
  13   -222.3138214 -0.800142E-04  0.714E-03    0.08       1.3  T
  14   -222.3138395 -0.180991E-04  0.485E-03    0.08       1.9  T
  15   -222.3138363  0.319155E-05  0.527E-03    0.08       1.7  T
  16   -222.3138465 -0.101607E-04  0.346E-03    0.08       2.6  T
  17   -222.3138525 -0.607877E-05  0.158E-03    0.08       5.7  T
  18   -222.3138540 -0.143715E-05  0.318E-04    0.08      28.5  T
  19   -222.3138540 -0.397836E-07  0.124E-04    0.08      72.9  T
  20   -222.3138540 -0.907667E-08  0.327E-05    0.08     276.5  T
     SCC iter.                  ...        0 min,  1.368 sec
     gradient                   ...        0 min,  0.495 sec
 * total energy  :  -218.6176319 Eh     change       -0.4434545E-02 Eh
   gradient norm :     0.0367944 Eh/α   predicted    -0.7942542E-02 (  79.11%)
   displ. norm   :     0.5099219 α      lambda       -0.6529894E-02
   maximum displ.:     0.2486520 α      in ANC's #37, #24, #41, ...

........................................................................
.............................. CYCLE    7 ..............................
........................................................................
   1   -222.3423985 -0.222342E+03  0.532E-02    0.09       0.0  T
   2   -220.7413919  0.160101E+01  0.178E+00    0.05       1.0  T
   3   -222.3130847 -0.157169E+01  0.220E-01    0.08       1.0  T
   4   -222.0560906  0.256994E+00  0.666E-01    0.06       1.0  T
   5   -222.3343014 -0.278211E+00  0.133E-01    0.11       1.0  T
   6   -222.3422768 -0.797546E-02  0.504E-02    0.09       1.0  T
   7   -222.3415105  0.766367E-03  0.579E-02    0.08       1.0  T
   8   -222.3430491 -0.153860E-02  0.319E-02    0.08       1.0  T
   9   -222.3426364  0.412716E-03  0.422E-02    0.07       1.0  T
  10   -222.3427703 -0.133937E-03  0.374E-02    0.08       1.0  T
  11   -222.3436779 -0.907580E-03  0.602E-03    0.08       1.5  T
  12   -222.3436972 -0.193192E-04  0.127E-03    0.08       7.1  T
  13   -222.3436961  0.111921E-05  0.191E-03    0.08       4.7  T
  14   -222.3436976 -0.148379E-05  0.108E-03    0.08       8.4  T
  15   -222.3436969  0.637108E-06  0.146E-03    0.08       6.2  T
  16   -222.3436977 -0.747985E-06  0.978E-04    0.08       9.3  T
  17   -222.3436980 -0.378248E-06  0.611E-04    0.08      14.8  T
  18   -222.3436982 -0.166117E-06  0.336E-04    0.08      26.9  T
  19   -222.3436983 -0.586545E-07  0.136E-04    0.08      66.6  T
  20   -222.3436983 -0.523988E-08  0.983E-05    0.08      92.1  T
     SCC iter.                  ...        0 min,  1.416 sec
     gradient                   ...        0 min,  0.511 sec
 * total energy  :  -218.6221602 Eh     change       -0.4528319E-02 Eh
   gradient norm :     0.0281543 Eh/α   predicted    -0.4113901E-02 (  -9.15%)
   displ. norm   :     0.5583367 α      lambda       -0.3659521E-02
   maximum displ.:     0.3354258 α      in ANC's #24, #37, #41, ...

........................................................................
.............................. CYCLE    8 ..............................
........................................................................
   1   -222.3683486 -0.222368E+03  0.224E-02    0.08       0.0  T
   2   -222.2557839  0.112565E+00  0.439E-01    0.11       1.0  T
   3   -221.2982291  0.957555E+00  0.129E+00    0.02       1.0  T
   4   -222.3650066 -0.106678E+01  0.758E-02    0.07       1.0  T
   5   -222.3608670  0.413955E-02  0.113E-01    0.09       1.0  T
   6   -222.3679504 -0.708334E-02  0.306E-02    0.08       1.0  T
   7   -222.3604098  0.754059E-02  0.111E-01    0.07       1.0  T
   8   -222.3679356 -0.752583E-02  0.330E-02    0.08       1.0  T
   9   -222.3684789 -0.543321E-03  0.838E-03    0.08       1.1  T
  10   -222.3685221 -0.431868E-04  0.249E-03    0.08       3.6  T
  11   -222.3685253 -0.315923E-05  0.109E-03    0.08       8.3  T
  12   -222.3685245  0.728182E-06  0.159E-03    0.08       5.7  T
  13   -222.3685261 -0.154717E-05  0.323E-04    0.08      28.0  T
  14   -222.3685260  0.124594E-06  0.522E-04    0.08      17.3  T
  15   -222.3685259  0.546015E-07  0.588E-04    0.08      15.4  T
  16   -222.3685260 -0.454101E-07  0.519E-04    0.08      17.5  T
  17   -222.3685260 -0.818784E-07  0.377E-04    0.08      24.0  T
  18   -222.3685261 -0.521598E-07  0.245E-04    0.08      37.0  T
  19   -222.3685261 -0.201283E-07  0.166E-04    0.08      54.4  T
  20   -222.3685261 -0.154882E-07  0.464E-05    0.08     195.2  T
     SCC iter.                  ...        0 min,  1.428 sec
     gradient                   ...        0 min,  0.515 sec
 * total energy  :  -218.6246856 Eh     change       -0.2525340E-02 Eh
   gradient norm :     0.0133651 Eh/α   predicted    -0.2400174E-02 (  -4.96%)
   displ. norm   :     0.5841612 α      lambda       -0.2572916E-02
   maximum displ.:     0.3722985 α      in ANC's #24, #37, #26, ...

........................................................................
.............................. CYCLE    9 ..............................
........................................................................
   1   -222.3917624 -0.222392E+03  0.292E-02    0.08       0.0  T
   2   -222.3021204  0.896420E-01  0.403E-01    0.13       1.0  T
   3   -221.8268704  0.475250E+00  0.934E-01    0.04       1.0  T
   4   -222.3899496 -0.563079E+00  0.589E-02    0.07       1.0  T
   5   -222.3897722  0.177471E-03  0.644E-02    0.09       1.0  T
   6   -222.3917011 -0.192888E-02  0.254E-02    0.08       1.0  T
   7   -222.3908456  0.855412E-03  0.449E-02    0.08       1.0  T
   8   -222.3918756 -0.103000E-02  0.208E-02    0.08       1.0  T
   9   -222.3921163 -0.240668E-03  0.415E-03    0.08       2.2  T
  10   -222.3921172 -0.855117E-06  0.378E-03    0.08       2.4  T
  11   -222.3921264 -0.923257E-05  0.459E-04    0.08      19.7  T
  12   -222.3921257  0.718809E-06  0.115E-03    0.08       7.9  T
  13   -222.3921264 -0.725974E-06  0.454E-04    0.08      19.9  T
  14   -222.3921262  0.152670E-06  0.653E-04    0.08      13.9  T
  15   -222.3921264 -0.192473E-06  0.353E-04    0.08      25.7  T
  16   -222.3921265 -0.762363E-07  0.728E-05    0.08     124.4  T
  17   -222.3921265 -0.283913E-08  0.256E-05    0.08     354.2  T
     SCC iter.                  ...        0 min,  1.223 sec
     gradient                   ...        0 min,  0.513 sec
 * total energy  :  -218.6262198 Eh     change       -0.1534210E-02 Eh
   gradient norm :     0.0142171 Eh/α   predicted    -0.1725458E-02 (  12.47%)
   displ. norm   :     0.4098567 α      lambda       -0.1286151E-02
   maximum displ.:     0.2963763 α      in ANC's #24, #27, #37, ...

........................................................................
.............................. CYCLE   10 ..............................
........................................................................
   1   -222.4048171 -0.222405E+03  0.413E-02    0.07       0.0  T
   2   -222.2835541  0.121263E+00  0.466E-01    0.15       1.0  T
   3   -222.3670266 -0.834725E-01  0.243E-01    0.07       1.0  T
   4   -222.4017195 -0.346929E-01  0.777E-02    0.08       1.0  T
   5   -222.4051532 -0.343364E-02  0.307E-02    0.08       1.0  T
   6   -222.4056361 -0.482921E-03  0.455E-03    0.08       2.0  T
   7   -222.4056323  0.376670E-05  0.568E-03    0.08       1.6  T
   8   -222.4055522  0.800607E-04  0.126E-02    0.08       1.0  T
   9   -222.4056295 -0.772533E-04  0.522E-03    0.08       1.7  T
  10   -222.4056348 -0.527406E-05  0.446E-03    0.08       2.0  T
  11   -222.4056473 -0.125349E-04  0.105E-03    0.08       8.6  T
  12   -222.4056478 -0.492871E-06  0.469E-04    0.08      19.3  T
  13   -222.4056479 -0.101933E-06  0.206E-04    0.08      43.9  T
  14   -222.4056479 -0.217534E-07  0.712E-05    0.08     127.1  T
  15   -222.4056479 -0.143410E-08  0.536E-05    0.08     169.0  T
     SCC iter.                  ...        0 min,  1.077 sec
     gradient                   ...        0 min,  0.491 sec
 * total energy  :  -218.6271477 Eh     change       -0.9279240E-03 Eh
   gradient norm :     0.0088849 Eh/α   predicted    -0.7511022E-03 ( -19.06%)
   displ. norm   :     0.3462290 α      lambda       -0.7886291E-03
   maximum displ.:     0.2568751 α      in ANC's #24, #27, #26, ...

........................................................................
.............................. CYCLE   11 ..............................
........................................................................
   1   -222.4093222 -0.222409E+03  0.357E-02    0.07       0.0  T
   2   -222.2970075  0.112315E+00  0.449E-01    0.14       1.0  T
   3   -222.0088389  0.288169E+00  0.787E-01    0.05       1.0  T
   4   -222.4089692 -0.400130E+00  0.388E-02    0.08       1.0  T
   5   -222.4088146  0.154610E-03  0.434E-02    0.08       1.0  T
   6   -222.4098955 -0.108096E-02  0.108E-02    0.08       1.0  T
   7   -222.4099022 -0.671097E-05  0.949E-03    0.08       1.0  T
   8   -222.4099380 -0.357419E-04  0.503E-03    0.08       1.8  T
   9   -222.4099224  0.155568E-04  0.709E-03    0.08       1.3  T
  10   -222.4099525 -0.300816E-04  0.196E-03    0.08       4.6  T
  11   -222.4099540 -0.153529E-05  0.956E-04    0.08       9.5  T
  12   -222.4099545 -0.457285E-06  0.268E-04    0.08      33.7  T
  13   -222.4099545  0.361808E-08  0.285E-04    0.08      31.7  T
  14   -222.4099545 -0.357396E-07  0.163E-04    0.08      55.7  T
  15   -222.4099545 -0.570722E-08  0.131E-04    0.08      69.0  T
     SCC iter.                  ...        0 min,  1.132 sec
     gradient                   ...        0 min,  0.484 sec
 * total energy  :  -218.6277430 Eh     change       -0.5952549E-03 Eh
   gradient norm :     0.0073042 Eh/α   predicted    -0.4415840E-03 ( -25.82%)
   displ. norm   :     0.3677543 α      lambda       -0.6247154E-03
   maximum displ.:     0.2563063 α      in ANC's #24, #27, #26, ...

........................................................................
.............................. CYCLE   12 ..............................
........................................................................
   1   -222.4095028 -0.222410E+03  0.185E-02    0.07       0.0  T
   2   -222.3450834  0.644194E-01  0.346E-01    0.14       1.0  T
   3   -222.4000049 -0.549215E-01  0.122E-01    0.07       1.0  T
   4   -222.4062888 -0.628392E-02  0.718E-02    0.07       1.0  T
   5   -222.4094979 -0.320913E-02  0.165E-02    0.08       1.0  T
   6   -222.4096157 -0.117818E-03  0.896E-03    0.08       1.0  T
   7   -222.4096160 -0.283785E-06  0.893E-03    0.08       1.0  T
   8   -222.4096151  0.916492E-06  0.900E-03    0.08       1.0  T
   9   -222.4096603 -0.452173E-04  0.352E-03    0.08       2.6  T
  10   -222.4096683 -0.797743E-05  0.780E-04    0.08      11.6  T
  11   -222.4096686 -0.335298E-06  0.344E-04    0.08      26.3  T
  12   -222.4096687 -0.588249E-07  0.562E-05    0.08     161.2  T
  13   -222.4096687 -0.189289E-09  0.524E-05    0.08     172.9  T
     SCC iter.                  ...        0 min,  0.934 sec
     gradient                   ...        0 min,  0.482 sec
 * total energy  :  -218.6281823 Eh     change       -0.4393115E-03 Eh
   gradient norm :     0.0063775 Eh/α   predicted    -0.3546027E-03 ( -19.28%)
   displ. norm   :     0.3011851 α      lambda       -0.3607442E-03
   maximum displ.:     0.2165968 α      in ANC's #24, #27, #26, ...

........................................................................
.............................. CYCLE   13 ..............................
........................................................................
   1   -222.4088741 -0.222409E+03  0.104E-02    0.08       0.0  T
   2   -222.3057146  0.103159E+00  0.446E-01    0.02       1.0  T
   3   -222.4073672 -0.101653E+00  0.503E-02    0.08       1.0  T
   4   -222.3867386  0.206286E-01  0.185E-01    0.07       1.0  T
   5   -222.4086782 -0.219396E-01  0.214E-02    0.08       1.0  T
   6   -222.4088157 -0.137499E-03  0.141E-02    0.08       1.0  T
   7   -222.4088932 -0.774392E-04  0.714E-03    0.08       1.3  T
   8   -222.4088933 -0.111701E-06  0.664E-03    0.08       1.4  T
   9   -222.4089097 -0.163784E-04  0.413E-03    0.07       2.2  T
  10   -222.4089200 -0.102994E-04  0.135E-03    0.07       6.7  T
  11   -222.4089211 -0.111960E-05  0.344E-04    0.07      26.3  T
  12   -222.4089211 -0.617133E-07  0.105E-04    0.07      85.9  T
  13   -222.4089212 -0.446798E-08  0.527E-05    0.07     171.9  T
     SCC iter.                  ...        0 min,  0.917 sec
     gradient                   ...        0 min,  0.477 sec
 * total energy  :  -218.6284289 Eh     change       -0.2466109E-03 Eh
   gradient norm :     0.0056512 Eh/α   predicted    -0.1967367E-03 ( -20.22%)
   displ. norm   :     0.2441463 α      lambda       -0.2101082E-03
   maximum displ.:     0.1716929 α      in ANC's #24, #27, #10, ...

........................................................................
.............................. CYCLE   14 ..............................
........................................................................
   1   -222.4090975 -0.222409E+03  0.148E-02    0.07       0.0  T
   2   -222.1677297  0.241368E+00  0.684E-01    0.01       1.0  T
   3   -222.4040834 -0.236354E+00  0.891E-02    0.07       1.0  T
   4   -222.3884983  0.155851E-01  0.178E-01    0.07       1.0  T
   5   -222.4088446 -0.203463E-01  0.260E-02    0.08       1.0  T
   6   -222.4091001 -0.255506E-03  0.139E-02    0.07       1.0  T
   7   -222.4091806 -0.804868E-04  0.610E-03    0.07       1.5  T
   8   -222.4091850 -0.436464E-05  0.511E-03    0.07       1.8  T
   9   -222.4091926 -0.765850E-05  0.374E-03    0.07       2.4  T
  10   -222.4091964 -0.380538E-05  0.294E-03    0.07       3.1  T
  11   -222.4092018 -0.533853E-05  0.630E-04    0.07      14.4  T
  12   -222.4092020 -0.205460E-06  0.101E-04    0.07      89.8  T
  13   -222.4092020 -0.467634E-08  0.398E-05    0.07     227.2  T
     SCC iter.                  ...        0 min,  0.890 sec
     gradient                   ...        0 min,  0.469 sec
 * total energy  :  -218.6285643 Eh     change       -0.1354610E-03 Eh
   gradient norm :     0.0046632 Eh/α   predicted    -0.1113206E-03 ( -17.82%)
   displ. norm   :     0.1718455 α      lambda       -0.1192080E-03
   maximum displ.:     0.1226807 α      in ANC's #24, #10, #5, ...

........................................................................
.............................. CYCLE   15 ..............................
........................................................................
   1   -222.4105399 -0.222411E+03  0.132E-02    0.07       0.0  T
   2   -222.1857820  0.224758E+00  0.654E-01    0.01       1.0  T
   3   -222.3060501 -0.120268E+00  0.400E-01    0.05       1.0  T
   4   -222.4096606 -0.103611E+00  0.402E-02    0.07       1.0  T
   5   -222.4102990 -0.638433E-03  0.243E-02    0.07       1.0  T
   6   -222.4104744 -0.175417E-03  0.160E-02    0.07       1.0  T
   7   -222.4106194 -0.145002E-03  0.317E-03    0.07       2.9  T
   8   -222.4106222 -0.274379E-05  0.206E-03    0.07       4.4  T
   9   -222.4105757  0.464698E-04  0.859E-03    0.07       1.1  T
  10   -222.4106234 -0.477113E-04  0.144E-03    0.07       6.3  T
  11   -222.4106240 -0.544882E-06  0.112E-03    0.07       8.1  T
  12   -222.4106245 -0.525733E-06  0.669E-04    0.07      13.5  T
  13   -222.4106247 -0.211179E-06  0.258E-04    0.07      35.1  T
  14   -222.4106247  0.174199E-08  0.242E-04    0.07      37.4  T
  15   -222.4106247 -0.260106E-07  0.126E-04    0.07      72.1  T
  16   -222.4106247 -0.775057E-08  0.520E-05    0.07     174.1  T
     SCC iter.                  ...        0 min,  1.052 sec
     gradient                   ...        0 min,  0.441 sec
 * total energy  :  -218.6286457 Eh     change       -0.8131192E-04 Eh
   gradient norm :     0.0037089 Eh/α   predicted    -0.6136599E-04 ( -24.53%)
   displ. norm   :     0.1438280 α      lambda       -0.7885043E-04
   maximum displ.:     0.0916230 α      in ANC's #24, #10, #5, ...

........................................................................
.............................. CYCLE   16 ..............................
........................................................................
   1   -222.4117827 -0.222412E+03  0.757E-03    0.07       0.0  T
   2   -222.3434800  0.683026E-01  0.360E-01    0.02       1.0  T
   3   -222.3905001 -0.470201E-01  0.180E-01    0.06       1.0  T
   4   -222.4113425 -0.208424E-01  0.274E-02    0.07       1.0  T
   5   -222.4117635 -0.420988E-03  0.935E-03    0.07       1.0  T
   6   -222.4117933 -0.297324E-04  0.561E-03    0.07       1.6  T
   7   -222.4118094 -0.161772E-04  0.134E-03    0.07       6.8  T
   8   -222.4118097 -0.298946E-06  0.101E-03    0.07       9.0  T
   9   -222.4118059  0.385116E-05  0.260E-03    0.07       3.5  T
  10   -222.4118103 -0.440904E-05  0.329E-04    0.07      27.5  T
  11   -222.4118102  0.621176E-07  0.443E-04    0.07      20.4  T
  12   -222.4118104 -0.123190E-06  0.970E-05    0.07      93.3  T
  13   -222.4118104 -0.319787E-08  0.556E-05    0.07     162.8  T
     SCC iter.                  ...        0 min,  0.906 sec
     gradient                   ...        0 min,  0.508 sec
 * total energy  :  -218.6287053 Eh     change       -0.5967694E-04 Eh
   gradient norm :     0.0032929 Eh/α   predicted    -0.4024235E-04 ( -32.57%)
   displ. norm   :     0.1787483 α      lambda       -0.8718906E-04
   maximum displ.:     0.0891650 α      in ANC's #10, #24, #5, ...

........................................................................
.............................. CYCLE   17 ..............................
........................................................................
   1   -222.4128462 -0.222413E+03  0.187E-03    0.07       0.0  T
   2   -222.4116294  0.121673E-02  0.465E-02    0.07       1.0  T
   3   -222.4108009  0.828555E-03  0.558E-02    0.07       1.0  T
   4   -222.4127856 -0.198467E-02  0.102E-02    0.07       1.0  T
   5   -222.4128463 -0.607900E-04  0.118E-03    0.07       7.7  T
   6   -222.4128456  0.694188E-06  0.162E-03    0.07       5.6  T
   7   -222.4128465 -0.843280E-06  0.987E-04    0.07       9.2  T
   8   -222.4128463  0.166415E-06  0.101E-03    0.07       8.9  T
   9   -222.4128467 -0.415443E-06  0.639E-04    0.07      14.2  T
  10   -222.4128470 -0.262348E-06  0.151E-04    0.07      60.0  T
  11   -222.4128470 -0.141125E-07  0.391E-05    0.07     231.5  T
     SCC iter.                  ...        0 min,  0.768 sec
     gradient                   ...        0 min,  0.501 sec
 * total energy  :  -218.6287691 Eh     change       -0.6380373E-04 Eh
   gradient norm :     0.0034752 Eh/α   predicted    -0.4498962E-04 ( -29.49%)
   displ. norm   :     0.1807627 α      lambda       -0.7393622E-04
   maximum displ.:     0.0957247 α      in ANC's #10, #5, #24, ...

........................................................................
.............................. CYCLE   18 ..............................
........................................................................
   1   -222.4130254 -0.222413E+03  0.779E-03    0.07       0.0  T
   2   -222.3761901  0.368353E-01  0.258E-01    0.11       1.0  T
   3   -222.3374739  0.387162E-01  0.340E-01    0.06       1.0  T
   4   -222.4129276 -0.754537E-01  0.147E-02    0.07       1.0  T
   5   -222.4130513 -0.123715E-03  0.236E-03    0.07       3.8  T
   6   -222.4130156  0.356602E-04  0.780E-03    0.07       1.2  T
   7   -222.4130419 -0.262546E-04  0.480E-03    0.07       1.9  T
   8   -222.4130524 -0.105348E-04  0.195E-03    0.07       4.6  T
   9   -222.4130549 -0.245947E-05  0.208E-04    0.07      43.6  T
  10   -222.4130541  0.814592E-06  0.114E-03    0.07       8.0  T
  11   -222.4130546 -0.499197E-06  0.725E-04    0.07      12.5  T
  12   -222.4130549 -0.310433E-06  0.234E-04    0.07      38.7  T
  13   -222.4130549 -0.162165E-07  0.168E-04    0.07      53.8  T
  14   -222.4130549 -0.738726E-08  0.125E-04    0.07      72.2  T
     SCC iter.                  ...        0 min,  0.950 sec
     gradient                   ...        0 min,  0.474 sec
 * total energy  :  -218.6288232 Eh     change       -0.5410823E-04 Eh
   gradient norm :     0.0036047 Eh/α   predicted    -0.3817884E-04 ( -29.44%)
   displ. norm   :     0.1707106 α      lambda       -0.6158533E-04
   maximum displ.:     0.0946762 α      in ANC's #10, #5, #27, ...

........................................................................
.............................. CYCLE   19 ..............................
........................................................................
   1   -222.4129355 -0.222413E+03  0.980E-03    0.07       0.0  T
   2   -222.3726550  0.402805E-01  0.274E-01    0.12       1.0  T
   3   -222.3682020  0.445299E-02  0.261E-01    0.06       1.0  T
   4   -222.4128071 -0.446051E-01  0.171E-02    0.07       1.0  T
   5   -222.4129777 -0.170552E-03  0.271E-03    0.07       3.3  T
   6   -222.4129572  0.204686E-04  0.625E-03    0.07       1.4  T
   7   -222.4129740 -0.168256E-04  0.385E-03    0.07       2.4  T
   8   -222.4129781 -0.401964E-05  0.264E-03    0.07       3.4  T
   9   -222.4129824 -0.436878E-05  0.502E-04    0.07      18.0  T
  10   -222.4129823  0.993908E-07  0.658E-04    0.07      13.8  T
  11   -222.4129823  0.480534E-08  0.650E-04    0.07      13.9  T
  12   -222.4129825 -0.221639E-06  0.283E-04    0.07      32.0  T
  13   -222.4129826 -0.474675E-07  0.934E-05    0.07      96.9  T
  14   -222.4129826 -0.295617E-08  0.597E-05    0.07     151.7  T
     SCC iter.                  ...        0 min,  0.922 sec
     gradient                   ...        0 min,  0.474 sec
 * total energy  :  -218.6288671 Eh     change       -0.4383821E-04 Eh
   gradient norm :     0.0029447 Eh/α   predicted    -0.3169236E-04 ( -27.71%)
   displ. norm   :     0.1320496 α      lambda       -0.4278094E-04
   maximum displ.:     0.0764162 α      in ANC's #10, #5, #27, ...

........................................................................
.............................. CYCLE   20 ..............................
........................................................................
   1   -222.4129386 -0.222413E+03  0.364E-03    0.07       0.0  T
   2   -222.3985118  0.144268E-01  0.158E-01    0.09       1.0  T
   3   -222.3927796  0.573214E-02  0.176E-01    0.07       1.0  T
   4   -222.4129280 -0.201484E-01  0.532E-03    0.07       1.7  T
   5   -222.4129426 -0.145614E-04  0.194E-03    0.07       4.7  T
   6   -222.4129333  0.930782E-05  0.421E-03    0.07       2.2  T
   7   -222.4129373 -0.404036E-05  0.340E-03    0.07       2.7  T
   8   -222.4129389 -0.159096E-05  0.302E-03    0.07       3.0  T
   9   -222.4129449 -0.603662E-05  0.336E-04    0.07      26.9  T
  10   -222.4129450 -0.541777E-07  0.186E-04    0.07      48.7  T
  11   -222.4129450 -0.106479E-07  0.134E-04    0.07      67.6  T
     SCC iter.                  ...        0 min,  0.722 sec
     gradient                   ...        0 min,  0.475 sec
 * total energy  :  -218.6288967 Eh     change       -0.2961597E-04 Eh
   gradient norm :     0.0020881 Eh/α   predicted    -0.2176667E-04 ( -26.50%)
   displ. norm   :     0.0997017 α      lambda       -0.2777637E-04
   maximum displ.:     0.0607085 α      in ANC's #10, #5, #15, ...
 * RMSD in coord.:     0.4656138 α      energy gain  -0.1559163E+00 Eh

generating ANC from model Hessian ...
Using Lindh-Hessian (1995)
 Shifting diagonal of input Hessian by    1.0039845384401357E-002
 Lowest  eigenvalues of input Hessian
    0.010000    0.010016    0.010030    0.010034    0.000000    0.000000
    0.000000    0.000000    0.000000    0.000000    0.010072    0.010112
    0.010114    0.010150    0.010179    0.010247    0.010260    0.010283
 Highest eigenvalues
    2.643332    2.643372    2.644529    2.644649    2.658228    2.988343


........................................................................
.............................. CYCLE   21 ..............................
........................................................................
   1   -222.4129661 -0.222413E+03  0.195E-03    0.07       0.0  T
   2   -222.3984645  0.145016E-01  0.150E-01    0.06       1.0  T
   3   -222.4108116 -0.123471E-01  0.586E-02    0.07       1.0  T
   4   -222.4128866 -0.207509E-02  0.125E-02    0.07       1.0  T
   5   -222.4129481 -0.615021E-04  0.565E-03    0.07       1.6  T
   6   -222.4129457  0.240520E-05  0.585E-03    0.07       1.5  T
   7   -222.4129635 -0.178058E-04  0.250E-03    0.07       3.6  T
   8   -222.4129650 -0.148271E-05  0.196E-03    0.07       4.6  T
   9   -222.4129675 -0.251437E-05  0.264E-04    0.07      34.3  T
  10   -222.4129675  0.953293E-08  0.285E-04    0.07      31.8  T
  11   -222.4129676 -0.262239E-07  0.188E-04    0.07      48.0  T
  12   -222.4129676 -0.212362E-07  0.457E-05    0.07     198.2  T
     SCC iter.                  ...        0 min,  0.791 sec
     gradient                   ...        0 min,  0.475 sec
 * total energy  :  -218.6289163 Eh     change       -0.1960319E-04 Eh
   gradient norm :     0.0018210 Eh/α   predicted     0.0000000E+00 (-100.00%)
   displ. norm   :     0.0383110 α      lambda       -0.1319874E-04
   maximum displ.:     0.0154894 α      in ANC's #12, #29, #34, ...

........................................................................
.............................. CYCLE   22 ..............................
........................................................................
   1   -222.4130154 -0.222413E+03  0.334E-03    0.07       0.0  T
   2   -222.4025420  0.104734E-01  0.141E-01    0.05       1.0  T
   3   -222.4109197 -0.837768E-02  0.566E-02    0.07       1.0  T
   4   -222.4129128 -0.199316E-02  0.132E-02    0.07       1.0  T
   5   -222.4130147 -0.101884E-03  0.338E-03    0.07       2.7  T
   6   -222.4130159 -0.113298E-05  0.290E-03    0.07       3.1  T
   7   -222.4130182 -0.230106E-05  0.202E-03    0.07       4.5  T
   8   -222.4130192 -0.100070E-05  0.150E-03    0.07       6.0  T
   9   -222.4130206 -0.142780E-05  0.365E-04    0.07      24.8  T
  10   -222.4130207 -0.786213E-07  0.117E-04    0.07      77.4  T
  11   -222.4130207 -0.278646E-09  0.114E-04    0.07      79.8  T
     SCC iter.                  ...        0 min,  0.713 sec
     gradient                   ...        0 min,  0.477 sec
 * total energy  :  -218.6289272 Eh     change       -0.1085972E-04 Eh
   gradient norm :     0.0011906 Eh/α   predicted    -0.7068074E-05 ( -34.91%)
   displ. norm   :     0.0946709 α      lambda       -0.2539893E-04
   maximum displ.:     0.0359600 α      in ANC's #12, #10, #34, ...

........................................................................
.............................. CYCLE   23 ..............................
........................................................................
   1   -222.4128883 -0.222413E+03  0.777E-03    0.07       0.0  T
   2   -222.3473448  0.655436E-01  0.355E-01    0.03       1.0  T
   3   -222.4105753 -0.632305E-01  0.600E-02    0.07       1.0  T
   4   -222.4096988  0.876514E-03  0.704E-02    0.07       1.0  T
   5   -222.4128611 -0.316233E-02  0.104E-02    0.07       1.0  T
   6   -222.4128944 -0.333421E-04  0.640E-03    0.07       1.4  T
   7   -222.4129115 -0.170371E-04  0.326E-03    0.07       2.8  T
   8   -222.4129133 -0.181040E-05  0.248E-03    0.07       3.7  T
   9   -222.4129120  0.124825E-05  0.279E-03    0.07       3.2  T
  10   -222.4129172 -0.519410E-05  0.269E-04    0.07      33.7  T
  11   -222.4129172  0.115658E-07  0.286E-04    0.07      31.7  T
  12   -222.4129173 -0.471200E-07  0.661E-05    0.07     137.0  T
  13   -222.4129173 -0.226498E-08  0.215E-05    0.07     421.1  T
     SCC iter.                  ...        0 min,  0.849 sec
     gradient                   ...        0 min,  0.478 sec
 * total energy  :  -218.6289339 Eh     change       -0.6724024E-05 Eh
   gradient norm :     0.0025813 Eh/α   predicted    -0.1275022E-04 (  89.62%)
   displ. norm   :     0.0787540 α      lambda       -0.4083590E-04
   maximum displ.:     0.0292586 α      in ANC's #10, #12, #18, ...

........................................................................
.............................. CYCLE   24 ..............................
........................................................................
   1   -222.4127174 -0.222413E+03  0.430E-03    0.07       0.0  T
   2   -222.3946481  0.180692E-01  0.186E-01    0.05       1.0  T
   3   -222.4127029 -0.180548E-01  0.675E-03    0.07       1.3  T
   4   -222.4126970  0.592055E-05  0.692E-03    0.07       1.3  T
   5   -222.4126693  0.277401E-04  0.945E-03    0.07       1.0  T
   6   -222.4127208 -0.515699E-04  0.313E-03    0.07       2.9  T
   7   -222.4127234 -0.257343E-05  0.223E-03    0.07       4.1  T
   8   -222.4127239 -0.524276E-06  0.190E-03    0.07       4.8  T
   9   -222.4127262 -0.226640E-05  0.367E-04    0.07      24.7  T
  10   -222.4127263 -0.766584E-07  0.586E-05    0.07     154.4  T
  11   -222.4127263 -0.126698E-08  0.436E-05    0.07     207.5  T
     SCC iter.                  ...        0 min,  0.728 sec
     gradient                   ...        0 min,  0.495 sec
 * total energy  :  -218.6289529 Eh     change       -0.1903619E-04 Eh
   gradient norm :     0.0029851 Eh/α   predicted    -0.2054533E-04 (   7.93%)
   displ. norm   :     0.0371957 α      lambda       -0.2115321E-04
   maximum displ.:     0.0206105 α      in ANC's #12, #5, #10, ...

........................................................................
.............................. CYCLE   25 ..............................
........................................................................
   1   -222.4125119 -0.222413E+03  0.191E-03    0.07       0.0  T
   2   -222.4098547  0.265717E-02  0.701E-02    0.08       1.0  T
   3   -222.4099039 -0.492232E-04  0.631E-02    0.07       1.0  T
   4   -222.4124983 -0.259438E-02  0.521E-03    0.07       1.7  T
   5   -222.4125111 -0.127463E-04  0.202E-03    0.07       4.5  T
   6   -222.4125097  0.134101E-05  0.244E-03    0.07       3.7  T
   7   -222.4125092  0.510401E-06  0.255E-03    0.07       3.5  T
   8   -222.4125119 -0.267321E-05  0.155E-03    0.07       5.8  T
   9   -222.4125135 -0.160984E-05  0.188E-05    0.07     481.4  T
  10   -222.4125135  0.721758E-08  0.106E-04    0.07      85.0  T
  11   -222.4125135 -0.534885E-08  0.566E-05    0.07     160.1  T
     SCC iter.                  ...        0 min,  0.793 sec
     gradient                   ...        0 min,  0.503 sec
 * total energy  :  -218.6289683 Eh     change       -0.1534117E-04 Eh
   gradient norm :     0.0018032 Eh/α   predicted    -0.1059241E-04 ( -30.95%)
   displ. norm   :     0.1442918 α      lambda       -0.2650265E-04
   maximum displ.:     0.0650458 α      in ANC's #12, #10, #5, ...

........................................................................
.............................. CYCLE   26 ..............................
........................................................................
   1   -222.4119194 -0.222412E+03  0.544E-03    0.07       0.0  T
   2   -222.3950991  0.168203E-01  0.177E-01    0.10       1.0  T
   3   -222.3998286 -0.472944E-02  0.136E-01    0.06       1.0  T
   4   -222.4117952 -0.119667E-01  0.150E-02    0.07       1.0  T
   5   -222.4119317 -0.136489E-03  0.174E-03    0.07       5.2  T
   6   -222.4119310  0.772918E-06  0.213E-03    0.07       4.3  T
   7   -222.4119310 -0.168359E-07  0.207E-03    0.07       4.4  T
   8   -222.4119332 -0.219986E-05  0.197E-04    0.07      45.9  T
   9   -222.4119331  0.832242E-07  0.403E-04    0.07      22.5  T
  10   -222.4119332 -0.978569E-07  0.119E-04    0.07      76.1  T
  11   -222.4119331  0.109861E-06  0.422E-04    0.07      21.4  T
  12   -222.4119332 -0.111236E-06  0.101E-04    0.07      90.1  T
     SCC iter.                  ...        0 min,  0.801 sec
     gradient                   ...        0 min,  0.451 sec
 * total energy  :  -218.6289883 Eh     change       -0.2002954E-04 Eh
   gradient norm :     0.0020747 Eh/α   predicted    -0.1338022E-04 ( -33.20%)
   displ. norm   :     0.1110158 α      lambda       -0.2095847E-04
   maximum displ.:     0.0558875 α      in ANC's #12, #5, #10, ...

........................................................................
.............................. CYCLE   27 ..............................
........................................................................
   1   -222.4118337 -0.222412E+03  0.136E-03    0.07       0.0  T
   2   -222.4103462  0.148750E-02  0.533E-02    0.08       1.0  T
   3   -222.4118135 -0.146729E-02  0.568E-03    0.07       1.6  T
   4   -222.4117647  0.488147E-04  0.103E-02    0.07       1.0  T
   5   -222.4118337 -0.690077E-04  0.121E-03    0.07       7.5  T
   6   -222.4118317  0.200359E-05  0.211E-03    0.07       4.3  T
   7   -222.4118344 -0.274443E-05  0.617E-04    0.07      14.7  T
   8   -222.4118343  0.977202E-07  0.720E-04    0.07      12.6  T
   9   -222.4118347 -0.349694E-06  0.206E-05    0.07     439.6  T
  10   -222.4118347 -0.253550E-09  0.613E-06    0.07    1477.6  T
     SCC iter.                  ...        0 min,  1.379 sec
     gradient                   ...        0 min,  0.518 sec
 * total energy  :  -218.6290046 Eh     change       -0.1635121E-04 Eh
   gradient norm :     0.0019464 Eh/α   predicted    -0.1061379E-04 ( -35.09%)
   displ. norm   :     0.3606315 α      lambda       -0.3735739E-04
   maximum displ.:     0.1720223 α      in ANC's #12, #5, #10, ...

........................................................................
.............................. CYCLE   28 ..............................
........................................................................
   1   -222.4117310 -0.222412E+03  0.307E-03    0.07       0.0  T
   2   -222.4039423  0.778872E-02  0.120E-01    0.09       1.0  T
   3   -222.4061064 -0.216409E-02  0.929E-02    0.07       1.0  T
   4   -222.4116949 -0.558849E-02  0.849E-03    0.07       1.1  T
   5   -222.4117329 -0.379742E-04  0.251E-03    0.07       3.6  T
   6   -222.4117303  0.259256E-05  0.313E-03    0.07       2.9  T
   7   -222.4117284  0.189877E-05  0.342E-03    0.07       2.6  T
   8   -222.4117344 -0.606704E-05  0.157E-03    0.07       5.8  T
   9   -222.4117359 -0.145490E-05  0.583E-04    0.07      15.5  T
  10   -222.4117361 -0.187303E-06  0.239E-04    0.07      37.8  T
  11   -222.4117361 -0.266905E-07  0.127E-04    0.07      71.2  T
  12   -222.4117361 -0.936927E-08  0.441E-05    0.07     205.2  T
     SCC iter.                  ...        0 min,  1.196 sec
     gradient                   ...        0 min,  0.484 sec
 * total energy  :  -218.6290344 Eh     change       -0.2979323E-04 Eh
   gradient norm :     0.0017907 Eh/α   predicted    -0.1976463E-04 ( -33.66%)
   displ. norm   :     0.1046828 α      lambda       -0.1207876E-04
   maximum displ.:     0.0488317 α      in ANC's #12, #5, #10, ...

........................................................................
.............................. CYCLE   29 ..............................
........................................................................
   1   -222.4129095 -0.222413E+03  0.933E-04    0.07       0.0  T
   2   -222.4125584  0.351114E-03  0.258E-02    0.07       1.0  T
   3   -222.4127974 -0.238936E-03  0.132E-02    0.07       1.0  T
   4   -222.4128618 -0.644195E-04  0.884E-03    0.07       1.0  T
   5   -222.4129066 -0.447727E-04  0.243E-03    0.07       3.7  T
   6   -222.4129073 -0.732756E-06  0.200E-03    0.07       4.5  T
   7   -222.4129077 -0.393668E-06  0.178E-03    0.07       5.1  T
   8   -222.4129086 -0.947540E-06  0.130E-03    0.07       7.0  T
   9   -222.4129098 -0.112538E-05  0.151E-04    0.07      59.9  T
  10   -222.4129098 -0.149217E-07  0.268E-05    0.07     338.2  T
  11   -222.4129098 -0.234053E-09  0.181E-05    0.07     499.7  T
     SCC iter.                  ...        0 min,  0.755 sec
     gradient                   ...        0 min,  0.477 sec
 * total energy  :  -218.6290479 Eh     change       -0.1343619E-04 Eh
   gradient norm :     0.0013811 Eh/α   predicted    -0.6068995E-05 ( -54.83%)
   displ. norm   :     0.2155849 α      lambda       -0.2275008E-04
   maximum displ.:     0.1011157 α      in ANC's #12, #5, #8, ...

........................................................................
.............................. CYCLE   30 ..............................
........................................................................
   1   -222.4144472 -0.222414E+03  0.340E-03    0.07       0.0  T
   2   -222.4045916  0.985561E-02  0.137E-01    0.05       1.0  T
   3   -222.4141432 -0.955165E-02  0.220E-02    0.07       1.0  T
   4   -222.4135509  0.592364E-03  0.373E-02    0.07       1.0  T
   5   -222.4144395 -0.888604E-03  0.497E-03    0.07       1.8  T
   6   -222.4144482 -0.872248E-05  0.279E-03    0.07       3.2  T
   7   -222.4144508 -0.263444E-05  0.165E-03    0.07       5.5  T
   8   -222.4144514 -0.520453E-06  0.115E-03    0.07       7.9  T
   9   -222.4144514 -0.710911E-07  0.111E-03    0.07       8.2  T
  10   -222.4144523 -0.825616E-06  0.494E-05    0.07     183.2  T
  11   -222.4144523  0.145070E-08  0.688E-05    0.07     131.6  T
     SCC iter.                  ...        0 min,  0.753 sec
     gradient                   ...        0 min,  0.473 sec
 * total energy  :  -218.6290700 Eh     change       -0.2213751E-04 Eh
   gradient norm :     0.0016396 Eh/α   predicted    -0.1161183E-04 ( -47.55%)
   displ. norm   :     0.2537884 α      lambda       -0.1779280E-04
   maximum displ.:     0.1242484 α      in ANC's #12, #5, #8, ...

........................................................................
.............................. CYCLE   31 ..............................
........................................................................
   1   -222.4134978 -0.222413E+03  0.284E-03    0.07       0.0  T
   2   -222.4059428  0.755500E-02  0.120E-01    0.05       1.0  T
   3   -222.4129440 -0.700117E-02  0.292E-02    0.07       1.0  T
   4   -222.4132724 -0.328364E-03  0.188E-02    0.07       1.0  T
   5   -222.4134976 -0.225255E-03  0.276E-03    0.07       3.3  T
   6   -222.4135006 -0.300449E-05  0.141E-03    0.07       6.4  T
   7   -222.4135013 -0.666628E-06  0.805E-04    0.07      11.2  T
   8   -222.4134994  0.187404E-05  0.184E-03    0.07       4.9  T
   9   -222.4135016 -0.218763E-05  0.366E-04    0.07      24.7  T
  10   -222.4135017 -0.889291E-07  0.600E-05    0.07     150.8  T
  11   -222.4135017 -0.155646E-08  0.342E-05    0.07     264.9  T
     SCC iter.                  ...        0 min,  0.775 sec
     gradient                   ...        0 min,  0.500 sec
 * total energy  :  -218.6290885 Eh     change       -0.1844651E-04 Eh
   gradient norm :     0.0018447 Eh/α   predicted    -0.9155520E-05 ( -50.37%)
   displ. norm   :     0.2232195 α      lambda       -0.1503505E-04
   maximum displ.:     0.1043295 α      in ANC's #12, #5, #8, ...

........................................................................
.............................. CYCLE   32 ..............................
........................................................................
   1   -222.4129327 -0.222413E+03  0.218E-03    0.07       0.0  T
   2   -222.4085511  0.438166E-02  0.915E-02    0.06       1.0  T
   3   -222.4127595 -0.420846E-02  0.164E-02    0.07       1.0  T
   4   -222.4127315  0.280596E-04  0.176E-02    0.07       1.0  T
   5   -222.4129343 -0.202783E-03  0.123E-03    0.07       7.4  T
   6   -222.4129350 -0.709751E-06  0.409E-04    0.07      22.1  T
   7   -222.4129350 -0.559664E-07  0.232E-04    0.07      39.0  T
   8   -222.4129350  0.266323E-07  0.284E-04    0.07      31.9  T
   9   -222.4129350  0.932937E-08  0.304E-04    0.07      29.7  T
  10   -222.4129351 -0.599504E-07  0.643E-05    0.07     140.8  T
  11   -222.4129351 -0.274798E-08  0.439E-06    0.07    2060.5  T
     SCC iter.                  ...        0 min,  0.784 sec
     gradient                   ...        0 min,  0.514 sec
 * total energy  :  -218.6291049 Eh     change       -0.1645125E-04 Eh
   gradient norm :     0.0016167 Eh/α   predicted    -0.7684748E-05 ( -53.29%)
   displ. norm   :     0.2599483 α      lambda       -0.1777986E-04
   maximum displ.:     0.1144192 α      in ANC's #12, #5, #8, ...

........................................................................
.............................. CYCLE   33 ..............................
........................................................................
   1   -222.4122999 -0.222412E+03  0.194E-03    0.07       0.0  T
   2   -222.4092637  0.303611E-02  0.762E-02    0.06       1.0  T
   3   -222.4121933 -0.292951E-02  0.129E-02    0.07       1.0  T
   4   -222.4120303  0.162963E-03  0.204E-02    0.07       1.0  T
   5   -222.4123012 -0.270891E-03  0.821E-04    0.07      11.0  T
   6   -222.4123011  0.120586E-06  0.840E-04    0.07      10.8  T
   7   -222.4123001  0.950038E-06  0.145E-03    0.07       6.2  T
   8   -222.4123006 -0.518532E-06  0.115E-03    0.07       7.9  T
   9   -222.4123015 -0.874153E-06  0.189E-04    0.07      47.8  T
  10   -222.4123015 -0.240269E-07  0.162E-05    0.07     558.0  T
     SCC iter.                  ...        0 min,  0.717 sec
     gradient                   ...        0 min,  0.512 sec
 * total energy  :  -218.6291191 Eh     change       -0.1419375E-04 Eh
   gradient norm :     0.0013100 Eh/α   predicted    -0.9161666E-05 ( -35.45%)
   displ. norm   :     0.1357841 α      lambda       -0.1076129E-04
   maximum displ.:     0.0570275 α      in ANC's #8, #5, #12, ...

........................................................................
.............................. CYCLE   34 ..............................
........................................................................
   1   -222.4120888 -0.222412E+03  0.818E-04    0.07       0.0  T
   2   -222.4117086  0.380235E-03  0.265E-02    0.07       1.0  T
   3   -222.4117495 -0.408816E-04  0.228E-02    0.07       1.0  T
   4   -222.4120876 -0.338058E-03  0.155E-03    0.07       5.9  T
   5   -222.4120879 -0.389746E-06  0.129E-03    0.07       7.0  T
   6   -222.4120856  0.230224E-05  0.226E-03    0.07       4.0  T
   7   -222.4120884 -0.273939E-05  0.101E-03    0.07       9.0  T
   8   -222.4120888 -0.428335E-06  0.626E-04    0.07      14.5  T
   9   -222.4120891 -0.260451E-06  0.714E-05    0.07     126.8  T
  10   -222.4120891 -0.330294E-08  0.941E-06    0.07     962.6  T
     SCC iter.                  ...        0 min,  0.718 sec
     gradient                   ...        0 min,  0.506 sec
 * total energy  :  -218.6291285 Eh     change       -0.9363616E-05 Eh
   gradient norm :     0.0010732 Eh/α   predicted    -0.5425367E-05 ( -42.06%)
   displ. norm   :     0.0655431 α      lambda       -0.6060460E-05
   maximum displ.:     0.0301647 α      in ANC's #8, #18, #5, ...

........................................................................
.............................. CYCLE   35 ..............................
........................................................................
   1   -222.4126106 -0.222413E+03  0.190E-03    0.07       0.0  T
   2   -222.4098034  0.280718E-02  0.729E-02    0.08       1.0  T
   3   -222.4119095 -0.210609E-02  0.327E-02    0.07       1.0  T
   4   -222.4125830 -0.673505E-03  0.669E-03    0.07       1.4  T
   5   -222.4126112 -0.282420E-04  0.132E-03    0.07       6.8  T
   6   -222.4126115 -0.299143E-06  0.114E-03    0.07       7.9  T
   7   -222.4126106  0.914854E-06  0.163E-03    0.07       5.6  T
   8   -222.4126122 -0.153143E-05  0.623E-04    0.07      14.5  T
   9   -222.4126124 -0.254405E-06  0.101E-04    0.07      89.3  T
  10   -222.4126124 -0.691142E-08  0.865E-06    0.07    1046.5  T
     SCC iter.                  ...        0 min,  0.718 sec
     gradient                   ...        0 min,  0.514 sec
 * total energy  :  -218.6291354 Eh     change       -0.6907256E-05 Eh
   gradient norm :     0.0008550 Eh/α   predicted    -0.3039302E-05 ( -56.00%)
   displ. norm   :     0.1076065 α      lambda       -0.8861496E-05
   maximum displ.:     0.0504418 α      in ANC's #8, #18, #17, ...

........................................................................
.............................. CYCLE   36 ..............................
........................................................................
   1   -222.4136680 -0.222414E+03  0.322E-03    0.07       0.0  T
   2   -222.4064559  0.721200E-02  0.117E-01    0.09       1.0  T
   3   -222.4131057 -0.664975E-02  0.294E-02    0.07       1.0  T
   4   -222.4135225 -0.416817E-03  0.152E-02    0.07       1.0  T
   5   -222.4136731 -0.150584E-03  0.529E-04    0.07      17.1  T
   6   -222.4136723  0.790279E-06  0.120E-03    0.07       7.6  T
   7   -222.4136722  0.736545E-07  0.123E-03    0.07       7.4  T
   8   -222.4136713  0.918858E-06  0.169E-03    0.07       5.3  T
   9   -222.4136732 -0.191437E-05  0.199E-04    0.07      45.4  T
  10   -222.4136733 -0.265734E-07  0.152E-05    0.07     595.3  T
  11   -222.4136733  0.525802E-11  0.146E-05    0.07     620.2  T
     SCC iter.                  ...        0 min,  0.790 sec
     gradient                   ...        0 min,  0.490 sec
 * total energy  :  -218.6291436 Eh     change       -0.8176752E-05 Eh
   gradient norm :     0.0008449 Eh/α   predicted    -0.4455252E-05 ( -45.51%)
   displ. norm   :     0.0805481 α      lambda       -0.4185196E-05
   maximum displ.:     0.0390414 α      in ANC's #8, #17, #18, ...

........................................................................
.............................. CYCLE   37 ..............................
........................................................................
   1   -222.4139076 -0.222414E+03  0.108E-03    0.07       0.0  T
   2   -222.4128765  0.103103E-02  0.437E-02    0.08       1.0  T
   3   -222.4130642 -0.187699E-03  0.359E-02    0.07       1.0  T
   4   -222.4138992 -0.835004E-03  0.370E-03    0.07       2.4  T
   5   -222.4139072 -0.794365E-05  0.119E-03    0.07       7.6  T
   6   -222.4139069  0.297152E-06  0.137E-03    0.07       6.6  T
   7   -222.4139074 -0.549442E-06  0.102E-03    0.07       8.8  T
   8   -222.4139081 -0.624986E-06  0.353E-04    0.07      25.6  T
   9   -222.4139082 -0.824817E-07  0.421E-05    0.07     215.0  T
  10   -222.4139082 -0.118234E-08  0.178E-06    0.07    5078.8  T
     SCC iter.                  ...        0 min,  0.767 sec
     gradient                   ...        0 min,  0.492 sec
 * total energy  :  -218.6291477 Eh     change       -0.4131137E-05 Eh
   gradient norm :     0.0007739 Eh/α   predicted    -0.2103457E-05 ( -49.08%)
   displ. norm   :     0.0939713 α      lambda       -0.4549168E-05
   maximum displ.:     0.0470850 α      in ANC's #8, #17, #5, ...

   *** GEOMETRY OPTIMIZATION CONVERGED AFTER 37 ITERATIONS ***

------------------------------------------------------------------------
 total energy gain   :        -0.1561672 Eh      -97.9964 kcal/mol
 total RMSD          :         0.5471827 a0        0.2896 Å
 total power (kW/mol):       -11.0815418 (step)   -6.4249 (real)
------------------------------------------------------------------------

 ANCopt (total)                0 d,  0 h,  1 min,  3.817 sec
 optimizer setup                ...        0 min,  0.000 sec (  0.001%)
 model hessian                  ...        0 min,  0.087 sec (  0.136%)
 ANC generation                 ...        0 min,  0.063 sec (  0.098%)
 coordinate transformation      ...        0 min,  0.006 sec (  0.010%)
 single point calculation       ...        1 min,  3.605 sec ( 99.667%)
 optimization log               ...        0 min,  0.026 sec (  0.041%)
 hessian update                 ...        0 min,  0.006 sec (  0.010%)
 rational function              ...        0 min,  0.020 sec (  0.032%)

================
 final structure:
================
122
 xtb: 6.5.1 (b24c23e)
Fe          14.88929370857291        0.06218037996379        0.00392278400877
C           11.48954153491529        0.12063919934194       -0.00347162679799
C           12.14401968204182        0.90392188690270        0.92428620200751
C           11.47241431793883        1.73013299472321        1.88160796873342
C           12.43660837914384        2.38884548098819        2.56818700244639
C           13.69082942554873        1.96351824084071        2.02419950109957
N           13.50468937963407        1.04269353124213        1.03616465938101
C           14.92260335310915        2.48553494790181        2.42829461802332
C           14.93581113435347        3.48420548506363        3.42554635871801
C           14.94913553465126        4.34764592161330        4.27822877845393
C           14.96492335600217        5.35518001557461        5.26981011642718
C           16.16052376275583        5.97239277058121        5.65638714929444
C           16.12305504999606        6.95467287738757        6.62974695819630
N           14.99898489770087        7.34644181721576        7.22435527397846
C           13.85865428096526        6.76353736074975        6.86367340259111
C           13.78732127556276        5.77270591276872        5.90062522656808
C           16.13864983655626        2.07180375329070        1.88437958191841
C           17.40124564430514        2.61868721667983        2.27260564661836
C           18.34784472638136        1.93618735806698        1.58269779117746
N           16.30587703115732        1.07758156445911        0.95782699916989
C           17.65603975947147        0.97587056866941        0.78139617394315
C           18.31008894933433        0.02754384888701       -0.01427489655859
C           17.62954541731439       -0.91606772940431       -0.79330922843150
C           18.29416672404176       -1.89722886977566       -1.59221620134172
C           17.32602643406124       -2.57986202807746       -2.25167663446656
C           16.07820746113050       -2.00815006857651       -1.85188217539814
N           16.27546660017401       -1.00251598918330       -0.94334487183324
C           14.84863401019906       -2.40295895224248       -2.37862055323507
C           14.82534936024899       -3.42215587632308       -3.35467957759668
C           14.79524855121288       -4.29958015490611       -4.19253223745784
C           14.75298591521032       -5.32078646485597       -5.16917238093888
C           15.91524167678146       -5.98363929587541       -5.58018765834501
C           15.81662309826858       -6.97516438422240       -6.54006382476892
N           14.66372301158814       -7.33453955183512       -7.09872079125209
C           13.55425349751898       -6.70934701757992       -6.71323015106080
C           13.54418825589533       -5.70571862717253       -5.76109599909371
C           13.63370566989176       -1.83315573452977       -1.98706971626583
C           12.36849730107971       -2.21559750605560       -2.53753048287227
C           11.42556134172500       -1.50462976761777       -1.87397065079968
C           12.12083054896352       -0.69356142298031       -0.92056388632634
N           13.47551300864562       -0.89119631636739       -1.01455028878655
H           10.40546714034583        0.14290016414223       -0.00918096158010
H           10.40160776563783        1.78798974602336        1.99548826214881
H           12.32669778551328        3.10484573038918        3.36687965225103
H           17.09814956312362        5.68307620772517        5.19739565868580
H           17.03494754808282        7.45142530266291        6.94841450104379
H           12.96085240744014        7.10691764858530        7.36943582097365
H           12.83702008103996        5.32452384281765        5.63688652637568
H           17.53133334092456        3.41842437195347        2.98383592827280
H           19.41886852713560        2.05622796279038        1.60869686449760
H           19.36296412518368       -2.03114260716241       -1.63622316334174
H           17.43214399816983       -3.39251279491253       -2.95216840095890
H           16.87478837298108       -5.72202082304425       -5.15094172814115
H           16.70168484324031       -7.50643246531465       -6.87801154474151
H           12.63144685208258       -7.02763943887047       -7.18958836644651
H           12.61761449581908       -5.22236160320162       -5.47584010166874
H           12.23748824714410       -2.93860729153696       -3.32666391782442
H           10.35469189085075       -1.51858026202246       -2.00030853858605
Fe          30.89683623516839       -0.03571626730200       -0.05139298181295
C           34.29653905621358       -0.05931601768512       -0.10562446506874
C           33.64211007877812       -1.25769882147387       -0.30114941817454
C           34.31373913151762       -2.50341819378744       -0.51850271092934
C           33.34955437970449       -3.43089202221650       -0.73092600564840
C           32.09530469816856       -2.74577787103503       -0.64509146721064
N           32.28143771737321       -1.42505860938202       -0.36249215537156
C           30.86352160501165       -3.36049051574836       -0.88574643186268
C           30.85014712223434       -4.72851265545577       -1.23267585578482
C           30.83657375145967       -5.90338664718301       -1.53649815778210
C           30.81975792045453       -7.27202590123789       -1.89015720626040
C           29.62415638473787       -7.92027813598658       -2.22197740939916
C           29.66143061572248       -9.25989011492250       -2.56523468729871
N           30.78533795201846       -9.97155752170593       -2.59584196659669
C           31.92579525471420       -9.36293162762588       -2.28094069372528
C           31.99732534572986       -8.02781549216339       -1.92506393159070
C           29.64754684807868       -2.68117629422819       -0.81035173281358
C           28.38500312259775       -3.29497635471702       -1.08085858257480
[...]
     1  26 Fe   3.067 --     7 N    0.658    41 N    0.657    27 N    0.651
                            20 N    0.651
     2   6 C    3.919 --    40 C    1.365     3 C    1.365    42 H    0.970
     3   6 C    3.916 --     2 C    1.365     7 N    1.202     4 C    1.175
     4   6 C    3.958 --     5 C    1.645     3 C    1.175    43 H    0.975
     5   6 C    3.961 --     4 C    1.645     6 C    1.182    44 H    0.973
     6   6 C    3.912 --     8 C    1.264     7 N    1.244     5 C    1.182
     7   7 N    3.376 --     6 C    1.244     3 C    1.202     1 Fe   0.658
     8   6 C    3.918 --    17 C    1.281     6 C    1.264     9 C    1.160
     9   6 C    3.956 --    10 C    2.622     8 C    1.160
    10   6 C    3.928 --     9 C    2.622    11 C    1.141
    11   6 C    3.987 --    16 C    1.351    12 C    1.350    10 C    1.141
    12   6 C    3.973 --    13 C    1.457    11 C    1.350    45 H    0.974
                            15 C    0.104
    13   6 C    3.972 --    12 C    1.457    14 N    1.407    46 H    0.972
                            16 C    0.104
    14   7 N    2.994 --    15 C    1.408    13 C    1.407
    15   6 C    3.972 --    16 C    1.456    14 N    1.408    47 H    0.972
                            12 C    0.104
    16   6 C    3.972 --    15 C    1.456    11 C    1.351    48 H    0.974
                            13 C    0.104
    17   6 C    3.906 --     8 C    1.281    20 N    1.220    18 C    1.188
    18   6 C    3.956 --    19 C    1.632    17 C    1.188    49 H    0.973
    19   6 C    3.959 --    18 C    1.632    21 C    1.191    50 H    0.973
    20   7 N    3.375 --    21 C    1.237    17 C    1.220     1 Fe   0.651
    21   6 C    3.894 --    22 C    1.252    20 N    1.237    19 C    1.191
    22   6 C    3.917 --    21 C    1.252    23 C    1.252   120 C    1.203
    23   6 C    3.894 --    22 C    1.252    27 N    1.238    24 C    1.191
    24   6 C    3.959 --    25 C    1.632    23 C    1.191    51 H    0.973
    25   6 C    3.956 --    24 C    1.632    26 C    1.188    52 H    0.974
    26   6 C    3.907 --    28 C    1.282    27 N    1.219    25 C    1.188
    27   7 N    3.375 --    23 C    1.238    26 C    1.219     1 Fe   0.651
    28   6 C    3.918 --    26 C    1.282    37 C    1.263    29 C    1.160
    29   6 C    3.956 --    30 C    2.622    28 C    1.160
    30   6 C    3.928 --    29 C    2.622    31 C    1.141
    31   6 C    3.987 --    32 C    1.350    36 C    1.350    30 C    1.141
    32   6 C    3.973 --    33 C    1.456    31 C    1.350    53 H    0.974
                            35 C    0.104
    33   6 C    3.972 --    32 C    1.456    34 N    1.407    54 H    0.972
                            36 C    0.104
    34   7 N    2.994 --    33 C    1.407    35 C    1.407
    35   6 C    3.972 --    36 C    1.457    34 N    1.407    55 H    0.972
                            32 C    0.104
    36   6 C    3.972 --    35 C    1.457    31 C    1.350    56 H    0.974
                            33 C    0.104
    37   6 C    3.912 --    28 C    1.263    41 N    1.245    38 C    1.182
    38   6 C    3.961 --    39 C    1.645    37 C    1.182    57 H    0.973
    39   6 C    3.958 --    38 C    1.645    40 C    1.175    58 H    0.975
    40   6 C    3.916 --     2 C    1.365    41 N    1.202    39 C    1.175
    41   7 N    3.375 --    37 C    1.245    40 C    1.202     1 Fe   0.657
    42   1 H    1.000 --     2 C    0.970
    43   1 H    0.997 --     4 C    0.975
    44   1 H    1.002 --     5 C    0.973
    45   1 H    1.002 --    12 C    0.974
    46   1 H    1.013 --    13 C    0.972
    47   1 H    1.013 --    15 C    0.972
    48   1 H    1.002 --    16 C    0.974
    49   1 H    1.002 --    18 C    0.973
    50   1 H    1.001 --    19 C    0.973
    51   1 H    1.001 --    24 C    0.973
    52   1 H    1.002 --    25 C    0.974
    53   1 H    1.002 --    32 C    0.974
    54   1 H    1.013 --    33 C    0.972
    55   1 H    1.013 --    35 C    0.972
    56   1 H    1.002 --    36 C    0.974
    57   1 H    1.003 --    38 C    0.973
    58   1 H    0.997 --    39 C    0.975
    59  26 Fe   3.067 --    65 N    0.658    99 N    0.657    85 N    0.651
                            78 N    0.651
    60   6 C    3.919 --    98 C    1.365    61 C    1.365   100 H    0.970
    61   6 C    3.916 --    60 C    1.365    65 N    1.202    62 C    1.175
    62   6 C    3.958 --    63 C    1.645    61 C    1.175   101 H    0.975
    63   6 C    3.961 --    62 C    1.645    64 C    1.182   102 H    0.973
    64   6 C    3.912 --    66 C    1.264    65 N    1.244    63 C    1.182
    65   7 N    3.376 --    64 C    1.244    61 C    1.202    59 Fe   0.658
    66   6 C    3.918 --    75 C    1.281    64 C    1.264    67 C    1.160
    67   6 C    3.956 --    68 C    2.622    66 C    1.160
    68   6 C    3.928 --    67 C    2.622    69 C    1.141
    69   6 C    3.987 --    74 C    1.350    70 C    1.350    68 C    1.141
    70   6 C    3.973 --    71 C    1.457    69 C    1.350   103 H    0.974
                            73 C    0.104
    71   6 C    3.972 --    70 C    1.457    72 N    1.407   104 H    0.972
                            74 C    0.104
    72   7 N    2.994 --    73 C    1.408    71 C    1.407
    73   6 C    3.972 --    74 C    1.456    72 N    1.408   105 H    0.972
                            70 C    0.104
    74   6 C    3.972 --    73 C    1.456    69 C    1.350   106 H    0.974
                            71 C    0.104
    75   6 C    3.906 --    66 C    1.281    78 N    1.220    76 C    1.188
    76   6 C    3.956 --    77 C    1.632    75 C    1.188   107 H    0.973
    77   6 C    3.959 --    76 C    1.632    79 C    1.191   108 H    0.973
    78   7 N    3.375 --    79 C    1.237    75 C    1.220    59 Fe   0.651
    79   6 C    3.894 --    80 C    1.252    78 N    1.237    77 C    1.191
    80   6 C    3.917 --    79 C    1.252    81 C    1.252   122 C    1.203
    81   6 C    3.894 --    80 C    1.252    85 N    1.238    82 C    1.191
    82   6 C    3.959 --    83 C    1.632    81 C    1.191   109 H    0.973
    83   6 C    3.956 --    82 C    1.632    84 C    1.188   110 H    0.974
    84   6 C    3.907 --    86 C    1.282    85 N    1.219    83 C    1.188
    85   7 N    3.375 --    81 C    1.238    84 C    1.219    59 Fe   0.651
    86   6 C    3.918 --    84 C    1.282    95 C    1.263    87 C    1.160
    87   6 C    3.956 --    88 C    2.622    86 C    1.160
    88   6 C    3.928 --    87 C    2.622    89 C    1.141
    89   6 C    3.987 --    90 C    1.350    94 C    1.350    88 C    1.141
    90   6 C    3.973 --    91 C    1.456    89 C    1.350   111 H    0.974
                            93 C    0.104
    91   6 C    3.972 --    90 C    1.456    92 N    1.407   112 H    0.972
                            94 C    0.104
    92   7 N    2.994 --    91 C    1.407    93 C    1.407
    93   6 C    3.972 --    94 C    1.457    92 N    1.407   113 H    0.972
                            90 C    0.104
    94   6 C    3.972 --    93 C    1.457    89 C    1.350   114 H    0.974
                            91 C    0.104
    95   6 C    3.912 --    86 C    1.263    99 N    1.245    96 C    1.182
    96   6 C    3.961 --    97 C    1.645    95 C    1.182   115 H    0.973
    97   6 C    3.958 --    96 C    1.645    98 C    1.175   116 H    0.975
    98   6 C    3.916 --    60 C    1.365    99 N    1.202    97 C    1.175
    99   7 N    3.375 --    95 C    1.245    98 C    1.202    59 Fe   0.657
   100   1 H    1.000 --    60 C    0.970
   101   1 H    0.997 --    62 C    0.975
   102   1 H    1.002 --    63 C    0.973
   103   1 H    1.002 --    70 C    0.974
   104   1 H    1.013 --    71 C    0.972
   105   1 H    1.013 --    73 C    0.972
   106   1 H    1.002 --    74 C    0.974
   107   1 H    1.002 --    76 C    0.973
   108   1 H    1.001 --    77 C    0.973
   109   1 H    1.001 --    82 C    0.973
   110   1 H    1.002 --    83 C    0.974
   111   1 H    1.002 --    90 C    0.974
   112   1 H    1.013 --    91 C    0.972
   113   1 H    1.013 --    93 C    0.972
   114   1 H    1.002 --    94 C    0.974
   115   1 H    1.003 --    96 C    0.973
   116   1 H    0.997 --    97 C    0.975
   117   6 C    3.915 --   118 C    2.342   121 C    1.351   120 C    0.187
   118   6 C    3.915 --   117 C    2.342   119 C    1.351   122 C    0.187
   119   6 C    3.924 --   120 C    2.425   118 C    1.351
   120   6 C    3.878 --   119 C    2.425    22 C    1.203   117 C    0.187
   121   6 C    3.924 --   122 C    2.425   117 C    1.351
   122   6 C    3.878 --   121 C    2.425    80 C    1.203   118 C    0.187
 ---------------------------------------------------------------------------

Topologies differ in total number of bonds
Writing topology from bond orders to xtbtopo.mol

 dipole moment from electron density (au)
     X       Y       Z   
   0.0004   0.0397  -0.0707  total (Debye):    0.206

           -------------------------------------------------
          |                Geometry Summary                 |
           -------------------------------------------------

      molecular mass/u    :     1202.8351695
   center of mass at/Å    :       22.8928723       0.0012548      -0.0026431
  moments of inertia/u·Å² :        0.3164105E+05   0.7923523E+05   0.1067194E+06
rotational constants/cm⁻¹ :        0.5327772E-03   0.2127543E-03   0.1579622E-03

 * 121 selected distances

     #   Z          #   Z                                           value/Å
     2   6 C        3   6 C                                       1.3793507
     3   6 C        4   6 C                                       1.4318324
     4   6 C        5   6 C                                       1.3546082
     5   6 C        6   6 C                                       1.4317460
     3   6 C        7   7 N                                       1.3722962
     6   6 C        7   7 N                                       1.3633706
     6   6 C        8   6 C                                       1.3975198
     9   6 C       10   6 C                                       1.2135792
    11   6 C       12   6 C                                       1.3999479
    12   6 C       13   6 C                                       1.3833683
    13   6 C       14   7 N                                       1.3306299
    14   7 N       15   6 C                                       1.3304974
    11   6 C       16   6 C                                       1.3996437
    15   6 C       16   6 C                                       1.3835814
     8   6 C       17   6 C                                       1.3949145
    17   6 C       18   6 C                                       1.4296676
    18   6 C       19   6 C                                       1.3556655
    17   6 C       20   7 N                                       1.3692855
    19   6 C       21   6 C                                       1.4292960
    20   7 N       21   6 C                                       1.3654350
    21   6 C       22   6 C                                       1.4000703
    22   6 C       23   6 C                                       1.4001561
    23   6 C       24   6 C                                       1.4292136
    24   6 C       25   6 C                                       1.3557920
    25   6 C       26   6 C                                       1.4295953
    23   6 C       27   7 N                                       1.3651058
    26   6 C       27   7 N                                       1.3695442
    26   6 C       28   6 C                                       1.3946966
    29   6 C       30   6 C                                       1.2135801
    31   6 C       32   6 C                                       1.3996951
    32   6 C       33   6 C                                       1.3835499
    33   6 C       34   7 N                                       1.3305740
    34   7 N       35   6 C                                       1.3305607
    31   6 C       36   6 C                                       1.3999066
    35   6 C       36   6 C                                       1.3834490
    28   6 C       37   6 C                                       1.3978695
    37   6 C       38   6 C                                       1.4317896
    38   6 C       39   6 C                                       1.3545905
     2   6 C       40   6 C                                       1.3793140
    39   6 C       40   6 C                                       1.4318575
    37   6 C       41   7 N                                       1.3631239
    40   6 C       41   7 N                                       1.3722456
     2   6 C       42   1 H                                       1.0843181
     4   6 C       43   1 H                                       1.0783984
     5   6 C       44   1 H                                       1.0782610
    12   6 C       45   1 H                                       1.0832911
    13   6 C       46   1 H                                       1.0862137
    15   6 C       47   1 H                                       1.0861648
    16   6 C       48   1 H                                       1.0832811
    18   6 C       49   1 H                                       1.0781239
    19   6 C       50   1 H                                       1.0780436
    24   6 C       51   1 H                                       1.0780527
    25   6 C       52   1 H                                       1.0781239
    32   6 C       53   1 H                                       1.0832481
    33   6 C       54   1 H                                       1.0861809
    35   6 C       55   1 H                                       1.0861858
    36   6 C       56   1 H                                       1.0833024
    38   6 C       57   1 H                                       1.0782571
    39   6 C       58   1 H                                       1.0783865
    60   6 C       61   6 C                                       1.3793582
    61   6 C       62   6 C                                       1.4318328
    62   6 C       63   6 C                                       1.3546158
    63   6 C       64   6 C                                       1.4317443
    61   6 C       65   7 N                                       1.3722980
    64   6 C       65   7 N                                       1.3633809
    64   6 C       66   6 C                                       1.3975251
    67   6 C       68   6 C                                       1.2135985
    69   6 C       70   6 C                                       1.3999282
    70   6 C       71   6 C                                       1.3833928
    71   6 C       72   7 N                                       1.3306297
    72   7 N       73   6 C                                       1.3305005
    69   6 C       74   6 C                                       1.3996792
    73   6 C       74   6 C                                       1.3835824
    66   6 C       75   6 C                                       1.3949004
    75   6 C       76   6 C                                       1.4296648
    76   6 C       77   6 C                                       1.3556556
    75   6 C       78   7 N                                       1.3692663
    77   6 C       79   6 C                                       1.4292950
    78   7 N       79   6 C                                       1.3654260
    79   6 C       80   6 C                                       1.4000492
    80   6 C       81   6 C                                       1.4001509
    81   6 C       82   6 C                                       1.4292027
    82   6 C       83   6 C                                       1.3557963
    83   6 C       84   6 C                                       1.4295798
    81   6 C       85   7 N                                       1.3651091
    84   6 C       85   7 N                                       1.3695372
    84   6 C       86   6 C                                       1.3946948
    87   6 C       88   6 C                                       1.2136208
    89   6 C       90   6 C                                       1.3997060
    90   6 C       91   6 C                                       1.3835487
    91   6 C       92   7 N                                       1.3305702
    92   7 N       93   6 C                                       1.3305606
    89   6 C       94   6 C                                       1.3999017
    93   6 C       94   6 C                                       1.3834404
    86   6 C       95   6 C                                       1.3978718
    95   6 C       96   6 C                                       1.4318038
    96   6 C       97   6 C                                       1.3545930
    60   6 C       98   6 C                                       1.3793231
    97   6 C       98   6 C                                       1.4318610 (max)
    95   6 C       99   7 N                                       1.3631381
    98   6 C       99   7 N                                       1.3722496
    60   6 C      100   1 H                                       1.0843230
    62   6 C      101   1 H                                       1.0783993
    63   6 C      102   1 H                                       1.0782615
    70   6 C      103   1 H                                       1.0832559
    71   6 C      104   1 H                                       1.0862202
    73   6 C      105   1 H                                       1.0861681
    74   6 C      106   1 H                                       1.0833076
    76   6 C      107   1 H                                       1.0781216
    77   6 C      108   1 H                                       1.0780392 (min)
    82   6 C      109   1 H                                       1.0780565
    83   6 C      110   1 H                                       1.0781233
    90   6 C      111   1 H                                       1.0832432
    91   6 C      112   1 H                                       1.0861828
    93   6 C      113   1 H                                       1.0861891
    94   6 C      114   1 H                                       1.0832997
    96   6 C      115   1 H                                       1.0782567
    97   6 C      116   1 H                                       1.0783898
   117   6 C      118   6 C                                       1.2301277
   119   6 C      120   6 C                                       1.2255008
   121   6 C      122   6 C                                       1.2255108

 * 3 distinct bonds (by element types)

   Z      Z             #   av. dist./Å        max./Å        min./Å
   1 H    6 C          34     1.0816374     1.0862202     1.0780392
   6 C    6 C          63     1.3781096     1.4318610     1.2135792
   6 C    7 N          24     1.3552223     1.3722980     1.3304974


optimized geometry written to: xtbopt.xyz


           -------------------------------------------------
          | TOTAL ENERGY             -218.629147683099 Eh   |
          | GRADIENT NORM               0.000773899334 Eh/α |
          | HOMO-LUMO GAP               0.069740504059 eV   |
           -------------------------------------------------

------------------------------------------------------------------------
 * finished run on 2022/07/29 at 17:47:22.383     
------------------------------------------------------------------------
 total:
 * wall-time:     0 d,  0 h,  1 min,  9.309 sec
 *  cpu-time:     0 d,  0 h,  1 min,  8.815 sec
 * ratio c/w:     0.993 speedup
 SCF:
 * wall-time:     0 d,  0 h,  0 min,  4.173 sec
 *  cpu-time:     0 d,  0 h,  0 min,  4.146 sec
 * ratio c/w:     0.993 speedup
 ANC optimizer:
 * wall-time:     0 d,  0 h,  1 min,  4.918 sec
 *  cpu-time:     0 d,  0 h,  1 min,  4.472 sec
 * ratio c/w:     0.993 speedup

