122
 energy: -218.472980434828 gnorm: 0.391242171601 xtb: 6.5.1 (b24c23e)
Fe          14.65681800000000       -0.01224800000000       -0.01498600000000
C           11.27111200000000        0.13007500000000        0.03289000000000
C           11.93660700000000        0.91987800000000        0.88041100000000
C           11.28900200000000        1.80540700000000        1.84114500000000
C           12.23351400000000        2.45338100000000        2.49783300000000
C           13.53803600000000        2.01481800000000        1.98244600000000
N           13.35639000000000        1.03730100000000        0.95778700000000
C           14.73140800000000        2.48824700000000        2.38871400000000
C           14.77282000000000        3.50212400000000        3.41892200000000
C           14.80984900000000        4.34734200000000        4.27766300000000
C           14.85475900000000        5.35565400000000        5.30244400000000
C           16.06035200000000        6.00081400000000        5.60172200000000
C           16.08220300000000        6.97739300000000        6.60106900000000
N           14.94115700000000        7.29260700000000        7.27192200000000
C           13.75864600000000        6.67808600000000        6.99745700000000
C           13.69321900000000        5.69607600000000        6.00539600000000
C           16.02630900000000        2.03331900000000        1.82294100000000
C           17.31762400000000        2.65303000000000        2.14386300000000
C           18.25397300000000        1.99096700000000        1.49590900000000
N           16.16672400000000        1.02941300000000        1.01146800000000
C           17.56853700000000        0.93788800000000        0.75554500000000
C           18.16457000000000       -0.00020200000000        0.00005600000000
C           17.40758200000000       -1.04744400000000       -0.72609600000000
C           17.96046400000000       -2.12832000000000       -1.26283000000000
C           16.91401700000000       -2.85053500000000       -1.95796700000000
C           15.78744000000000       -2.16466100000000       -1.80066100000000
N           16.00918900000000       -0.99204200000000       -1.01364900000000
C           14.48997400000000       -2.53574500000000       -2.41981500000000
C           14.48327800000000       -3.54596200000000       -3.45604400000000
C           14.47814100000000       -4.38769700000000       -4.31907000000000
C           14.47184200000000       -5.39203900000000       -5.34877100000000
C           15.66491900000000       -6.01627400000000       -5.72940700000000
C           15.63705300000000       -6.98889100000000       -6.73250800000000
N           14.46013200000000       -7.32080600000000       -7.32831600000000
C           13.28878300000000       -6.72707700000000       -6.97385100000000
C           13.27264800000000       -5.74947100000000       -5.97525900000000
C           13.32691100000000       -1.97317300000000       -2.04866500000000
C           12.00721800000000       -2.28966800000000       -2.59279800000000
C           11.14507100000000       -1.56192900000000       -1.90967300000000
C           11.90452900000000       -0.77867700000000       -0.93607100000000
N           13.17749800000000       -1.01126500000000       -1.00697600000000
H           10.18766700000000        0.15365700000000        0.05196000000000
H           10.22465300000000        1.92426100000000        1.99857200000000
H           12.05111800000000        3.18511400000000        3.27445800000000
H           16.97108300000000        5.75196800000000        5.06923800000000
H           17.00675200000000        7.48480400000000        6.84343800000000
H           12.86897700000000        6.95184600000000        7.54935000000000
H           12.74968800000000        5.20870100000000        5.78907100000000
H           17.49229600000000        3.50115500000000        2.79303400000000
H           19.31318100000000        2.20797000000000        1.53194500000000
H           19.00227900000000       -2.41542900000000       -1.21706100000000
H           17.03970200000000       -3.76679100000000       -2.52028800000000
H           16.60404400000000       -5.75438000000000       -5.25677500000000
H           16.55159700000000       -7.48002700000000       -7.03732200000000
H           12.36960800000000       -7.01378600000000       -7.46716600000000
H           12.33779200000000       -5.27860100000000       -5.69543100000000
H           11.75989900000000       -2.98338500000000       -3.38609700000000
H           10.07237000000000       -1.55850900000000       -2.05187600000000
Fe          31.12890600000000        0.01889000000000        0.00267100000000
C           34.51461200000000       -0.09525900000000       -0.09488900000000
C           33.84911600000000       -1.22803300000000       -0.33759000000000
C           34.49672200000000       -2.50710500000000       -0.60432200000000
C           33.55221000000000       -3.40330200000000       -0.82327700000000
C           32.24768700000000       -2.73586900000000       -0.71149400000000
N           32.42933300000000       -1.35471500000000       -0.39863800000000
C           31.05431600000000       -3.32755800000000       -0.90921500000000
C           31.01290300000000       -4.73213900000000       -1.25042700000000
C           30.97587400000000       -5.90299000000000       -1.53492400000000
C           30.93096500000000       -7.30005800000000       -1.87414600000000
C           29.72537200000000       -7.88809100000000       -2.27416600000000
C           29.70352100000000       -9.24704100000000       -2.59921200000000
N           30.84456600000000       -9.98456800000000       -2.52532900000000
C           32.02707700000000       -9.43355700000000       -2.13886400000000
C           32.09250400000000       -8.07807100000000       -1.80541700000000
C           29.75941500000000       -2.60848500000000       -0.80925500000000
C           28.46810000000000       -3.20202700000000       -1.17632500000000
C           27.53175000000000       -2.30609300000000       -0.94079600000000
N           29.61900000000000       -1.39673300000000       -0.36431100000000
C           28.21718600000000       -1.13012200000000       -0.41714800000000
C           27.62115400000000       -0.00020200000000        0.00005600000000
C           28.37814200000000        1.16057500000000        0.52599000000000
C           27.82526000000000        2.17606600000000        1.17802900000000
C           28.87170700000000        3.14337100000000        1.44095600000000
C           29.99828300000000        2.65627300000000        0.93311400000000
N           29.77653500000000        1.37890400000000        0.33082700000000
C           31.29574900000000        3.37811500000000        0.93371700000000
C           31.30244600000000        4.78598500000000        1.26869700000000
C           31.30758300000000        5.95872500000000        1.54800600000000
C           31.31388100000000        7.35797600000000        1.88129400000000
C           30.12080400000000        8.00508600000000        2.22159200000000
C           30.14867100000000        9.36522400000000        2.54131000000000
N           31.32559100000000       10.04692200000000        2.52028500000000
C           32.49694000000000        9.43793300000000        2.19273200000000
C           32.51307600000000        8.07910300000000        1.86641700000000
C           32.45881200000000        2.77080100000000        0.64146800000000
C           33.77850500000000        3.40023800000000        0.63373900000000
C           34.64065200000000        2.44040500000000        0.35990300000000
C           33.88119400000000        1.20279400000000        0.18754900000000
N           32.60822500000000        1.38304600000000        0.35074900000000
H           35.59805600000000       -0.12373100000000       -0.10533600000000
H           35.56107100000000       -2.70322000000000       -0.62550200000000
H           33.73460600000000       -4.44542300000000       -1.05254000000000
H           28.81464000000000       -7.30338000000000       -2.33397000000000
H           28.77897200000000       -9.71552100000000       -2.91023500000000
H           32.91674700000000      -10.04771400000000       -2.09047600000000
H           33.03603500000000       -7.64222700000000       -1.49821900000000
H           28.29342800000000       -4.19452300000000       -1.57090200000000
H           26.47254200000000       -2.44841900000000       -1.10852200000000
H           26.78344500000000        2.28417900000000        1.44791400000000
H           28.74602200000000        4.09631000000000        1.93858800000000
H           29.18167900000000        7.46504000000000        2.23947300000000
H           29.23412700000000        9.87893700000000        2.80630900000000
H           33.41611600000000       10.00846700000000        2.18552900000000
H           33.44793200000000        7.59723500000000        1.60598300000000
H           34.02582399999999        4.43715300000000        0.82181700000000
H           35.71335300000000        2.56068400000000        0.28396700000000
C           23.49678200000000        0.00110900000000        0.00848800000000
C           22.28784300000000       -0.01234600000000        0.00004100000000
C           20.86631400000000       -0.00352700000000       -0.01194200000000
C           19.65464400000000        0.00391200000000       -0.00107900000000
C           24.91338600000000       -0.00556600000000        0.00902100000000
C           26.13408200000000        0.00391200000000       -0.00107900000000
122
 energy: -218.549848353107 gnorm: 0.212611083302 xtb: 6.5.1 (b24c23e)
Fe          14.66146825927323       -0.00166484391236       -0.00869354593733
C           11.27342730688027        0.11554463882825        0.01624872693892
C           11.94713290377232        0.91547591816969        0.87652582525596
C           11.29545772396667        1.79528162181579        1.83081419220744
C           12.25315697181209        2.45061201124156        2.49508780102660
C           13.54140318209689        2.00524211540244        1.97499637514853
N           13.34660854733749        1.04016382276583        0.96904821042199
C           14.75308943198945        2.49015298194810        2.38882540583825
C           14.78433234947961        3.49588954091425        3.40687817106081
C           14.81343656521032        4.34439506951759        4.27652547521257
C           14.85445836680481        5.34725219202078        5.29374015190500
C           16.05267267949894        5.99893706443671        5.60252640432633
C           16.05725321299102        6.96760957334431        6.59856460185346
N           14.94101831145588        7.29137076524021        7.27062965519808
C           13.78288689305893        6.67459624622596        6.98629558337862
C           13.70068819804110        5.69643982212633        6.00280126462340
C           16.01852851532408        2.04639274720943        1.83373439458163
C           17.29745394816421        2.66196461262940        2.15748395525863
C           18.24482390997117        1.98453107329239        1.49294504446132
N           16.17349211025043        1.03915689902226        0.99310266139178
C           17.56710747300190        0.93753639540822        0.75373382051448
C           18.17353287234783       -0.01762246885176       -0.00592771049079
C           17.40330875685517       -1.03196762896626       -0.72759563347891
C           17.96693358061479       -2.14488385868066       -1.28159372164419
C           16.93902726828076       -2.85106084238003       -1.96095589653339
C           15.78270032058292       -2.14407634767886       -1.79632827342511
N           16.00782770370541       -1.00418590695722       -0.98490604052419
C           14.51290819241275       -2.52535698233581       -2.41368804132678
C           14.50048088442300       -3.53239233491122       -3.43898771727932
C           14.48549225587781       -4.38174590185858       -4.31121804832925
C           14.47245719927207       -5.38116710693323       -5.33725761088813
C           15.65719054724723       -6.01359610855910       -5.72835326349961
C           15.61220182571913       -6.97879965453740       -6.72745818843522
N           14.45996330755383       -7.31861814417057       -7.32605384925673
C           13.31363492142040       -6.72204506517437       -6.96327739567051
C           13.28069777370009       -5.74799665173950       -5.97182225979343
C           13.33032411034294       -1.96424051197639       -2.04295563765779
C           12.01970967899758       -2.28383811611317       -2.58453394756093
C           11.13374327911806       -1.55009015698235       -1.89442201512965
C           11.88714608581845       -0.76979865076303       -0.92734279022710
N           13.18335750024227       -1.00392948108669       -1.01600860334362
H           10.18985074403377        0.14383456126570        0.03941143826902
H           10.22993349322407        1.90848221226600        1.98208991612292
H           12.08091999268232        3.18340991114533        3.27227651339223
H           16.96636757912895        5.75303566101688        5.07193455026972
H           16.98086839424121        7.48316695628442        6.84956282557883
H           12.89494847044432        6.95672060900646        7.54654583457899
H           12.75443821605077        5.21078810475230        5.78981429136054
H           17.46871127339875        3.50825134615919        2.80366491669151
H           19.30591953826885        2.19035655270477        1.51897274622172
H           19.00529671530884       -2.42883650951391       -1.22463897179315
H           17.05239217722076       -3.76888951589892       -2.51733905432506
H           16.59986093250734       -5.75522470143462       -5.25860403406997
H           16.52537332502070       -7.47831399872729       -7.04127182770394
H           12.39570401723848       -7.01751991231967       -7.46535756764451
H           12.34225356327286       -5.27983733377690       -5.69577982681679
H           11.78649453758934       -2.97983372885279       -3.37965175476159
H           10.06436723021351       -1.54510168794099       -2.03721629086842
Fe          31.12415393868469        0.00799604842543       -0.00322534059294
C           34.51229045037651       -0.07352347462032       -0.09096463901819
C           33.83857554633299       -1.22243785099578       -0.33580867539192
C           34.49023586752849       -2.49304351808158       -0.60093841913452
C           33.53251252622619       -3.39951187256133       -0.82231072673725
C           32.24424786445640       -2.72452244192003       -0.70709223576177
N           32.43909257933130       -1.36583115203994       -0.39530260802242
C           31.03247969224588       -3.32850840679850       -0.91074700094014
C           31.00131685391214       -4.71852759230704       -1.25124270007040
C           30.97226684317361       -5.90044865152261       -1.53295630486811
C           30.93126739797922       -7.28824371407731       -1.87139991381241
C           29.73305592451626       -7.88780456794299       -2.27213931358930
C           29.72847361895371       -9.23985971129797       -2.59209944035127
N           30.84470627294792       -9.98281557193983       -2.52492969842733
C           32.00283539152089       -9.42217583357225       -2.14159717230263
C           32.08503319510700       -8.07601540837871       -1.80705945113896
C           29.76690566841922       -2.62430015188514       -0.81492476090524
C           28.48812065270371       -3.21833073372930       -1.17700494524875
C           27.54049138692852       -2.30045969091849       -0.93681824849325
N           29.61145961214570       -1.38569224222304       -0.38227255233877
C           28.21751450832009       -1.12843705594640       -0.41795716939262
C           27.61075254677523        0.01408560803103        0.01169696315653
C           28.38247135784645        1.15379036603281        0.51173248433118
C           27.81894854004949        2.20050565724059        1.18262635678126
C           28.84676658396626        3.14614200091690        1.43984732487140
C           30.00306936053979        2.64194967344457        0.91761969769375
N           29.77791796444961        1.36045655236038        0.35583321047002
C           31.27283098139049        3.36751902863840        0.92793817826940
C           31.28524955299156        4.76437633963180        1.26580905319424
C           31.30022996320366        5.94892521493227        1.54694090195925
C           31.31326516047458        7.34251375298793        1.87786990979429
C           30.12853261586950        8.00280657639237        2.21983308365821
C           30.17352189750862        9.35570954662341        2.53524169904367
N           31.32575999917502       10.04385714482510        2.51956813184982
C           32.47208828072984        9.42627490721219        2.19384124731887
C           32.50502554834636        8.07539601067501        1.86691462605015
C           32.45540529867630        2.76130599211212        0.63672584670178
C           33.76601392077872        3.39014681342459        0.63297589422088
C           34.65197643159105        2.42123155273153        0.35757099122746
C           33.89856528002149        1.19074074753793        0.18440607598643
N           32.60234776624304        1.38701280248222        0.33980068204316
H           35.59586779956093       -0.10792409291443       -0.10334852142905
H           35.55576484319337       -2.68098270572684       -0.62042510251229
H           33.70476765015655       -4.44266567333536       -1.05219634682538
H           28.81935584848232       -7.30623799563858       -2.33350079202877
H           28.80485857209742       -9.71993037861954       -2.90568373954849
H           32.89077342201270      -10.04780236708431       -2.09609750112655
H           33.03128647055073       -7.64393041095337       -1.49962654292621
H           28.31704375914807       -4.20733536177044       -1.57154126344071
H           26.47950046639403       -2.42847461242504       -1.10016049393225
H           26.78054505702985        2.29749598805272        1.45549756644136
H           28.73335325086225        4.09480121472087        1.94188133002477
H           29.18586225191140        7.46704297316275        2.23925902794382
H           29.26035044454477        9.88144714607778        2.80281134019677
H           33.39001968355770       10.00883136753825        2.18966142284950
H           33.44347014064966        7.59816869039634        1.60686478033632
H           33.99922864614256        4.42979358055095        0.82207755806022
H           35.72135325133372        2.54121452631548        0.27998659888795
C           23.51029640908145        0.00193559427778        0.00750435962622
C           22.27682639705870       -0.01329108134104        0.00047830587463
C           20.87357121095548       -0.01200420325423       -0.01878022287859
C           19.64371847391345       -0.01423228713256       -0.01627704294407
C           24.91157820420081        0.00188479361187        0.00561691371774
C           26.14161277996594        0.03000272846290        0.01438008887468
122
 energy: -218.591766154143 gnorm: 0.071853790774 xtb: 6.5.1 (b24c23e)
Fe          14.67617186177609        0.00651610415563       -0.00432619168595
C           11.28387623111345        0.10078524357576       -0.00015317949219
C           11.96492527999787        0.91183874167654        0.87797552057857
C           11.30743191764779        1.78370742359123        1.81952502510860
C           12.27692568297570        2.44446329040617        2.48968106791879
C           13.54366319245799        1.99074975520160        1.96589104314889
N           13.33848854614443        1.04643443428637        0.98111222460756
C           14.77801954944489        2.49078846342173        2.38444030606613
C           14.79593674522168        3.48827872922811        3.39362048988761
C           14.81616939210538        4.33644505620110        4.26678861007759
C           14.85381791868829        5.33223522389674        5.27917676336034
C           16.04652922291497        5.99423980519409        5.60017761678383
C           16.03523970366528        6.95698286696805        6.59424666705045
N           14.94084895502493        7.28991212702987        7.26921868466759
C           13.80407963780808        6.66945658452026        6.97423670012989
C           13.70634980690224        5.69354764883339        5.99756971995662
C           16.01037739038880        2.05851651786373        1.84121463474593
C           17.27669611195794        2.66113725408934        2.16676891449041
C           18.23023325036520        1.97415303391917        1.48747912540127
N           16.18427393361601        1.04246670034547        0.96683734248013
C           17.56162087121201        0.94283127107298        0.74471321937592
C           18.19120016979187       -0.03929531625820       -0.01670212952629
C           17.40319776804093       -1.01965049500775       -0.72057305314231
C           17.97155804825848       -2.16168988504518       -1.30690926793572
C           16.97193194540529       -2.84248875193485       -1.96430422570315
C           15.77951422548617       -2.12357089836527       -1.78242742663498
N           16.02240574308222       -1.01650660786528       -0.96627591148832
C           14.54654163635460       -2.51377816143874       -2.39996710806813
C           14.52582194914688       -3.51924708483921       -3.41573716629538
C           14.49492949895503       -4.36621576144008       -4.29349018211019
C           14.47342359163589       -5.36171245728030       -5.31670312818085
C           15.65091390525355       -6.00663497676750       -5.72252045964472
C           15.59016252941357       -6.96622246427612       -6.71928033673961
N           14.45971536802819       -7.31489930635019       -7.32219611877821
C           13.33599225694944       -6.71344976327523       -6.94951750901536
C           13.28794808976239       -5.74146823314485       -5.96326318429583
C           13.33632548447380       -1.94520919566312       -2.03394141796865
C           12.03989818458079       -2.27243333428747       -2.57072128333023
C           11.13288795388959       -1.53963994598633       -1.87673672772973
C           11.87228963489687       -0.75831561517161       -0.91779836618160
N           13.19806104707117       -0.99415405236805       -1.02938776307068
H           10.19911244879219        0.13961555915644        0.02859014728000
H           10.24064554912197        1.88947685753257        1.96151312596252
H           12.11827179476315        3.17889168093832        3.26676187113556
H           16.96301114119246        5.75282566068407        5.07305429106140
H           16.95654984270281        7.48059468530617        6.85425284053416
H           12.91923042365649        6.96018875347105        7.54269654297392
H           12.75758908178127        5.21147380673257        5.78929081266180
H           17.44287725920916        3.50741149739196        2.81169149229478
H           19.29369462817021        2.16726744433195        1.50391189721527
H           19.00958053922223       -2.43751725927576       -1.23535616255344
H           17.06346945518317       -3.76395587792505       -2.51670968623730
H           16.59750045362361       -5.75413130436170       -5.25804671096926
H           16.50040607285906       -7.47428312684790       -7.04256100895359
H           12.42068618970354       -7.01793530868856       -7.46041219938493
H           12.34545936298617       -5.27833749951317       -5.69354526309332
H           11.82242111618964       -2.97227760650163       -3.36693015623475
H           10.06477126823277       -1.53333319193592       -2.01975421180508
Fe          31.10954021387758        0.00020873228929       -0.00803628352499
C           34.50183526971037       -0.05187677047932       -0.08672538648723
C           33.82074410375953       -1.22181079097664       -0.33194617162560
C           34.47821082564712       -2.47741954447965       -0.59680475433920
C           33.50869765326202       -3.39171822702925       -0.81982120833602
C           32.24193873856474       -2.70927554094536       -0.69933679376079
N           32.44715867924070       -1.37939040940654       -0.39447337553555
C           31.00750624987207       -3.32503947154006       -0.91357884415428
C           30.98964944785299       -4.70322731109385       -1.25146992754471
C           30.96949741661578       -5.88796887229972       -1.53114513655873
C           30.93190493068971       -7.26800812340361       -1.86598119641002
C           29.73920245837170       -7.88336141850554       -2.26930911823416
C           29.75049033834732       -9.23068372498080       -2.58519126337544
N           30.84487811329607       -9.98084125575840       -2.52439768345755
C           31.98164180669082       -9.40916885778700       -2.14337322667726
C           32.07936741697363       -8.07001891904561       -1.80725988646809
C           29.77505315110836       -2.63688074227715       -0.82159940958419
C           28.50884063006704       -3.22576276998907       -1.17165706004627
C           27.55502089284755       -2.29036193877583       -0.93069375395280
N           29.60086835129941       -1.36490210480927       -0.39852521505769
C           28.22314771828601       -1.12387579547034       -0.42612882130350
C           27.59400863461256        0.03296564517742        0.02784057587576
C           28.38321406666909        1.14095630995613        0.50576632346117
C           27.81449478087673        2.23085447456729        1.18400985758643
C           28.81391400624812        3.14469445104669        1.43073682604865
C           30.00635520923201        2.61964312453979        0.90712134681907
N           29.76362363035975        1.35085871925185        0.37611364651465
C           31.23927024842677        3.34987808801104        0.92502241801067
C           31.25995505733581        4.73772002067961        1.26647337408227
C           31.29079895338662        5.92577149276538        1.54272309592375
C           31.31229936356661        7.31490923128551        1.87172849482192
C           30.13480703782409        7.99423876001261        2.21685155943445
C           30.19555875001410        9.34224445329114        2.52864378890507
N           31.32600731272363       10.03864573789917        2.51835448362880
C           32.44973152952294        9.41006427323351        2.19352485182829
C           32.49777640018210        8.06471186891213        1.86570313882865
C           32.44946906048615        2.74384764680376        0.62502502596132
C           33.74588253293762        3.37246181330629        0.63027588196992
C           34.65288294672170        2.40070540520314        0.35767776404050
C           33.91347327984516        1.17667660682543        0.17945827180039
N           32.58772465030179        1.39352925714038        0.32459291177066
H           35.58659964990618       -0.09649321331100       -0.10529390374516
H           35.54500499049580       -2.65357275663898       -0.61468047569353
H           33.66739426343188       -4.43561238329614       -1.05115781790596
H           28.82271043059200       -7.30708376946990       -2.33274521570546
H           28.82918100932120       -9.72262144427731       -2.90106361528306
H           32.86649005606846      -10.04626105419373       -2.10104579166625
H           33.02813688036805       -7.64382077986154       -1.50048264161414
H           28.34279948230592       -4.21370400563135       -1.56679153766239
H           26.49159727245875       -2.40367075065945       -1.08799232287113
H           26.77640253139189        2.31100441097480        1.45740372618782
H           28.72224974155780        4.09178168795275        1.93792741149825
H           29.18822315987636        7.46600902808201        2.23860444742323
H           29.28531511695515        9.88049131314786        2.79868866899788
H           33.36503821496848       10.00480855205071        2.19255348583863
H           33.44026323980096        7.59548816282950        1.60672164097286
H           33.96334086709805        4.41501908967978        0.82211775822103
H           35.72099291124375        2.52019432052291        0.27884157895533
C           23.51520938695479        0.00450110638508        0.00475943886021
C           22.26936455937241       -0.01358251067038       -0.00753219959974
C           20.88404255727972       -0.02062603760690       -0.02319800458633
C           19.64282181704436       -0.04706126687678       -0.02506650447751
C           24.90176576743548        0.01633085855827        0.01397604402926
C           26.14195837713385        0.05362617997842        0.02900154826039
122
 energy: -218.605013525854 gnorm: 0.037448046086 xtb: 6.5.1 (b24c23e)
Fe          14.69959464689336        0.00682922120944       -0.00096323941335
C           11.29530809180899        0.10162185371746       -0.00398573280733
C           11.97966772137433        0.91131578657709        0.88269795447382
C           11.32267879793759        1.77720945964631        1.81742194536343
C           12.29800367773399        2.43800996063791        2.48819884392889
C           13.55166757374019        1.97913141316871        1.96122604217811
N           13.34384504665289        1.04417230848025        0.98589693351618
C           14.79448126842640        2.48497137204235        2.37361015662884
C           14.80716771510252        3.48293780231519        3.37835046856471
C           14.82143018345040        4.32791537813154        4.25389512237144
C           14.85515056281050        5.32010516899342        5.26650696500445
C           16.04553255693600        5.98567889244681        5.59272165154268
C           16.03107239131113        6.94781012594464        6.58667189955385
N           14.94025351148129        7.28440036968650        7.26374578963584